GROningen MAchine for Chemical Simulation
95940
    1G5    HO5'    1   4.080   4.534   4.748
    1G5     O5'    2   4.129   4.554   4.667
    1G5     C5'    3   4.241   4.468   4.667
    1G5     H5'    4   4.236   4.400   4.753
    1G5    H5''    5   4.329   4.528   4.690
    1G5     C4'    6   4.255   4.379   4.547
    1G5     H4'    7   4.342   4.320   4.573
    1G5     O4'    8   4.142   4.298   4.515
    1G5     C1'    9   4.132   4.272   4.368
    1G5     H1'   10   4.144   4.170   4.331
    1G5      N9   11   4.004   4.321   4.309
    1G5      C8   12   3.906   4.389   4.375
    1G5      H8   13   3.920   4.415   4.479
    1G5      N7   14   3.810   4.427   4.305
    1G5      C5   15   3.838   4.368   4.180
    1G5      C6   16   3.764   4.368   4.057
    1G5      O6   17   3.661   4.427   4.025
    1G5      N1   18   3.825   4.299   3.955
    1G5      H1   19   3.774   4.291   3.868
    1G5      C2   20   3.948   4.246   3.966
    1G5      N2   21   3.995   4.189   3.857
    1G5     H21   22   3.940   4.178   3.773
    1G5     H22   23   4.086   4.145   3.860
    1G5      N3   24   4.021   4.246   4.078
    1G5      C4   25   3.956   4.309   4.181
    1G5     C3'   26   4.288   4.447   4.415
    1G5     H3'   27   4.225   4.533   4.397
    1G5     C2'   28   4.261   4.343   4.307
    1G5     H2'   29   4.245   4.386   4.209
    1G5     O2'   30   4.350   4.234   4.305
    1G5    HO2'   31   4.348   4.192   4.219
    1G5     O3'   32   4.419   4.503   4.407
    2G        P   33   4.456   4.622   4.307
    2G      OP1   34   4.604   4.633   4.287
    2G      OP2   35   4.392   4.744   4.368
    2G      O5'   36   4.391   4.605   4.166
    2G      C5'   37   4.445   4.522   4.068
    2G      H5'   38   4.435   4.423   4.113
    2G     H5''   39   4.551   4.540   4.051
    2G      C4'   40   4.384   4.520   3.938
    2G      H4'   41   4.441   4.457   3.869
    2G      O4'   42   4.255   4.457   3.929
    2G      C1'   43   4.173   4.533   3.841
    2G      H1'   44   4.123   4.474   3.765
    2G       N9   45   4.056   4.591   3.925
    2G       C8   46   4.024   4.580   4.061
    2G       H8   47   4.085   4.527   4.132
    2G       N7   48   3.906   4.632   4.086
    2G       C5   49   3.862   4.690   3.969
    2G       C6   50   3.739   4.756   3.934
    2G       O6   51   3.637   4.781   3.999
    2G       N1   52   3.733   4.783   3.792
    2G       H1   53   3.651   4.819   3.746
    2G       C2   54   3.836   4.756   3.709
    2G       N2   55   3.807   4.789   3.586
    2G      H21   56   3.727   4.844   3.557
    2G      H22   57   3.882   4.767   3.522
    2G       N3   58   3.945   4.696   3.736
    2G       C4   59   3.954   4.658   3.869
    2G      C3'   60   4.378   4.661   3.883
    2G      H3'   61   4.327   4.725   3.955
    2G      C2'   62   4.267   4.643   3.776
    2G      H2'   63   4.208   4.733   3.762
    2G      O2'   64   4.329   4.604   3.650
    2G     HO2'   65   4.411   4.654   3.651
    2G      O3'   66   4.499   4.715   3.837
    3G        P   67   4.525   4.874   3.854
    3G      OP1   68   4.659   4.895   3.802
    3G      OP2   69   4.503   4.916   3.998
    3G      O5'   70   4.421   4.948   3.761
    3G      C5'   71   4.442   4.969   3.626
    3G      H5'   72   4.459   4.875   3.573
    3G     H5''   73   4.534   5.027   3.613
    3G      C4'   74   4.324   5.048   3.551
    3G      H4'   75   4.349   5.068   3.447
    3G      O4'   76   4.206   4.984   3.578
    3G      C1'   77   4.097   5.084   3.594
    3G      H1'   78   4.003   5.070   3.541
    3G       N9   79   4.056   5.073   3.732
    3G       C8   80   4.104   4.989   3.825
    3G       H8   81   4.193   4.933   3.804
    3G       N7   82   4.031   4.979   3.931
    3G       C5   83   3.931   5.078   3.906
    3G       C6   84   3.825   5.123   3.986
    3G       O6   85   3.791   5.085   4.102
    3G       N1   86   3.734   5.213   3.924
    3G       H1   87   3.649   5.245   3.968
    3G       C2   88   3.758   5.253   3.799
    3G       N2   89   3.688   5.348   3.756
    3G      H21   90   3.610   5.379   3.812
    3G      H22   91   3.712   5.386   3.665
    3G       N3   92   3.872   5.229   3.718
    3G       C4   93   3.950   5.140   3.784
    3G      C3'   94   4.306   5.193   3.605
    3G      H3'   95   4.316   5.196   3.714
    3G      C2'   96   4.160   5.221   3.572
    3G      H2'   97   4.116   5.297   3.637
    3G      O2'   98   4.141   5.254   3.436
    3G     HO2'   99   4.211   5.317   3.416
    3G      O3'  100   4.397   5.287   3.550
    4U        P  101   4.466   5.400   3.634
    4U      OP1  102   4.552   5.473   3.535
    4U      OP2  103   4.519   5.335   3.752
    4U      O5'  104   4.350   5.498   3.677
    4U      C5'  105   4.297   5.598   3.596
    4U      H5'  106   4.267   5.572   3.494
    4U     H5''  107   4.373   5.672   3.570
    4U      C4'  108   4.178   5.667   3.665
    4U      H4'  109   4.139   5.753   3.609
    4U      O4'  110   4.075   5.575   3.688
    4U      C1'  111   4.010   5.623   3.806
    4U      H1'  112   3.907   5.652   3.782
    4U       N1  113   4.007   5.520   3.907
    4U       C6  114   4.113   5.439   3.924
    4U       H6  115   4.194   5.438   3.852
    4U       C5  116   4.126   5.353   4.027
    4U       H5  117   4.210   5.286   4.030
    4U       C4  118   4.022   5.348   4.133
    4U       O4  119   4.018   5.265   4.216
    4U       N3  120   3.913   5.430   4.116
    4U       H3  121   3.833   5.414   4.175
    4U       C2  122   3.903   5.516   4.004
    4U       O2  123   3.794   5.573   3.987
    4U      C3'  124   4.224   5.730   3.798
    4U      H3'  125   4.286   5.661   3.856
    4U      C2'  126   4.088   5.746   3.856
    4U      H2'  127   4.085   5.743   3.965
    4U      O2'  128   4.019   5.857   3.816
    4U     HO2'  129   4.083   5.913   3.771
    4U      O3'  130   4.294   5.851   3.778
    5U        P  131   4.385   5.907   3.888
    5U      OP1  132   4.460   6.018   3.821
    5U      OP2  133   4.460   5.806   3.964
    5U      O5'  134   4.282   5.978   3.986
    5U      C5'  135   4.252   6.117   3.970
    5U      H5'  136   4.194   6.137   3.880
    5U     H5''  137   4.350   6.164   3.962
    5U      C4'  138   4.188   6.164   4.095
    5U      H4'  139   4.179   6.273   4.096
    5U      O4'  140   4.058   6.119   4.103
    5U      C1'  141   4.006   6.107   4.234
    5U      H1'  142   3.914   6.164   4.245
    5U       N1  143   3.970   5.959   4.270
    5U       C6  144   4.039   5.853   4.220
    5U       H6  145   4.119   5.868   4.149
    5U       C5  146   4.013   5.730   4.269
    5U       H5  147   4.074   5.647   4.237
    5U       C4  148   3.918   5.711   4.380
    5U       O4  149   3.892   5.597   4.426
    5U       N3  150   3.866   5.827   4.426
    5U       H3  151   3.792   5.819   4.495
    5U       C2  152   3.880   5.949   4.376
    5U       O2  153   3.808   6.039   4.418
    5U      C3'  154   4.240   6.139   4.241
    5U      H3'  155   4.276   6.037   4.250
    5U      C2'  156   4.116   6.157   4.330
    5U      H2'  157   4.129   6.096   4.419
    5U      O2'  158   4.088   6.286   4.368
    5U     HO2'  159   4.037   6.263   4.446
    5U      O3'  160   4.331   6.249   4.271
    6A        P  161   4.466   6.216   4.341
    6A      OP1  162   4.540   6.344   4.360
    6A      OP2  163   4.527   6.107   4.256
    6A      O5'  164   4.426   6.156   4.480
    6A      C5'  165   4.376   6.237   4.580
    6A      H5'  166   4.299   6.301   4.536
    6A     H5''  167   4.459   6.294   4.623
    6A      C4'  168   4.309   6.145   4.687
    6A      H4'  169   4.279   6.208   4.771
    6A      O4'  170   4.186   6.085   4.654
    6A      C1'  171   4.195   5.946   4.709
    6A      H1'  172   4.108   5.917   4.768
    6A       N9  173   4.231   5.839   4.609
    6A       C8  174   4.292   5.850   4.488
    6A       H8  175   4.326   5.946   4.452
    6A       N7  176   4.300   5.742   4.418
    6A       C5  177   4.238   5.647   4.498
    6A       C6  178   4.203   5.511   4.480
    6A       N6  179   4.230   5.452   4.361
    6A      H61  180   4.201   5.356   4.359
    6A      H62  181   4.278   5.504   4.289
    6A       N1  182   4.137   5.444   4.567
    6A       C2  183   4.109   5.503   4.679
    6A       H2  184   4.048   5.443   4.745
    6A       N3  185   4.127   5.634   4.717
    6A       C4  186   4.198   5.707   4.617
    6A      C3'  187   4.409   6.039   4.731
    6A      H3'  188   4.455   5.995   4.643
    6A      C2'  189   4.316   5.941   4.801
    6A      H2'  190   4.371   5.847   4.799
    6A      O2'  191   4.288   5.982   4.936
    6A     HO2'  192   4.340   6.062   4.950
    6A      O3'  193   4.501   6.099   4.817
    7G        P  194   4.644   6.038   4.843
    7G      OP1  195   4.702   6.122   4.948
    7G      OP2  196   4.716   6.038   4.716
    7G      O5'  197   4.618   5.892   4.901
    7G      C5'  198   4.588   5.874   5.040
    7G      H5'  199   4.519   5.948   5.082
    7G     H5''  200   4.675   5.885   5.105
    7G      C4'  201   4.527   5.736   5.072
    7G      H4'  202   4.487   5.744   5.174
    7G      O4'  203   4.425   5.703   4.975
    7G      C1'  204   4.441   5.567   4.930
    7G      H1'  205   4.350   5.511   4.950
    7G       N9  206   4.487   5.555   4.788
    7G       C8  207   4.543   5.642   4.702
    7G       H8  208   4.585   5.733   4.740
    7G       N7  209   4.566   5.598   4.584
    7G       C5  210   4.524   5.465   4.588
    7G       C6  211   4.532   5.358   4.493
    7G       O6  212   4.564   5.367   4.372
    7G       N1  213   4.480   5.236   4.547
    7G       H1  214   4.482   5.152   4.491
    7G       C2  215   4.428   5.223   4.672
    7G       N2  216   4.429   5.105   4.720
    7G      H21  217   4.455   5.021   4.669
    7G      H22  218   4.418   5.099   4.820
    7G       N3  219   4.425   5.319   4.769
    7G       C4  220   4.473   5.438   4.714
    7G      C3'  221   4.627   5.623   5.076
    7G      H3'  222   4.704   5.646   5.002
    7G      C2'  223   4.539   5.505   5.032
    7G      H2'  224   4.585   5.415   4.991
    7G      O2'  225   4.459   5.472   5.146
    7G     HO2'  226   4.523   5.434   5.208
    7G      O3'  227   4.683   5.613   5.203
    8G        P  228   4.829   5.554   5.221
    8G      OP1  229   4.853   5.544   5.368
    8G      OP2  230   4.922   5.639   5.146
    8G      O5'  231   4.825   5.409   5.161
    8G      C5'  232   4.765   5.300   5.222
    8G      H5'  233   4.660   5.314   5.247
    8G     H5''  234   4.814   5.272   5.315
    8G      C4'  235   4.772   5.176   5.131
    8G      H4'  236   4.735   5.090   5.187
    8G      O4'  237   4.696   5.210   5.014
    8G      C1'  238   4.761   5.142   4.909
    8G      H1'  239   4.706   5.066   4.853
    8G       N9  240   4.800   5.243   4.805
    8G       C8  241   4.842   5.374   4.813
    8G       H8  242   4.845   5.427   4.908
    8G       N7  243   4.881   5.427   4.699
    8G       C5  244   4.847   5.331   4.608
    8G       C6  245   4.864   5.332   4.465
    8G       O6  246   4.888   5.419   4.379
    8G       N1  247   4.846   5.206   4.408
    8G       H1  248   4.823   5.218   4.310
    8G       C2  249   4.800   5.100   4.475
    8G       N2  250   4.769   4.993   4.412
    8G      H21  251   4.747   5.001   4.314
    8G      H22  252   4.710   4.929   4.463
    8G       N3  253   4.778   5.094   4.609
    8G       C4  254   4.807   5.212   4.671
    8G      C3'  255   4.915   5.146   5.086
    8G      H3'  256   4.962   5.241   5.059
    8G      C2'  257   4.879   5.064   4.966
    8G      H2'  258   4.963   5.057   4.898
    8G      O2'  259   4.829   4.931   5.000
    8G     HO2'  260   4.892   4.892   5.062
    8G      O3'  261   4.994   5.079   5.179
    9G        P  262   5.152   5.104   5.182
    9G      OP1  263   5.204   5.020   5.294
    9G      OP2  264   5.179   5.248   5.194
    9G      O5'  265   5.221   5.057   5.046
    9G      C5'  266   5.254   4.916   5.033
    9G      H5'  267   5.160   4.863   5.016
    9G     H5''  268   5.307   4.876   5.119
    9G      C4'  269   5.336   4.896   4.905
    9G      H4'  270   5.364   4.791   4.903
    9G      O4'  271   5.261   4.906   4.789
    9G      C1'  272   5.339   4.980   4.692
    9G      H1'  273   5.327   4.939   4.592
    9G       N9  274   5.285   5.113   4.673
    9G       C8  275   5.202   5.185   4.759
    9G       H8  276   5.140   5.137   4.832
    9G       N7  277   5.192   5.305   4.723
    9G       C5  278   5.278   5.323   4.617
    9G       C6  279   5.312   5.434   4.532
    9G       O6  280   5.273   5.552   4.544
    9G       N1  281   5.413   5.404   4.440
    9G       H1  282   5.445   5.481   4.383
    9G       C2  283   5.456   5.281   4.410
    9G       N2  284   5.552   5.277   4.317
    9G      H21  285   5.570   5.361   4.263
    9G      H22  286   5.598   5.188   4.304
    9G       N3  287   5.430   5.178   4.489
    9G       C4  288   5.343   5.205   4.588
    9G      C3'  289   5.461   4.977   4.894
    9G      H3'  290   5.445   5.080   4.923
    9G      C2'  291   5.486   4.963   4.739
    9G      H2'  292   5.551   5.045   4.709
    9G      O2'  293   5.524   4.829   4.704
    9G     HO2'  294   5.604   4.795   4.746
    9G      O3'  295   5.578   4.927   4.965
   10U        P  296   5.660   5.012   5.060
   10U      OP1  297   5.768   4.926   5.116
   10U      OP2  298   5.564   5.076   5.156
   10U      O5'  299   5.709   5.109   4.952
   10U      C5'  300   5.818   5.065   4.869
   10U      H5'  301   5.783   4.982   4.807
   10U     H5''  302   5.903   5.029   4.926
   10U      C4'  303   5.865   5.179   4.779
   10U      H4'  304   5.948   5.135   4.724
   10U      O4'  305   5.767   5.220   4.677
   10U      C1'  306   5.789   5.360   4.652
   10U      H1'  307   5.809   5.372   4.545
   10U       N1  308   5.669   5.448   4.688
   10U       C6  309   5.584   5.401   4.783
   10U       H6  310   5.594   5.299   4.816
   10U       C5  311   5.484   5.476   4.834
   10U       H5  312   5.416   5.436   4.907
   10U       C4  313   5.467   5.610   4.794
   10U       O4  314   5.379   5.686   4.840
   10U       N3  315   5.560   5.652   4.701
   10U       H3  316   5.559   5.748   4.671
   10U       C2  317   5.656   5.581   4.645
   10U       O2  318   5.713   5.625   4.546
   10U      C3'  319   5.908   5.312   4.849
   10U      H3'  320   5.828   5.337   4.919
   10U      C2'  321   5.905   5.411   4.737
   10U      H2'  322   5.885   5.510   4.776
   10U      O2'  323   6.015   5.405   4.653
   10U     HO2'  324   6.092   5.390   4.709
   10U      O3'  325   6.037   5.289   4.900
   11U        P  326   6.079   5.341   5.053
   11U      OP1  327   6.187   5.252   5.099
   11U      OP2  328   5.959   5.364   5.133
   11U      O5'  329   6.135   5.482   5.019
   11U      C5'  330   6.269   5.506   4.976
   11U      H5'  331   6.289   5.456   4.881
   11U     H5''  332   6.333   5.453   5.047
   11U      C4'  333   6.302   5.655   4.956
   11U      H4'  334   6.409   5.660   4.934
   11U      O4'  335   6.222   5.712   4.854
   11U      C1'  336   6.194   5.848   4.884
   11U      H1'  337   6.243   5.916   4.814
   11U       N1  338   6.047   5.874   4.876
   11U       C6  339   5.957   5.768   4.876
   11U       H6  340   5.989   5.669   4.903
   11U       C5  341   5.831   5.791   4.850
   11U       H5  342   5.757   5.716   4.873
   11U       C4  343   5.779   5.910   4.804
   11U       O4  344   5.666   5.926   4.760
   11U       N3  345   5.865   6.013   4.819
   11U       H3  346   5.824   6.105   4.817
   11U       C2  347   5.997   6.001   4.855
   11U       O2  348   6.054   6.108   4.880
   11U      C3'  349   6.272   5.735   5.077
   11U      H3'  350   6.184   5.697   5.128
   11U      C2'  351   6.254   5.880   5.022
   11U      H2'  352   6.181   5.934   5.083
   11U      O2'  353   6.380   5.944   5.027
   11U     HO2'  354   6.425   5.919   5.108
   11U      O3'  355   6.385   5.735   5.164
   12A        P  356   6.368   5.725   5.320
   12A      OP1  357   6.499   5.745   5.378
   12A      OP2  358   6.292   5.602   5.345
   12A      O5'  359   6.272   5.845   5.352
   12A      C5'  360   6.320   5.976   5.372
   12A      H5'  361   6.368   6.002   5.278
   12A     H5''  362   6.395   5.981   5.450
   12A      C4'  363   6.212   6.073   5.397
   12A      H4'  364   6.248   6.175   5.409
   12A      O4'  365   6.121   6.071   5.286
   12A      C1'  366   5.983   6.097   5.331
   12A      H1'  367   5.947   6.193   5.292
   12A       N9  368   5.897   5.982   5.297
   12A       C8  369   5.943   5.854   5.260
   12A       H8  370   6.047   5.827   5.263
   12A       N7  371   5.851   5.783   5.203
   12A       C5  372   5.738   5.869   5.201
   12A       C6  373   5.607   5.865   5.148
   12A       N6  374   5.559   5.766   5.078
   12A      H61  375   5.461   5.771   5.057
   12A      H62  376   5.594   5.671   5.070
   12A       N1  377   5.520   5.964   5.157
   12A       C2  378   5.565   6.072   5.218
   12A       H2  379   5.486   6.144   5.235
   12A       N3  380   5.690   6.097   5.264
   12A       C4  381   5.769   5.991   5.251
   12A      C3'  382   6.120   6.033   5.517
   12A      H3'  383   6.106   5.926   5.508
   12A      C2'  384   5.988   6.112   5.486
   12A      H2'  385   5.911   6.057   5.540
   12A      O2'  386   5.994   6.249   5.509
   12A     HO2'  387   6.059   6.256   5.579
   12A      O3'  388   6.154   6.076   5.641
   13G        P  389   6.135   5.986   5.771
   13G      OP1  390   6.200   6.052   5.888
   13G      OP2  391   6.168   5.847   5.737
   13G      O5'  392   5.975   5.985   5.805
   13G      C5'  393   5.910   6.096   5.862
   13G      H5'  394   5.964   6.184   5.826
   13G     H5''  395   5.937   6.100   5.968
   13G      C4'  396   5.758   6.103   5.848
   13G      H4'  397   5.724   6.198   5.890
   13G      O4'  398   5.726   6.093   5.706
   13G      C1'  399   5.600   6.024   5.697
   13G      H1'  400   5.527   6.084   5.643
   13G       N9  401   5.613   5.905   5.612
   13G       C8  402   5.728   5.833   5.596
   13G       H8  403   5.818   5.852   5.653
   13G       N7  404   5.711   5.738   5.505
   13G       C5  405   5.578   5.742   5.467
   13G       C6  406   5.497   5.661   5.379
   13G       O6  407   5.534   5.571   5.300
   13G       N1  408   5.366   5.694   5.379
   13G       H1  409   5.317   5.656   5.300
   13G       C2  410   5.315   5.804   5.455
   13G       N2  411   5.192   5.840   5.447
   13G      H21  412   5.136   5.802   5.372
   13G      H22  413   5.166   5.932   5.480
   13G       N3  414   5.383   5.879   5.539
   13G       C4  415   5.515   5.845   5.536
   13G      C3'  416   5.681   5.991   5.920
   13G      H3'  417   5.729   5.894   5.905
   13G      C2'  418   5.556   5.990   5.833
   13G      H2'  419   5.496   5.899   5.841
   13G      O2'  420   5.466   6.093   5.878
   13G     HO2'  421   5.385   6.073   5.830
   13G      O3'  422   5.648   5.997   6.054
   14G        P  423   5.633   5.873   6.157
   14G      OP1  424   5.600   5.928   6.288
   14G      OP2  425   5.754   5.789   6.133
   14G      O5'  426   5.501   5.788   6.112
   14G      C5'  427   5.375   5.855   6.108
   14G      H5'  428   5.397   5.944   6.049
   14G     H5''  429   5.343   5.893   6.205
   14G      C4'  430   5.266   5.770   6.031
   14G      H4'  431   5.165   5.811   6.026
   14G      O4'  432   5.313   5.754   5.891
   14G      C1'  433   5.246   5.643   5.838
   14G      H1'  434   5.163   5.670   5.773
   14G       N9  435   5.345   5.568   5.761
   14G       C8  436   5.484   5.553   5.780
   14G       H8  437   5.541   5.597   5.860
   14G       N7  438   5.537   5.468   5.700
   14G       C5  439   5.429   5.435   5.606
   14G       C6  440   5.426   5.349   5.489
   14G       O6  441   5.514   5.281   5.437
   14G       N1  442   5.301   5.339   5.431
   14G       H1  443   5.286   5.293   5.342
   14G       C2  444   5.198   5.409   5.478
   14G       N2  445   5.098   5.404   5.398
   14G      H21  446   5.100   5.336   5.324
   14G      H22  447   5.025   5.471   5.418
   14G       N3  448   5.197   5.483   5.585
   14G       C4  449   5.319   5.500   5.642
   14G      C3'  450   5.244   5.633   6.088
   14G      H3'  451   5.345   5.601   6.115
   14G      C2'  452   5.197   5.558   5.958
   14G      H2'  453   5.245   5.460   5.954
   14G      O2'  454   5.057   5.541   5.949
   14G     HO2'  455   5.020   5.499   6.027
   14G      O3'  456   5.154   5.628   6.196
   15G        P  457   5.139   5.493   6.278
   15G      OP1  458   5.086   5.527   6.416
   15G      OP2  459   5.259   5.412   6.267
   15G      O5'  460   5.023   5.410   6.204
   15G      C5'  461   4.887   5.436   6.233
   15G      H5'  462   4.854   5.534   6.200
   15G     H5''  463   4.859   5.429   6.338
   15G      C4'  464   4.799   5.343   6.155
   15G      H4'  465   4.694   5.366   6.173
   15G      O4'  466   4.825   5.368   6.014
   15G      C1'  467   4.829   5.247   5.942
   15G      H1'  468   4.762   5.252   5.857
   15G       N9  469   4.965   5.216   5.884
   15G       C8  470   5.085   5.233   5.935
   15G       H8  471   5.095   5.253   6.040
   15G       N7  472   5.191   5.195   5.860
   15G       C5  473   5.130   5.158   5.741
   15G       C6  474   5.182   5.103   5.623
   15G       O6  475   5.300   5.079   5.598
   15G       N1  476   5.087   5.069   5.531
   15G       H1  477   5.117   5.022   5.447
   15G       C2  478   4.959   5.086   5.551
   15G       N2  479   4.883   5.055   5.450
   15G      H21  480   4.909   5.022   5.358
   15G      H22  481   4.791   5.098   5.457
   15G       N3  482   4.899   5.134   5.666
   15G       C4  483   4.993   5.171   5.756
   15G      C3'  484   4.822   5.193   6.176
   15G      H3'  485   4.925   5.164   6.197
   15G      C2'  486   4.775   5.142   6.038
   15G      H2'  487   4.805   5.043   6.005
   15G      O2'  488   4.633   5.141   6.023
   15G     HO2'  489   4.586   5.101   6.096
   15G      O3'  490   4.738   5.132   6.272
   16U        P  491   4.766   4.981   6.324
   16U      OP1  492   4.671   4.951   6.434
   16U      OP2  493   4.906   4.960   6.363
   16U      O5'  494   4.736   4.881   6.206
   16U      C5'  495   4.599   4.844   6.177
   16U      H5'  496   4.544   4.936   6.161
   16U     H5''  497   4.557   4.798   6.266
   16U      C4'  498   4.589   4.753   6.053
   16U      H4'  499   4.484   4.729   6.039
   16U      O4'  500   4.645   4.813   5.934
   16U      C1'  501   4.712   4.716   5.861
   16U      H1'  502   4.659   4.702   5.767
   16U       N1  503   4.850   4.767   5.831
   16U       C6  504   4.933   4.814   5.926
   16U       H6  505   4.903   4.829   6.029
   16U       C5  506   5.063   4.828   5.904
   16U       H5  507   5.132   4.855   5.983
   16U       C4  508   5.124   4.812   5.779
   16U       O4  509   5.243   4.832   5.746
   16U       N3  510   5.034   4.780   5.682
   16U       H3  511   5.076   4.741   5.599
   16U       C2  512   4.895   4.750   5.698
   16U       O2  513   4.822   4.713   5.604
   16U      C3'  514   4.663   4.621   6.084
   16U      H3'  515   4.756   4.652   6.132
   16U      C2'  516   4.708   4.582   5.938
   16U      H2'  517   4.804   4.532   5.938
   16U      O2'  518   4.598   4.505   5.883
   16U     HO2'  519   4.583   4.428   5.938
   16U      O3'  520   4.590   4.533   6.163
   17U        P  521   4.655   4.393   6.209
   17U      OP1  522   4.577   4.332   6.317
   17U      OP2  523   4.798   4.419   6.237
   17U      O5'  524   4.651   4.290   6.081
   17U      C5'  525   4.525   4.241   6.039
   17U      H5'  526   4.451   4.320   6.028
   17U     H5''  527   4.484   4.165   6.106
   17U      C4'  528   4.531   4.157   5.913
   17U      H4'  529   4.433   4.108   5.908
   17U      O4'  530   4.551   4.241   5.804
   17U      C1'  531   4.630   4.161   5.710
   17U      H1'  532   4.567   4.128   5.628
   17U       N1  533   4.745   4.237   5.654
   17U       C6  534   4.867   4.236   5.723
   17U       H6  535   4.884   4.171   5.808
   17U       C5  536   4.967   4.318   5.685
   17U       H5  537   5.056   4.316   5.746
   17U       C4  538   4.955   4.414   5.574
   17U       O4  539   5.041   4.483   5.526
   17U       N3  540   4.833   4.417   5.521
   17U       H3  541   4.822   4.485   5.447
   17U       C2  542   4.730   4.326   5.551
   17U       O2  543   4.630   4.340   5.485
   17U      C3'  544   4.642   4.055   5.920
   17U      H3'  545   4.728   4.103   5.967
   17U      C2'  546   4.663   4.025   5.774
   17U      H2'  547   4.765   3.990   5.758
   17U      O2'  548   4.563   3.932   5.731
   17U     HO2'  549   4.528   3.895   5.812
   17U      O3'  550   4.620   3.944   6.004
   18A        P  551   4.738   3.836   6.027
   18A      OP1  552   4.695   3.751   6.147
   18A      OP2  553   4.867   3.905   6.032
   18A      O5'  554   4.739   3.740   5.901
   18A      C5'  555   4.668   3.615   5.896
   18A      H5'  556   4.564   3.622   5.926
   18A     H5''  557   4.714   3.545   5.965
   18A      C4'  558   4.661   3.549   5.754
   18A      H4'  559   4.580   3.477   5.749
   18A      O4'  560   4.646   3.651   5.651
   18A      C1'  561   4.742   3.632   5.542
   18A      H1'  562   4.681   3.633   5.452
   18A       N9  563   4.838   3.754   5.536
   18A       C8  564   4.971   3.773   5.580
   18A       H8  565   5.024   3.691   5.627
   18A       N7  566   5.029   3.888   5.553
   18A       C5  567   4.918   3.955   5.485
   18A       C6  568   4.904   4.070   5.410
   18A       N6  569   5.008   4.148   5.381
   18A      H61  570   4.994   4.222   5.314
   18A      H62  571   5.100   4.132   5.419
   18A       N1  572   4.801   4.093   5.331
   18A       C2  573   4.701   4.007   5.344
   18A       H2  574   4.614   4.036   5.287
   18A       N3  575   4.697   3.885   5.403
   18A       C4  576   4.812   3.870   5.469
   18A      C3'  577   4.787   3.467   5.719
   18A      H3'  578   4.869   3.518   5.769
   18A      C2'  579   4.808   3.498   5.571
   18A      H2'  580   4.911   3.509   5.539
   18A      O2'  581   4.753   3.395   5.492
   18A     HO2'  582   4.799   3.319   5.528
   18A      O3'  583   4.797   3.328   5.747
   19G        P  584   4.939   3.254   5.776
   19G      OP1  585   4.907   3.128   5.844
   19G      OP2  586   5.034   3.348   5.832
   19G      O5'  587   4.979   3.227   5.614
   19G      C5'  588   4.950   3.112   5.537
   19G      H5'  589   4.842   3.094   5.538
   19G     H5''  590   5.000   3.028   5.586
   19G      C4'  591   4.986   3.126   5.389
   19G      H4'  592   4.969   3.033   5.335
   19G      O4'  593   4.921   3.228   5.318
   19G      C1'  594   5.011   3.289   5.230
   19G      H1'  595   4.979   3.282   5.125
   19G       N9  596   5.043   3.434   5.269
   19G       C8  597   5.120   3.492   5.363
   19G       H8  598   5.152   3.437   5.451
   19G       N7  599   5.120   3.624   5.361
   19G       C5  600   5.053   3.652   5.239
   19G       C6  601   5.024   3.777   5.169
   19G       O6  602   5.059   3.892   5.203
   19G       N1  603   4.954   3.769   5.053
   19G       H1  604   4.919   3.851   5.007
   19G       C2  605   4.916   3.644   5.004
   19G       N2  606   4.835   3.650   4.908
   19G      H21  607   4.831   3.739   4.860
   19G      H22  608   4.801   3.567   4.862
   19G       N3  609   4.937   3.529   5.068
   19G       C4  610   5.008   3.536   5.183
   19G      C3'  611   5.137   3.149   5.379
   19G      H3'  612   5.165   3.211   5.464
   19G      C2'  613   5.143   3.219   5.238
   19G      H2'  614   5.231   3.282   5.227
   19G      O2'  615   5.143   3.115   5.138
   19G     HO2'  616   5.220   3.059   5.143
   19G      O3'  617   5.211   3.029   5.398
   20G        P  618   5.366   3.036   5.390
   20G      OP1  619   5.422   2.923   5.470
   20G      OP2  620   5.397   3.178   5.435
   20G      O5'  621   5.410   3.020   5.238
   20G      C5'  622   5.395   2.889   5.172
   20G      H5'  623   5.307   2.828   5.195
   20G     H5''  624   5.481   2.829   5.200
   20G      C4'  625   5.417   2.894   5.024
   20G      H4'  626   5.379   2.804   4.976
   20G      O4'  627   5.334   2.994   4.978
   20G      C1'  628   5.395   3.085   4.886
   20G      H1'  629   5.338   3.098   4.794
   20G       N9  630   5.390   3.223   4.943
   20G       C8  631   5.471   3.285   5.039
   20G       H8  632   5.545   3.229   5.094
   20G       N7  633   5.457   3.415   5.046
   20G       C5  634   5.344   3.438   4.966
   20G       C6  635   5.283   3.566   4.934
   20G       O6  636   5.303   3.683   4.967
   20G       N1  637   5.191   3.553   4.835
   20G       H1  638   5.138   3.636   4.814
   20G       C2  639   5.161   3.440   4.767
   20G       N2  640   5.054   3.438   4.689
   20G      H21  641   5.017   3.528   4.663
   20G      H22  642   5.025   3.352   4.645
   20G       N3  643   5.217   3.317   4.796
   20G       C4  644   5.308   3.324   4.901
   20G      C3'  645   5.563   2.934   4.983
   20G      H3'  646   5.604   2.996   5.063
   20G      C2'  647   5.532   3.033   4.870
   20G      H2'  648   5.594   3.122   4.866
   20G      O2'  649   5.525   2.970   4.745
   20G     HO2'  650   5.614   2.940   4.725
   20G      O3'  651   5.644   2.818   4.955
   21G3       P  652   5.804   2.830   4.939
   21G3     OP1  653   5.865   2.697   4.946
   21G3     OP2  654   5.859   2.941   5.023
   21G3     O5'  655   5.827   2.885   4.795
   21G3     C5'  656   5.852   2.805   4.682
   21G3     H5'  657   5.785   2.719   4.675
   21G3    H5''  658   5.953   2.769   4.700
   21G3     C4'  659   5.848   2.894   4.558
   21G3     H4'  660   5.858   2.816   4.482
   21G3     O4'  661   5.728   2.967   4.537
   21G3     C1'  662   5.760   3.102   4.510
   21G3     H1'  663   5.698   3.140   4.428
   21G3      N9  664   5.744   3.190   4.628
   21G3      C8  665   5.814   3.198   4.747
   21G3      H8  666   5.891   3.130   4.782
   21G3      N7  667   5.782   3.300   4.825
   21G3      C5  668   5.681   3.363   4.750
   21G3      C6  669   5.610   3.487   4.764
   21G3      O6  670   5.634   3.572   4.848
   21G3      N1  671   5.503   3.517   4.675
   21G3      H1  672   5.471   3.612   4.675
   21G3      C2  673   5.485   3.427   4.571
   21G3      N2  674   5.397   3.463   4.470
   21G3     H21  675   5.357   3.555   4.474
   21G3     H22  676   5.389   3.397   4.394
   21G3      N3  677   5.556   3.320   4.544
   21G3      C4  678   5.649   3.286   4.638
   21G3     C3'  679   5.969   2.983   4.543
   21G3     H3'  680   6.012   3.009   4.640
   21G3     C2'  681   5.907   3.106   4.474
   21G3     H2'  682   5.945   3.204   4.504
   21G3     O2'  683   5.901   3.093   4.327
   21G3    HO2'  684   5.845   3.018   4.307
   21G3     O3'  685   6.073   2.919   4.466
   21G3    HO3'  686   6.101   2.977   4.396
   22Cl-    Cl-  687   6.742   8.131   0.176
   23Cl-    Cl-  688   1.368   4.414   4.851
   24Cl-    Cl-  689   2.742   0.960   0.661
   25Cl-    Cl-  690   3.890   6.731   5.690
   26Cl-    Cl-  691   1.726   9.653   4.079
   27Cl-    Cl-  692   2.933   7.670   9.270
   28Cl-    Cl-  693   4.231   2.659   2.346
   29Cl-    Cl-  694   1.168   3.099   0.832
   30Cl-    Cl-  695   9.569   4.781   9.705
   31Cl-    Cl-  696   9.024   3.191   5.067
   32Cl-    Cl-  697   2.762   2.489   3.213
   33Cl-    Cl-  698   9.809   9.715   6.108
   34Cl-    Cl-  699   6.989   6.124   0.026
   35Cl-    Cl-  700   4.821   6.007   7.250
   36Cl-    Cl-  701   1.095   9.704   1.807
   37Cl-    Cl-  702   7.263   7.862   0.286
   38Cl-    Cl-  703   2.121   9.056   0.232
   39Cl-    Cl-  704   5.046   6.708   8.265
   40Cl-    Cl-  705   6.102   2.250   3.179
   41Cl-    Cl-  706   7.812   9.035   2.402
   42Cl-    Cl-  707   1.613   2.010   4.988
   43Cl-    Cl-  708   4.109   7.722   6.537
   44Cl-    Cl-  709   8.163   6.595   3.539
   45Cl-    Cl-  710   1.328   7.480   9.412
   46Cl-    Cl-  711   2.915   7.862   3.211
   47Cl-    Cl-  712   2.943   9.131   1.063
   48Cl-    Cl-  713   9.371   5.090   9.314
   49Cl-    Cl-  714   6.312   2.436   9.084
   50Cl-    Cl-  715   0.529   3.232   8.123
   51Cl-    Cl-  716   6.438   1.306   1.722
   52Cl-    Cl-  717   3.369   3.465   9.518
   53Cl-    Cl-  718   2.712   7.111   4.671
   54Cl-    Cl-  719   9.784   7.325   3.636
   55Cl-    Cl-  720   4.503   9.014   0.736
   56Cl-    Cl-  721   0.326   2.735   6.745
   57Cl-    Cl-  722   4.909   2.622   6.434
   58Cl-    Cl-  723   1.091   3.006   3.250
   59Cl-    Cl-  724   3.220   9.121   6.751
   60Cl-    Cl-  725   5.555   1.851   0.121
   61Cl-    Cl-  726   8.062   8.935   5.577
   62Cl-    Cl-  727   2.671   4.407   8.959
   63Cl-    Cl-  728   0.094   5.395   1.775
   64Cl-    Cl-  729   1.754   8.739   5.767
   65Cl-    Cl-  730   4.632   1.196   5.408
   66Cl-    Cl-  731   6.051   7.741   7.423
   67Cl-    Cl-  732   4.475   3.363   4.463
   68Cl-    Cl-  733   5.944   0.355   1.094
   69Cl-    Cl-  734   2.771   5.400   5.325
   70Cl-    Cl-  735   0.049   7.552   0.088
   71Cl-    Cl-  736   3.469   5.156   8.653
   72Cl-    Cl-  737   1.171   0.778   7.651
   73Cl-    Cl-  738   0.114   7.418   6.402
   74Cl-    Cl-  739   2.143   8.209   9.679
   75Cl-    Cl-  740   6.608   4.937   0.428
   76Cl-    Cl-  741   5.759   4.063   0.007
   77Cl-    Cl-  742   1.329   1.827   3.845
   78Cl-    Cl-  743   4.199   5.898   2.239
   79Cl-    Cl-  744   7.686   1.285   7.321
   80Cl-    Cl-  745   7.959   8.238   4.494
   81Cl-    Cl-  746   3.373   3.419   4.365
   82Cl-    Cl-  747   2.942   3.008   6.148
   83Cl-    Cl-  748   4.193   3.835   2.747
   84Cl-    Cl-  749   1.355   9.309   8.169
   85Cl-    Cl-  750   4.451   1.058   2.022
   86Cl-    Cl-  751   3.189   4.484   2.770
   87Cl-    Cl-  752   3.642   9.285   4.236
   88Cl-    Cl-  753   4.393   2.720   4.084
   89Cl-    Cl-  754   1.011   7.353   5.070
   90Cl-    Cl-  755   5.470   9.131   1.624
   91Cl-    Cl-  756   0.596   7.222   8.438
   92Cl-    Cl-  757   7.516   3.492   7.777
   93Cl-    Cl-  758   2.748   8.323   8.003
   94Cl-    Cl-  759   6.740   2.426   4.696
   95Cl-    Cl-  760   9.228   5.988   4.945
   96Cl-    Cl-  761   8.770   7.081   9.572
   97Cl-    Cl-  762   2.910   6.979   9.583
   98Cl-    Cl-  763   7.835   5.241   1.991
   99Cl-    Cl-  764   4.264   6.686   6.266
  100Cl-    Cl-  765   3.897   7.891   0.692
  101Cl-    Cl-  766   6.286   0.312   6.638
  102Cl-    Cl-  767   0.447   5.982   3.821
  103Cl-    Cl-  768   5.523   3.694   2.079
  104Cl-    Cl-  769   1.174   5.112   8.733
  105Cl-    Cl-  770   8.326   0.477   2.856
  106Cl-    Cl-  771   8.730   3.354   1.704
  107K+      K+  772   5.693   5.331   5.226
  108K+      K+  773   4.768   8.715   1.795
  109K+      K+  774   7.863   0.370   5.566
  110K+      K+  775   7.653   0.331   5.053
  111K+      K+  776   0.656   1.636   5.325
  112K+      K+  777   3.106   2.370   2.586
  113K+      K+  778   9.546   3.598   8.629
  114K+      K+  779   4.438   3.894   5.492
  115K+      K+  780   4.906   2.593   0.369
  116K+      K+  781   9.087   3.566   9.855
  117K+      K+  782   2.758   7.600   3.673
  118K+      K+  783   3.601   3.257   3.896
  119K+      K+  784   6.819   8.332   0.424
  120K+      K+  785   4.941   1.976   9.062
  121K+      K+  786   1.103   6.398   4.929
  122K+      K+  787   3.119   0.780   9.358
  123K+      K+  788   1.334   2.140   3.334
  124K+      K+  789   3.617   5.307   0.141
  125K+      K+  790   2.490   0.918   6.936
  126K+      K+  791   0.069   4.779   3.113
  127K+      K+  792   1.611   6.112   6.483
  128K+      K+  793   7.863   5.429   1.483
  129K+      K+  794   2.280   0.276   1.105
  130K+      K+  795   0.920   1.508   1.096
  131K+      K+  796   8.095   2.206   8.308
  132K+      K+  797   0.569   8.665   6.824
  133K+      K+  798   9.488   8.297   2.823
  134K+      K+  799   3.148   8.086   7.063
  135K+      K+  800   2.192   2.733   5.027
  136K+      K+  801   3.174   5.809   8.896
  137K+      K+  802   9.410   5.765   6.733
  138K+      K+  803   2.404   8.717   8.021
  139K+      K+  804   7.628   7.304   9.727
  140K+      K+  805   4.029   3.476   9.637
  141K+      K+  806   5.260   9.162   0.700
  142K+      K+  807   1.344   6.908   9.646
  143K+      K+  808   6.776   4.399   4.084
  144K+      K+  809   5.102   9.551   6.645
  145K+      K+  810   4.559   5.724   4.348
  146K+      K+  811   7.637   9.671   6.759
  147K+      K+  812   2.434   4.408   1.906
  148K+      K+  813   6.641   8.824   5.961
  149K+      K+  814   9.583   8.120   0.598
  150K+      K+  815   6.600   6.327   5.270
  151K+      K+  816   8.073   3.521   1.994
  152K+      K+  817   5.105   2.931   5.872
  153K+      K+  818   0.654   1.957   7.403
  154K+      K+  819   3.846   5.871   5.150
  155K+      K+  820   9.233   2.483   0.036
  156K+      K+  821   6.307   6.006   3.141
  157K+      K+  822   6.327   6.898   4.750
  158K+      K+  823   4.506   3.943   2.318
  159K+      K+  824   6.790   8.484   3.845
  160K+      K+  825   6.631   7.293   8.372
  161K+      K+  826   3.476   6.803   5.141
  162K+      K+  827   3.585   0.874   5.078
  163K+      K+  828   9.368   5.706   8.145
  164K+      K+  829   5.616   8.777   7.025
  165K+      K+  830   8.493   0.053   1.913
  166K+      K+  831   5.761   5.297   5.656
  167K+      K+  832   4.111   8.262   1.423
  168K+      K+  833   3.392   0.059   7.295
  169K+      K+  834   1.822   8.835   0.011
  170K+      K+  835   2.116   4.354   3.694
  171K+      K+  836   0.571   9.293   6.113
  172K+      K+  837   5.129   5.571   4.784
  173K+      K+  838   2.895   5.727   9.491
  174K+      K+  839   4.819   6.735   6.447
  175K+      K+  840   3.864   6.340   8.507
  176K+      K+  841   5.309   3.883   7.876
  177K+      K+  842   6.842   5.977   9.191
  178K+      K+  843   9.643   8.260   9.799
  179K+      K+  844   4.738   5.932   8.131
  180K+      K+  845   3.718   4.676   4.281
  181K+      K+  846   4.117   6.817   3.639
  182K+      K+  847   0.731   7.886   6.354
  183K+      K+  848   6.001   5.868   6.465
  184K+      K+  849   8.011   7.001   4.786
  185K+      K+  850   0.915   3.579   9.885
  186K+      K+  851   1.071   8.030   4.059
  187K+      K+  852   5.832   3.520   5.059
  188K+      K+  853   5.888   2.916   3.045
  189K+      K+  854   2.989   3.359   5.391
  190K+      K+  855   3.051   6.860   0.802
  191K+      K+  856   1.624   0.791   3.385
  192K+      K+  857   4.145   1.230   0.908
  193K+      K+  858   4.831   6.001   4.008
  194K+      K+  859   3.508   7.945   9.671
  195K+      K+  860   9.685   5.509   4.199
  196K+      K+  861   0.067   6.765   8.783
  197K+      K+  862   9.860   8.980   2.973
  198K+      K+  863   9.353   6.038   2.148
  199K+      K+  864   5.463   5.019   5.383
  200K+      K+  865   3.922   5.056   4.377
  201K+      K+  866   7.942   0.792   6.538
  202K+      K+  867   4.210   3.270   5.045
  203K+      K+  868   6.177   0.088   9.095
  204K+      K+  869   3.889   0.791   2.140
  205K+      K+  870   1.955   0.698   8.134
  206K+      K+  871   5.423   6.223   6.100
  207K+      K+  872   6.433   0.276   1.737
  208K+      K+  873   6.356   9.035   2.785
  209K+      K+  874   8.970   6.655   9.196
  210K+      K+  875   3.167   4.225   5.687
  211K+      K+  876   5.262   3.853   5.405
  212WAT      O  877   4.669   3.873   6.448
  212WAT     H1  878   4.615   3.801   6.404
  212WAT     H2  879   4.732   3.913   6.382
  213WAT      O  880   8.414   2.993   1.094
  213WAT     H1  881   8.499   3.046   1.099
  213WAT     H2  882   8.423   2.922   1.023
  214WAT      O  883   9.281   8.096   7.657
  214WAT     H1  884   9.304   8.061   7.567
  214WAT     H2  885   9.308   8.192   7.664
  215WAT      O  886   3.409   7.683   5.322
  215WAT     H1  887   3.433   7.596   5.278
  215WAT     H2  888   3.316   7.709   5.297
  216WAT      O  889   7.434   5.703   1.899
  216WAT     H1  890   7.424   5.641   1.976
  216WAT     H2  891   7.345   5.742   1.875
  217WAT      O  892   2.839   3.594   8.001
  217WAT     H1  893   2.816   3.501   7.975
  217WAT     H2  894   2.926   3.620   7.959
  218WAT      O  895   0.577   3.964   9.503
  218WAT     H1  896   0.499   3.997   9.450
  218WAT     H2  897   0.545   3.932   9.592
  219WAT      O  898   7.480   8.243   6.807
  219WAT     H1  899   7.477   8.303   6.727
  219WAT     H2  900   7.400   8.183   6.806
  220WAT      O  901   2.405   3.976   5.417
  220WAT     H1  902   2.488   4.031   5.424
  220WAT     H2  903   2.369   3.958   5.508
  221WAT      O  904   4.201   7.343   6.679
  221WAT     H1  905   4.128   7.299   6.731
  221WAT     H2  906   4.287   7.296   6.696
  222WAT      O  907   1.849   2.150   0.280
  222WAT     H1  908   1.909   2.092   0.225
  222WAT     H2  909   1.784   2.093   0.331
  223WAT      O  910   5.827   1.549   8.079
  223WAT     H1  911   5.894   1.622   8.066
  223WAT     H2  912   5.869   1.461   8.059
  224WAT      O  913   9.266   6.140   7.388
  224WAT     H1  914   9.260   6.092   7.476
  224WAT     H2  915   9.265   6.074   7.313
  225WAT      O  916   8.993   2.629   2.176
  225WAT     H1  917   8.919   2.673   2.228
  225WAT     H2  918   9.013   2.684   2.095
  226WAT      O  919   0.083   0.324   6.618
  226WAT     H1  920   0.121   0.240   6.656
  226WAT     H2  921   0.141   0.355   6.542
  227WAT      O  922   0.987   3.765   6.025
  227WAT     H1  923   0.946   3.840   6.077
  227WAT     H2  924   1.040   3.706   6.086
  228WAT      O  925   9.029   8.601   5.826
  228WAT     H1  926   9.053   8.676   5.887
  228WAT     H2  927   9.003   8.521   5.880
  229WAT      O  928   1.477   2.100   0.049
  229WAT     H1  929   1.409   2.093  -0.024
  229WAT     H2  930   1.466   2.187   0.097
  230WAT      O  931   9.572   0.510   1.921
  230WAT     H1  932   9.576   0.519   2.020
  230WAT     H2  933   9.659   0.473   1.887
  231WAT      O  934   7.332   0.965   6.066
  231WAT     H1  935   7.339   1.023   6.147
  231WAT     H2  936   7.264   1.002   6.004
  232WAT      O  937   9.351   7.059   1.130
  232WAT     H1  938   9.298   7.144   1.128
  232WAT     H2  939   9.410   7.055   1.049
  233WAT      O  940   6.250   9.159   3.828
  233WAT     H1  941   6.296   9.113   3.904
  233WAT     H2  942   6.162   9.115   3.811
  234WAT      O  943   8.690   5.862   8.831
  234WAT     H1  944   8.746   5.782   8.855
  234WAT     H2  945   8.619   5.875   8.901
  235WAT      O  946   4.221   7.021   8.150
  235WAT     H1  947   4.125   7.039   8.129
  235WAT     H2  948   4.272   7.010   8.064
  236WAT      O  949   0.118   1.460   3.387
  236WAT     H1  950   0.082   1.414   3.468
  236WAT     H2  951   0.156   1.549   3.412
  237WAT      O  952   3.778   5.737   0.856
  237WAT     H1  953   3.735   5.650   0.834
  237WAT     H2  954   3.802   5.738   0.954
  238WAT      O  955   3.549   4.937   3.558
  238WAT     H1  956   3.479   4.872   3.531
  238WAT     H2  957   3.600   4.966   3.477
  239WAT      O  958   3.280   6.317   0.711
  239WAT     H1  959   3.244   6.339   0.802
  239WAT     H2  960   3.234   6.236   0.675
  240WAT      O  961   5.245   3.047   0.057
  240WAT     H1  962   5.185   3.044  -0.022
  240WAT     H2  963   5.327   2.992   0.039
  241WAT      O  964   5.751   5.058   7.895
  241WAT     H1  965   5.788   5.047   7.988
  241WAT     H2  966   5.656   5.087   7.900
  242WAT      O  967   1.482   1.982   8.879
  242WAT     H1  968   1.509   2.068   8.922
  242WAT     H2  969   1.548   1.959   8.807
  243WAT      O  970   5.517   1.346   0.407
  243WAT     H1  971   5.568   1.374   0.325
  243WAT     H2  972   5.579   1.303   0.472
  244WAT      O  973   3.625   5.682   6.010
  244WAT     H1  974   3.585   5.657   6.098
  244WAT     H2  975   3.553   5.712   5.948
  245WAT      O  976   8.541   0.772   6.033
  245WAT     H1  977   8.617   0.799   5.974
  245WAT     H2  978   8.560   0.799   6.127
  246WAT      O  979   6.960   2.146   2.190
  246WAT     H1  980   7.005   2.066   2.150
  246WAT     H2  981   6.936   2.127   2.286
  247WAT      O  982   7.368   3.342   2.822
  247WAT     H1  983   7.270   3.349   2.836
  247WAT     H2  984   7.415   3.330   2.910
  248WAT      O  985   9.687   3.132   4.418
  248WAT     H1  986   9.760   3.182   4.465
  248WAT     H2  987   9.599   3.163   4.452
  249WAT      O  988   0.597   2.275   6.573
  249WAT     H1  989   0.575   2.276   6.671
  249WAT     H2  990   0.531   2.218   6.525
  250WAT      O  991   6.092   0.333   5.425
  250WAT     H1  992   6.127   0.316   5.333
  250WAT     H2  993   6.027   0.409   5.423
  251WAT      O  994   3.997   4.889   7.213
  251WAT     H1  995   4.067   4.916   7.147
  251WAT     H2  996   4.006   4.942   7.297
  252WAT      O  997   5.478   2.107   7.909
  252WAT     H1  998   5.463   2.203   7.886
  252WAT     H2  999   5.513   2.059   7.829
  253WAT      O 1000   6.548   1.301   0.295
  253WAT     H1 1001   6.561   1.223   0.235
  253WAT     H2 1002   6.635   1.327   0.336
  254WAT      O 1003   1.882   8.442   5.682
  254WAT     H1 1004   1.979   8.466   5.682
  254WAT     H2 1005   1.827   8.525   5.690
  255WAT      O 1006   2.529   6.579   5.618
  255WAT     H1 1007   2.587   6.531   5.552
  255WAT     H2 1008   2.438   6.592   5.580
  256WAT      O 1009   0.937   5.026   6.450
  256WAT     H1 1010   0.894   5.104   6.403
  256WAT     H2 1011   1.032   5.018   6.419
  257WAT      O 1012   5.144   6.140   6.108
  257WAT     H1 1013   5.059   6.090   6.127
  257WAT     H2 1014   5.148   6.164   6.011
  258WAT      O 1015   7.776   8.381   4.946
  258WAT     H1 1016   7.849   8.319   4.975
  258WAT     H2 1017   7.816   8.469   4.920
  259WAT      O 1018   3.036   1.065   9.779
  259WAT     H1 1019   2.986   1.100   9.700
  259WAT     H2 1020   3.134   1.076   9.765
  260WAT      O 1021   8.750   9.625   8.616
  260WAT     H1 1022   8.727   9.540   8.568
  260WAT     H2 1023   8.765   9.698   8.550
  261WAT      O 1024   6.013   7.313   6.250
  261WAT     H1 1025   6.016   7.394   6.308
  261WAT     H2 1026   5.931   7.315   6.194
  262WAT      O 1027   6.497   7.903   5.426
  262WAT     H1 1028   6.564   7.970   5.394
  262WAT     H2 1029   6.538   7.844   5.495
  263WAT      O 1030   3.061   1.340   9.477
  263WAT     H1 1031   3.001   1.406   9.431
  263WAT     H2 1032   3.156   1.370   9.469
  264WAT      O 1033   5.514   0.308   4.220
  264WAT     H1 1034   5.466   0.223   4.198
  264WAT     H2 1035   5.569   0.294   4.302
  265WAT      O 1036   2.649   0.470   3.119
  265WAT     H1 1037   2.695   0.486   3.031
  265WAT     H2 1038   2.703   0.405   3.173
  266WAT      O 1039   7.001   0.744   3.816
  266WAT     H1 1040   6.941   0.817   3.784
  266WAT     H2 1041   7.090   0.753   3.772
  267WAT      O 1042   5.938   8.609   9.482
  267WAT     H1 1043   6.021   8.661   9.464
  267WAT     H2 1044   5.860   8.657   9.442
  268WAT      O 1045   0.673   9.241   1.738
  268WAT     H1 1046   0.772   9.235   1.723
  268WAT     H2 1047   0.645   9.169   1.802
  269WAT      O 1048   6.226   2.893   2.066
  269WAT     H1 1049   6.285   2.927   2.139
  269WAT     H2 1050   6.224   2.793   2.068
  270WAT      O 1051   4.177   2.273   1.487
  270WAT     H1 1052   4.243   2.285   1.561
  270WAT     H2 1053   4.196   2.187   1.440
  271WAT      O 1054   5.090   7.502   7.802
  271WAT     H1 1055   5.078   7.403   7.794
  271WAT     H2 1056   5.179   7.521   7.843
  272WAT      O 1057   2.222   8.135   1.574
  272WAT     H1 1058   2.156   8.114   1.646
  272WAT     H2 1059   2.291   8.063   1.569
  273WAT      O 1060   9.373   5.180   4.692
  273WAT     H1 1061   9.355   5.082   4.691
  273WAT     H2 1062   9.311   5.225   4.756
  274WAT      O 1063   4.652   5.461   6.473
  274WAT     H1 1064   4.737   5.462   6.526
  274WAT     H2 1065   4.621   5.367   6.460
  275WAT      O 1066   1.757   6.034   7.585
  275WAT     H1 1067   1.833   6.040   7.520
  275WAT     H2 1068   1.720   5.941   7.584
  276WAT      O 1069   2.237   2.582   2.534
  276WAT     H1 1070   2.301   2.553   2.605
  276WAT     H2 1071   2.242   2.519   2.456
  277WAT      O 1072   3.410   0.403   8.539
  277WAT     H1 1073   3.364   0.458   8.608
  277WAT     H2 1074   3.437   0.461   8.462
  278WAT      O 1075   5.225   2.364   8.492
  278WAT     H1 1076   5.221   2.291   8.560
  278WAT     H2 1077   5.261   2.447   8.534
  279WAT      O 1078   1.765   2.884   0.675
  279WAT     H1 1079   1.719   2.795   0.669
  279WAT     H2 1080   1.863   2.872   0.666
  280WAT      O 1081   8.657   2.858   6.241
  280WAT     H1 1082   8.688   2.953   6.238
  280WAT     H2 1083   8.679   2.813   6.154
  281WAT      O 1084   4.541   7.973   9.312
  281WAT     H1 1085   4.492   7.955   9.226
  281WAT     H2 1086   4.480   8.022   9.375
  282WAT      O 1087   3.450   4.153   6.448
  282WAT     H1 1088   3.367   4.118   6.490
  282WAT     H2 1089   3.522   4.084   6.452
  283WAT      O 1090   7.162   7.492   2.509
  283WAT     H1 1091   7.153   7.469   2.606
  283WAT     H2 1092   7.259   7.487   2.483
  284WAT      O 1093   2.987   9.681   6.765
  284WAT     H1 1094   3.057   9.626   6.810
  284WAT     H2 1095   3.019   9.775   6.757
  285WAT      O 1096   2.556   6.274   2.921
  285WAT     H1 1097   2.560   6.179   2.951
  285WAT     H2 1098   2.480   6.320   2.967
  286WAT      O 1099   2.871   7.830   0.669
  286WAT     H1 1100   2.829   7.828   0.760
  286WAT     H2 1101   2.811   7.879   0.606
  287WAT      O 1102   3.564   0.912   0.122
  287WAT     H1 1103   3.532   0.838   0.063
  287WAT     H2 1104   3.490   0.979   0.135
  288WAT      O 1105   7.948   9.160   9.412
  288WAT     H1 1106   7.887   9.221   9.361
  288WAT     H2 1107   7.925   9.163   9.509
  289WAT      O 1108   2.396   9.166   5.967
  289WAT     H1 1109   2.302   9.159   5.933
  289WAT     H2 1110   2.414   9.261   5.994
  290WAT      O 1111   4.927   6.274   5.739
  290WAT     H1 1112   5.008   6.305   5.689
  290WAT     H2 1113   4.850   6.333   5.718
  291WAT      O 1114   0.650   0.907   4.676
  291WAT     H1 1115   0.570   0.907   4.736
  291WAT     H2 1116   0.677   1.002   4.658
  292WAT      O 1117   7.963   2.091   8.126
  292WAT     H1 1118   7.865   2.107   8.112
  292WAT     H2 1119   8.005   2.065   8.039
  293WAT      O 1120   5.041   1.998   8.330
  293WAT     H1 1121   5.010   2.087   8.364
  293WAT     H2 1122   4.985   1.926   8.370
  294WAT      O 1123   3.442   1.717   8.706
  294WAT     H1 1124   3.509   1.791   8.712
  294WAT     H2 1125   3.431   1.674   8.795
  295WAT      O 1126   3.391   5.123   8.147
  295WAT     H1 1127   3.307   5.101   8.097
  295WAT     H2 1128   3.470   5.104   8.089
  296WAT      O 1129   8.738   3.542   8.525
  296WAT     H1 1130   8.807   3.492   8.578
  296WAT     H2 1131   8.732   3.636   8.558
  297WAT      O 1132   0.740   8.548   0.288
  297WAT     H1 1133   0.708   8.633   0.247
  297WAT     H2 1134   0.810   8.506   0.229
  298WAT      O 1135   0.368   2.301   4.869
  298WAT     H1 1136   0.384   2.394   4.902
  298WAT     H2 1137   0.428   2.238   4.917
  299WAT      O 1138   7.641   0.335   6.834
  299WAT     H1 1139   7.735   0.330   6.868
  299WAT     H2 1140   7.636   0.295   6.742
  300WAT      O 1141   6.987   3.670   7.444
  300WAT     H1 1142   6.978   3.653   7.346
  300WAT     H2 1143   6.992   3.582   7.492
  301WAT      O 1144   3.345   5.364   7.009
  301WAT     H1 1145   3.317   5.302   6.936
  301WAT     H2 1146   3.445   5.370   7.012
  302WAT      O 1147   6.792   1.431   1.395
  302WAT     H1 1148   6.811   1.339   1.429
  302WAT     H2 1149   6.745   1.424   1.307
  303WAT      O 1150   5.060   6.887   0.353
  303WAT     H1 1151   5.034   6.809   0.410
  303WAT     H2 1152   4.979   6.923   0.307
  304WAT      O 1153   2.304   3.293   3.902
  304WAT     H1 1154   2.340   3.265   3.991
  304WAT     H2 1155   2.317   3.391   3.890
  305WAT      O 1156   2.945   1.708   1.445
  305WAT     H1 1157   2.937   1.781   1.377
  305WAT     H2 1158   2.855   1.691   1.486
  306WAT      O 1159   3.557   9.373   0.784
  306WAT     H1 1160   3.647   9.376   0.827
  306WAT     H2 1161   3.491   9.333   0.849
  307WAT      O 1162   5.951   0.320   4.997
  307WAT     H1 1163   5.871   0.311   5.056
  307WAT     H2 1164   5.978   0.416   4.991
  308WAT      O 1165   1.930   8.940   1.660
  308WAT     H1 1166   1.870   8.928   1.739
  308WAT     H2 1167   2.022   8.964   1.691
  309WAT      O 1168   1.006   9.230   6.778
  309WAT     H1 1169   1.101   9.214   6.806
  309WAT     H2 1170   0.955   9.145   6.787
  310WAT      O 1171   5.432   8.480   8.146
  310WAT     H1 1172   5.363   8.459   8.077
  310WAT     H2 1173   5.498   8.546   8.109
  311WAT      O 1174   5.044   9.636   9.603
  311WAT     H1 1175   4.971   9.665   9.664
  311WAT     H2 1176   5.104   9.713   9.584
  312WAT      O 1177   6.502   3.309   8.879
  312WAT     H1 1178   6.425   3.309   8.943
  312WAT     H2 1179   6.548   3.397   8.883
  313WAT      O 1180   8.114   7.436   6.313
  313WAT     H1 1181   8.122   7.360   6.378
  313WAT     H2 1182   8.204   7.478   6.300
  314WAT      O 1183   1.660   1.652   7.901
  314WAT     H1 1184   1.751   1.616   7.884
  314WAT     H2 1185   1.654   1.746   7.867
  315WAT      O 1186   2.926   4.369   1.484
  315WAT     H1 1187   2.890   4.277   1.470
  315WAT     H2 1188   3.010   4.380   1.431
  316WAT      O 1189   0.624   3.484   4.255
  316WAT     H1 1190   0.559   3.509   4.326
  316WAT     H2 1191   0.701   3.435   4.295
  317WAT      O 1192   5.711   1.335   3.301
  317WAT     H1 1193   5.669   1.387   3.227
  317WAT     H2 1194   5.738   1.397   3.375
  318WAT      O 1195   6.458   0.993   7.678
  318WAT     H1 1196   6.362   1.017   7.693
  318WAT     H2 1197   6.466   0.943   7.592
  319WAT      O 1198   5.213   0.876   4.171
  319WAT     H1 1199   5.270   0.931   4.232
  319WAT     H2 1200   5.185   0.793   4.219
  320WAT      O 1201   6.363   4.882   6.300
  320WAT     H1 1202   6.305   4.955   6.264
  320WAT     H2 1203   6.416   4.916   6.378
  321WAT      O 1204   1.849   5.402   5.078
  321WAT     H1 1205   1.852   5.469   5.004
  321WAT     H2 1206   1.777   5.428   5.143
  322WAT      O 1207   1.549   6.221   2.228
  322WAT     H1 1208   1.467   6.276   2.244
  322WAT     H2 1209   1.610   6.269   2.165
  323WAT      O 1210   7.576   3.365   5.893
  323WAT     H1 1211   7.552   3.340   5.987
  323WAT     H2 1212   7.502   3.337   5.831
  324WAT      O 1213   3.086   1.678   4.283
  324WAT     H1 1214   3.000   1.634   4.257
  324WAT     H2 1215   3.068   1.749   4.351
  325WAT      O 1216   4.634   9.731   2.211
  325WAT     H1 1217   4.543   9.732   2.252
  325WAT     H2 1218   4.696   9.788   2.265
  326WAT      O 1219   5.257   7.169   8.385
  326WAT     H1 1220   5.231   7.264   8.403
  326WAT     H2 1221   5.177   7.110   8.395
  327WAT      O 1222   2.788   7.826   3.497
  327WAT     H1 1223   2.691   7.829   3.474
  327WAT     H2 1224   2.842   7.850   3.417
  328WAT      O 1225   3.361   4.371   8.879
  328WAT     H1 1226   3.280   4.395   8.932
  328WAT     H2 1227   3.350   4.279   8.842
  329WAT      O 1228   6.385   8.541   4.211
  329WAT     H1 1229   6.463   8.504   4.260
  329WAT     H2 1230   6.317   8.468   4.196
  330WAT      O 1231   5.997   2.755   1.901
  330WAT     H1 1232   6.037   2.667   1.873
  330WAT     H2 1233   6.044   2.788   1.983
  331WAT      O 1234   0.217   0.038   1.975
  331WAT     H1 1235   0.121   0.058   1.952
  331WAT     H2 1236   0.270   0.033   1.890
  332WAT      O 1237   7.052   3.740   2.441
  332WAT     H1 1238   7.008   3.796   2.371
  332WAT     H2 1239   7.017   3.764   2.531
  333WAT      O 1240   5.214   0.549   4.517
  333WAT     H1 1241   5.305   0.510   4.505
  333WAT     H2 1242   5.207   0.589   4.609
  334WAT      O 1243   3.662   2.417   4.327
  334WAT     H1 1244   3.643   2.320   4.340
  334WAT     H2 1245   3.727   2.430   4.252
  335WAT      O 1246   7.861   8.831   5.355
  335WAT     H1 1247   7.914   8.828   5.270
  335WAT     H2 1248   7.920   8.860   5.430
  336WAT      O 1249   6.259   5.069   4.819
  336WAT     H1 1250   6.307   5.119   4.747
  336WAT     H2 1251   6.195   5.131   4.866
  337WAT      O 1252   2.452   2.003   4.044
  337WAT     H1 1253   2.357   1.994   4.014
  337WAT     H2 1254   2.460   1.970   4.138
  338WAT      O 1255   2.249   8.108   6.507
  338WAT     H1 1256   2.305   8.058   6.574
  338WAT     H2 1257   2.221   8.196   6.546
  339WAT      O 1258   4.560   9.180   9.520
  339WAT     H1 1259   4.594   9.274   9.511
  339WAT     H2 1260   4.624   9.127   9.575
  340WAT      O 1261   1.599   7.079   9.103
  340WAT     H1 1262   1.590   6.981   9.086
  340WAT     H2 1263   1.622   7.094   9.199
  341WAT      O 1264   8.058   3.225   0.707
  341WAT     H1 1265   7.980   3.286   0.722
  341WAT     H2 1266   8.126   3.271   0.651
  342WAT      O 1267   6.203   3.811   3.295
  342WAT     H1 1268   6.139   3.741   3.262
  342WAT     H2 1269   6.179   3.899   3.256
  343WAT      O 1270   0.745   0.868   2.676
  343WAT     H1 1271   0.748   0.967   2.691
  343WAT     H2 1272   0.762   0.849   2.579
  344WAT      O 1273   5.038   7.315   8.141
  344WAT     H1 1274   5.060   7.304   8.044
  344WAT     H2 1275   4.939   7.315   8.152
  345WAT      O 1276   2.395   6.155   3.751
  345WAT     H1 1277   2.382   6.071   3.803
  345WAT     H2 1278   2.493   6.170   3.736
  346WAT      O 1279   2.288   6.197   0.150
  346WAT     H1 1280   2.199   6.236   0.171
  346WAT     H2 1281   2.281   6.098   0.144
  347WAT      O 1282   3.769   0.669   0.920
  347WAT     H1 1283   3.708   0.590   0.904
  347WAT     H2 1284   3.727   0.751   0.882
  348WAT      O 1285   2.231   1.203   1.186
  348WAT     H1 1286   2.314   1.242   1.224
  348WAT     H2 1287   2.246   1.180   1.089
  349WAT      O 1288   2.651   5.420   1.084
  349WAT     H1 1289   2.723   5.422   1.015
  349WAT     H2 1290   2.619   5.513   1.102
  350WAT      O 1291   2.541   6.235   2.463
  350WAT     H1 1292   2.598   6.155   2.444
  350WAT     H2 1293   2.448   6.218   2.429
  351WAT      O 1294   1.478   9.175   1.956
  351WAT     H1 1295   1.499   9.103   1.889
  351WAT     H2 1296   1.382   9.200   1.949
  352WAT      O 1297   4.324   7.850   4.796
  352WAT     H1 1298   4.417   7.851   4.834
  352WAT     H2 1299   4.308   7.933   4.743
  353WAT      O 1300   2.792   4.769   8.627
  353WAT     H1 1301   2.827   4.820   8.706
  353WAT     H2 1302   2.802   4.824   8.545
  354WAT      O 1303   4.414   0.272   0.248
  354WAT     H1 1304   4.323   0.290   0.210
  354WAT     H2 1305   4.454   0.192   0.204
  355WAT      O 1306   0.438   9.049   4.495
  355WAT     H1 1307   0.446   9.144   4.525
  355WAT     H2 1308   0.343   9.031   4.468
  356WAT      O 1309   8.867   5.723   8.295
  356WAT     H1 1310   8.768   5.734   8.289
  356WAT     H2 1311   8.896   5.736   8.390
  357WAT      O 1312   9.440   9.211   2.530
  357WAT     H1 1313   9.490   9.190   2.446
  357WAT     H2 1314   9.378   9.288   2.513
  358WAT      O 1315   9.279   8.423   4.990
  358WAT     H1 1316   9.308   8.394   5.082
  358WAT     H2 1317   9.183   8.449   4.992
  359WAT      O 1318   3.471   0.277   5.451
  359WAT     H1 1319   3.471   0.362   5.399
  359WAT     H2 1320   3.424   0.292   5.538
  360WAT      O 1321   5.031   4.601   6.153
  360WAT     H1 1322   5.036   4.679   6.215
  360WAT     H2 1323   4.957   4.540   6.181
  361WAT      O 1324   2.536   0.201   7.693
  361WAT     H1 1325   2.619   0.174   7.742
  361WAT     H2 1326   2.460   0.209   7.758
  362WAT      O 1327   8.307   3.426   5.739
  362WAT     H1 1328   8.257   3.472   5.813
  362WAT     H2 1329   8.405   3.443   5.750
  363WAT      O 1330   4.523   3.065   0.222
  363WAT     H1 1331   4.592   3.013   0.172
  363WAT     H2 1332   4.479   3.005   0.290
  364WAT      O 1333   5.569   7.697   7.293
  364WAT     H1 1334   5.530   7.753   7.220
  364WAT     H2 1335   5.631   7.629   7.252
  365WAT      O 1336   6.763   1.567   8.854
  365WAT     H1 1337   6.832   1.622   8.807
  365WAT     H2 1338   6.807   1.515   8.927
  366WAT      O 1339   0.535   1.370   0.487
  366WAT     H1 1340   0.485   1.311   0.549
  366WAT     H2 1341   0.576   1.315   0.414
  367WAT      O 1342   5.315   6.812   7.296
  367WAT     H1 1343   5.396   6.800   7.238
  367WAT     H2 1344   5.281   6.906   7.285
  368WAT      O 1345   3.788   9.128   8.132
  368WAT     H1 1346   3.791   9.030   8.154
  368WAT     H2 1347   3.696   9.153   8.102
  369WAT      O 1348   1.700   5.489   2.834
  369WAT     H1 1349   1.682   5.457   2.927
  369WAT     H2 1350   1.658   5.578   2.820
  370WAT      O 1351   8.614   3.054   8.620
  370WAT     H1 1352   8.610   3.129   8.554
  370WAT     H2 1353   8.568   3.080   8.705
  371WAT      O 1354   6.703   6.102   7.671
  371WAT     H1 1355   6.693   6.005   7.694
  371WAT     H2 1356   6.638   6.156   7.724
  372WAT      O 1357   4.773   4.757   8.940
  372WAT     H1 1358   4.865   4.736   8.973
  372WAT     H2 1359   4.707   4.699   8.988
  373WAT      O 1360   4.276   1.137   2.293
  373WAT     H1 1361   4.299   1.143   2.196
  373WAT     H2 1362   4.314   1.215   2.342
  374WAT      O 1363   0.462   1.077   2.076
  374WAT     H1 1364   0.445   0.990   2.124
  374WAT     H2 1365   0.421   1.074   1.985
  375WAT      O 1366   8.247   0.293   9.098
  375WAT     H1 1367   8.338   0.276   9.062
  375WAT     H2 1368   8.178   0.253   9.037
  376WAT      O 1369   7.765   3.065   1.424
  376WAT     H1 1370   7.799   2.973   1.408
  376WAT     H2 1371   7.670   3.071   1.395
  377WAT      O 1372   2.940   9.046   8.795
  377WAT     H1 1373   2.962   9.134   8.754
  377WAT     H2 1374   2.844   9.024   8.778
  378WAT      O 1375   9.683   3.286   6.205
  378WAT     H1 1376   9.686   3.259   6.108
  378WAT     H2 1377   9.670   3.204   6.261
  379WAT      O 1378   6.589   7.570   8.221
  379WAT     H1 1379   6.625   7.533   8.135
  379WAT     H2 1380   6.533   7.651   8.203
  380WAT      O 1381   0.348   6.523   9.654
  380WAT     H1 1382   0.364   6.611   9.609
  380WAT     H2 1383   0.276   6.534   9.724
  381WAT      O 1384   6.749   7.642   1.962
  381WAT     H1 1385   6.828   7.604   2.008
  381WAT     H2 1386   6.665   7.602   1.999
  382WAT      O 1387   2.545   2.161   5.916
  382WAT     H1 1388   2.555   2.127   6.009
  382WAT     H2 1389   2.606   2.239   5.902
  383WAT      O 1390   9.645   7.715   3.618
  383WAT     H1 1391   9.587   7.635   3.630
  383WAT     H2 1392   9.739   7.686   3.600
  384WAT      O 1393   9.397   5.029   1.214
  384WAT     H1 1394   9.325   4.970   1.175
  384WAT     H2 1395   9.431   4.989   1.299
  385WAT      O 1396   4.128   8.830   3.884
  385WAT     H1 1397   4.166   8.866   3.799
  385WAT     H2 1398   4.201   8.812   3.949
  386WAT      O 1399   7.354   1.937   4.906
  386WAT     H1 1400   7.388   2.032   4.908
  386WAT     H2 1401   7.395   1.886   4.982
  387WAT      O 1402   8.980   0.051   6.492
  387WAT     H1 1403   8.967  -0.008   6.572
  387WAT     H2 1404   9.056   0.017   6.437
  388WAT      O 1405   2.366   0.259   5.142
  388WAT     H1 1406   2.340   0.224   5.053
  388WAT     H2 1407   2.425   0.339   5.131
  389WAT      O 1408   9.243   8.743   0.096
  389WAT     H1 1409   9.266   8.840   0.095
  389WAT     H2 1410   9.274   8.700   0.011
  390WAT      O 1411   9.656   1.034   1.455
  390WAT     H1 1412   9.649   1.083   1.542
  390WAT     H2 1413   9.573   0.980   1.441
  391WAT      O 1414   0.424   5.518   9.695
  391WAT     H1 1415   0.416   5.570   9.611
  391WAT     H2 1416   0.410   5.421   9.676
  392WAT      O 1417   6.943   9.089   7.948
  392WAT     H1 1418   6.986   9.167   7.993
  392WAT     H2 1419   6.951   9.008   8.006
  393WAT      O 1420   3.394   2.098   4.142
  393WAT     H1 1421   3.383   2.024   4.075
  393WAT     H2 1422   3.467   2.075   4.206
  394WAT      O 1423   3.158   5.113   6.304
  394WAT     H1 1424   3.123   5.129   6.211
  394WAT     H2 1425   3.181   5.200   6.346
  395WAT      O 1426   3.880   3.331   7.294
  395WAT     H1 1427   3.934   3.256   7.333
  395WAT     H2 1428   3.942   3.398   7.254
  396WAT      O 1429   5.381   4.741   2.787
  396WAT     H1 1430   5.352   4.818   2.730
  396WAT     H2 1431   5.327   4.740   2.871
  397WAT      O 1432   0.304   3.029   0.490
  397WAT     H1 1433   0.392   3.070   0.515
  397WAT     H2 1434   0.271   2.973   0.567
  398WAT      O 1435   2.412   2.018   1.387
  398WAT     H1 1436   2.448   1.960   1.461
  398WAT     H2 1437   2.321   2.050   1.412
  399WAT      O 1438   1.225   8.756   1.569
  399WAT     H1 1439   1.187   8.741   1.661
  399WAT     H2 1440   1.309   8.702   1.559
  400WAT      O 1441   6.980   3.132   0.933
  400WAT     H1 1442   6.900   3.165   0.883
  400WAT     H2 1443   7.051   3.202   0.933
  401WAT      O 1444   0.131   4.809   2.411
  401WAT     H1 1445   0.227   4.837   2.401
  401WAT     H2 1446   0.077   4.887   2.442
  402WAT      O 1447   6.697   2.603   8.244
  402WAT     H1 1448   6.721   2.698   8.262
  402WAT     H2 1449   6.717   2.581   8.148
  403WAT      O 1450   1.348   0.573   8.724
  403WAT     H1 1451   1.330   0.583   8.627
  403WAT     H2 1452   1.290   0.636   8.776
  404WAT      O 1453   1.459   6.188   8.175
  404WAT     H1 1454   1.507   6.175   8.261
  404WAT     H2 1455   1.473   6.281   8.142
  405WAT      O 1456   6.044   9.812   9.662
  405WAT     H1 1457   5.988   9.893   9.681
  405WAT     H2 1458   6.140   9.839   9.660
  406WAT      O 1459   2.205   1.116   3.681
  406WAT     H1 1460   2.135   1.155   3.621
  406WAT     H2 1461   2.284   1.087   3.627
  407WAT      O 1462   1.579   6.464   2.000
  407WAT     H1 1463   1.672   6.481   2.031
  407WAT     H2 1464   1.540   6.549   1.965
  408WAT      O 1465   3.887   1.260   0.004
  408WAT     H1 1466   3.881   1.194   0.080
  408WAT     H2 1467   3.983   1.285  -0.010
  409WAT      O 1468   1.681   7.533   3.406
  409WAT     H1 1469   1.647   7.443   3.378
  409WAT     H2 1470   1.776   7.542   3.380
  410WAT      O 1471   4.186   4.231   6.803
  410WAT     H1 1472   4.281   4.255   6.824
  410WAT     H2 1473   4.166   4.139   6.837
  411WAT      O 1474   1.943   2.997   4.490
  411WAT     H1 1475   1.921   3.010   4.393
  411WAT     H2 1476   1.983   2.906   4.503
  412WAT      O 1477   1.660   8.027   6.157
  412WAT     H1 1478   1.588   8.026   6.088
  412WAT     H2 1479   1.744   8.064   6.117
  413WAT      O 1480   1.730   2.137   8.536
  413WAT     H1 1481   1.725   2.064   8.605
  413WAT     H2 1482   1.818   2.184   8.544
  414WAT      O 1483   8.997   8.697   4.400
  414WAT     H1 1484   8.925   8.759   4.432
  414WAT     H2 1485   9.086   8.733   4.427
  415WAT      O 1486   3.223   7.834   7.773
  415WAT     H1 1487   3.174   7.808   7.690
  415WAT     H2 1488   3.293   7.766   7.794
  416WAT      O 1489   6.678   0.205   1.822
  416WAT     H1 1490   6.693   0.235   1.916
  416WAT     H2 1491   6.752   0.238   1.764
  417WAT      O 1492   8.371   5.441   2.753
  417WAT     H1 1493   8.461   5.485   2.751
  417WAT     H2 1494   8.349   5.415   2.847
  418WAT      O 1495   9.054   6.445   0.913
  418WAT     H1 1496   8.995   6.421   0.990
  418WAT     H2 1497   9.078   6.541   0.918
  419WAT      O 1498   8.017   7.655   9.079
  419WAT     H1 1499   8.064   7.727   9.130
  419WAT     H2 1500   7.990   7.689   8.989
  420WAT      O 1501   0.256   4.517   1.563
  420WAT     H1 1502   0.180   4.569   1.523
  420WAT     H2 1503   0.307   4.575   1.626
  421WAT      O 1504   2.612   0.057   8.682
  421WAT     H1 1505   2.564   0.014   8.758
  421WAT     H2 1506   2.548   0.075   8.608
  422WAT      O 1507   1.147   3.832   1.317
  422WAT     H1 1508   1.104   3.742   1.323
  422WAT     H2 1509   1.177   3.861   1.408
  423WAT      O 1510   4.378   6.981   2.566
  423WAT     H1 1511   4.318   6.904   2.583
  423WAT     H2 1512   4.373   7.008   2.470
  424WAT      O 1513   5.324   9.502   9.315
  424WAT     H1 1514   5.291   9.462   9.400
  424WAT     H2 1515   5.260   9.481   9.241
  425WAT      O 1516   4.306   4.918   2.289
  425WAT     H1 1517   4.253   4.890   2.369
  425WAT     H2 1518   4.262   4.995   2.244
  426WAT      O 1519   0.938   9.139   3.470
  426WAT     H1 1520   0.987   9.173   3.389
  426WAT     H2 1521   0.897   9.216   3.519
  427WAT      O 1522   4.621   1.338   4.047
  427WAT     H1 1523   4.598   1.385   4.132
  427WAT     H2 1524   4.709   1.371   4.013
  428WAT      O 1525   2.584   9.457   8.545
  428WAT     H1 1526   2.653   9.528   8.563
  428WAT     H2 1527   2.531   9.440   8.628
  429WAT      O 1528   6.346   4.386   2.719
  429WAT     H1 1529   6.394   4.322   2.781
  429WAT     H2 1530   6.283   4.335   2.662
  430WAT      O 1531   3.081   4.028   6.885
  430WAT     H1 1532   3.089   3.931   6.906
  430WAT     H2 1533   3.171   4.071   6.893
  431WAT      O 1534   8.410   3.683   7.818
  431WAT     H1 1535   8.476   3.741   7.771
  431WAT     H2 1536   8.322   3.730   7.823
  432WAT      O 1537   1.064   3.005   5.367
  432WAT     H1 1538   1.091   3.036   5.458
  432WAT     H2 1539   0.973   2.963   5.372
  433WAT      O 1540   6.350   6.873   5.041
  433WAT     H1 1541   6.352   6.887   5.140
  433WAT     H2 1542   6.306   6.785   5.020
  434WAT      O 1543   0.232   3.837   4.069
  434WAT     H1 1544   0.145   3.862   4.112
  434WAT     H2 1545   0.265   3.751   4.107
  435WAT      O 1546   9.068   1.910   1.687
  435WAT     H1 1547   9.158   1.945   1.658
  435WAT     H2 1548   9.005   1.914   1.610
  436WAT      O 1549   1.860   0.022   1.513
  436WAT     H1 1550   1.849  -0.071   1.548
  436WAT     H2 1551   1.954   0.036   1.482
  437WAT      O 1552   1.762   5.271   1.004
  437WAT     H1 1553   1.844   5.302   0.955
  437WAT     H2 1554   1.789   5.203   1.072
  438WAT      O 1555   8.346   3.302   8.149
  438WAT     H1 1556   8.258   3.297   8.101
  438WAT     H2 1557   8.356   3.222   8.208
  439WAT      O 1558   8.504   4.618   2.262
  439WAT     H1 1559   8.571   4.635   2.334
  439WAT     H2 1560   8.522   4.679   2.184
  440WAT      O 1561   8.870   9.027   7.834
  440WAT     H1 1562   8.775   9.018   7.865
  440WAT     H2 1563   8.919   9.090   7.896
  441WAT      O 1564   3.768   8.350   9.223
  441WAT     H1 1565   3.709   8.394   9.291
  441WAT     H2 1566   3.731   8.365   9.132
  442WAT      O 1567   4.635   7.733   8.567
  442WAT     H1 1568   4.551   7.770   8.527
  442WAT     H2 1569   4.708   7.734   8.499
  443WAT      O 1570   7.644   3.852   4.224
  443WAT     H1 1571   7.631   3.763   4.269
  443WAT     H2 1572   7.725   3.847   4.165
  444WAT      O 1573   0.846   1.024   4.341
  444WAT     H1 1574   0.920   1.089   4.355
  444WAT     H2 1575   0.876   0.932   4.367
  445WAT      O 1576   5.258   9.166   8.054
  445WAT     H1 1577   5.215   9.125   8.134
  445WAT     H2 1578   5.291   9.257   8.076
  446WAT      O 1579   2.200   6.214   1.033
  446WAT     H1 1580   2.104   6.242   1.040
  446WAT     H2 1581   2.230   6.221   0.938
  447WAT      O 1582   7.247   3.319   7.722
  447WAT     H1 1583   7.332   3.361   7.755
  447WAT     H2 1584   7.221   3.244   7.783
  448WAT      O 1585   7.582   8.087   3.633
  448WAT     H1 1586   7.672   8.122   3.606
  448WAT     H2 1587   7.591   8.036   3.719
  449WAT      O 1588   6.656   0.040   5.734
  449WAT     H1 1589   6.708  -0.026   5.679
  449WAT     H2 1590   6.564   0.050   5.696
  450WAT      O 1591   1.428   0.248   0.448
  450WAT     H1 1592   1.350   0.308   0.463
  450WAT     H2 1593   1.507   0.283   0.499
  451WAT      O 1594   0.223   3.039   6.029
  451WAT     H1 1595   0.213   2.974   5.954
  451WAT     H2 1596   0.264   2.993   6.108
  452WAT      O 1597   4.056   5.771   9.714
  452WAT     H1 1598   3.992   5.784   9.790
  452WAT     H2 1599   4.024   5.695   9.657
  453WAT      O 1600   2.255   4.748   0.833
  453WAT     H1 1601   2.158   4.740   0.855
  453WAT     H2 1602   2.285   4.666   0.784
  454WAT      O 1603   1.745   2.023   3.599
  454WAT     H1 1604   1.814   1.951   3.591
  454WAT     H2 1605   1.753   2.086   3.521
  455WAT      O 1606   3.548   4.848   4.941
  455WAT     H1 1607   3.560   4.867   5.038
  455WAT     H2 1608   3.530   4.934   4.893
  456WAT      O 1609   7.135   7.428   2.759
  456WAT     H1 1610   7.074   7.500   2.792
  456WAT     H2 1611   7.132   7.350   2.822
  457WAT      O 1612   8.469   7.639   4.021
  457WAT     H1 1613   8.550   7.600   4.064
  457WAT     H2 1614   8.476   7.739   4.020
  458WAT      O 1615   8.226   6.811   4.712
  458WAT     H1 1616   8.318   6.846   4.692
  458WAT     H2 1617   8.167   6.827   4.633
  459WAT      O 1618   7.453   5.080   8.427
  459WAT     H1 1619   7.371   5.025   8.416
  459WAT     H2 1620   7.477   5.122   8.339
  460WAT      O 1621   3.145   9.361   2.193
  460WAT     H1 1622   3.101   9.280   2.156
  460WAT     H2 1623   3.090   9.397   2.269
  461WAT      O 1624   2.743   7.623   5.540
  461WAT     H1 1625   2.811   7.599   5.609
  461WAT     H2 1626   2.660   7.656   5.584
  462WAT      O 1627   6.616   8.911   6.529
  462WAT     H1 1628   6.708   8.872   6.531
  462WAT     H2 1629   6.613   8.993   6.587
  463WAT      O 1630   4.441   1.942   7.356
  463WAT     H1 1631   4.358   1.991   7.383
  463WAT     H2 1632   4.418   1.849   7.327
  464WAT      O 1633   4.818   3.209   8.197
  464WAT     H1 1634   4.766   3.240   8.277
  464WAT     H2 1635   4.881   3.281   8.168
  465WAT      O 1636   8.573   3.942   2.451
  465WAT     H1 1637   8.548   4.035   2.424
  465WAT     H2 1638   8.666   3.943   2.488
  466WAT      O 1639   0.261   9.049   2.658
  466WAT     H1 1640   0.245   8.990   2.579
  466WAT     H2 1641   0.177   9.099   2.680
  467WAT      O 1642   0.890   2.814   1.429
  467WAT     H1 1643   0.903   2.913   1.430
  467WAT     H2 1644   0.965   2.771   1.381
  468WAT      O 1645   2.075   4.559   1.593
  468WAT     H1 1646   2.109   4.478   1.547
  468WAT     H2 1647   2.143   4.592   1.658
  469WAT      O 1648   1.422   2.559   6.376
  469WAT     H1 1649   1.363   2.561   6.457
  469WAT     H2 1650   1.368   2.585   6.296
  470WAT      O 1651   8.644   1.744   2.541
  470WAT     H1 1652   8.706   1.702   2.606
  470WAT     H2 1653   8.550   1.735   2.574
  471WAT      O 1654   7.796   3.551   4.450
  471WAT     H1 1655   7.714   3.559   4.507
  471WAT     H2 1656   7.769   3.541   4.354
  472WAT      O 1657   3.315   3.116   4.994
  472WAT     H1 1658   3.353   3.134   4.903
  472WAT     H2 1659   3.315   3.017   5.010
  473WAT      O 1660   2.297   4.468   4.282
  473WAT     H1 1661   2.292   4.548   4.222
  473WAT     H2 1662   2.300   4.498   4.377
  474WAT      O 1663   8.976   5.136   4.872
  474WAT     H1 1664   8.938   5.071   4.938
  474WAT     H2 1665   8.905   5.203   4.847
  475WAT      O 1666   6.946   8.596   6.325
  475WAT     H1 1667   6.877   8.576   6.394
  475WAT     H2 1668   6.979   8.511   6.284
  476WAT      O 1669   4.597   7.416   3.637
  476WAT     H1 1670   4.501   7.443   3.640
  476WAT     H2 1671   4.654   7.493   3.666
  477WAT      O 1672   2.034   4.244   5.141
  477WAT     H1 1673   2.052   4.205   5.051
  477WAT     H2 1674   2.077   4.187   5.212
  478WAT      O 1675   7.293   2.803   4.291
  478WAT     H1 1676   7.267   2.722   4.343
  478WAT     H2 1677   7.320   2.876   4.354
  479WAT      O 1678   3.440   6.070   5.723
  479WAT     H1 1679   3.384   6.056   5.805
  479WAT     H2 1680   3.505   6.145   5.739
  480WAT      O 1681   0.622   4.849   8.672
  480WAT     H1 1682   0.575   4.781   8.728
  480WAT     H2 1683   0.592   4.841   8.577
  481WAT      O 1684   2.380   3.984   5.705
  481WAT     H1 1685   2.317   4.058   5.728
  481WAT     H2 1686   2.473   4.011   5.727
  482WAT      O 1687   1.998   5.752   6.174
  482WAT     H1 1688   2.065   5.741   6.100
  482WAT     H2 1689   2.046   5.760   6.261
  483WAT      O 1690   0.543   1.558   2.745
  483WAT     H1 1691   0.488   1.535   2.665
  483WAT     H2 1692   0.490   1.615   2.807
  484WAT      O 1693   7.625   9.780   3.488
  484WAT     H1 1694   7.714   9.783   3.533
  484WAT     H2 1695   7.568   9.856   3.521
  485WAT      O 1696   4.373   4.912   5.837
  485WAT     H1 1697   4.399   4.816   5.826
  485WAT     H2 1698   4.451   4.971   5.813
  486WAT      O 1699   8.898   1.650   0.688
  486WAT     H1 1700   8.884   1.697   0.775
  486WAT     H2 1701   8.979   1.591   0.695
  487WAT      O 1702   0.492   3.703   7.470
  487WAT     H1 1703   0.521   3.635   7.537
  487WAT     H2 1704   0.572   3.741   7.425
  488WAT      O 1705   7.767   1.177   7.042
  488WAT     H1 1706   7.746   1.215   7.132
  488WAT     H2 1707   7.784   1.251   6.978
  489WAT      O 1708   2.427   2.381   7.166
  489WAT     H1 1709   2.492   2.386   7.242
  489WAT     H2 1710   2.456   2.309   7.102
  490WAT      O 1711   0.008   4.099   2.073
  490WAT     H1 1712   0.017   4.009   2.030
  490WAT     H2 1713   0.027   4.091   2.171
  491WAT      O 1714   0.300   9.402   2.332
  491WAT     H1 1715   0.399   9.391   2.345
  491WAT     H2 1716   0.266   9.328   2.274
  492WAT      O 1717   8.837   9.023   5.842
  492WAT     H1 1718   8.770   9.086   5.880
  492WAT     H2 1719   8.887   9.068   5.768
  493WAT      O 1720   6.055   4.155   0.026
  493WAT     H1 1721   5.960   4.128   0.008
  493WAT     H2 1722   6.116   4.078   0.005
  494WAT      O 1723   0.209   5.605   9.453
  494WAT     H1 1724   0.131   5.656   9.417
  494WAT     H2 1725   0.291   5.663   9.448
  495WAT      O 1726   7.145   8.555   8.420
  495WAT     H1 1727   7.236   8.553   8.462
  495WAT     H2 1728   7.078   8.587   8.487
  496WAT      O 1729   3.555   5.629   3.082
  496WAT     H1 1730   3.593   5.554   3.027
  496WAT     H2 1731   3.484   5.594   3.143
  497WAT      O 1732   0.166   5.406   0.338
  497WAT     H1 1733   0.119   5.356   0.265
  497WAT     H2 1734   0.167   5.350   0.421
  498WAT      O 1735   8.285   4.130   5.585
  498WAT     H1 1736   8.323   4.044   5.620
  498WAT     H2 1737   8.187   4.120   5.569
  499WAT      O 1738   8.060   2.656   4.858
  499WAT     H1 1739   8.067   2.623   4.953
  499WAT     H2 1740   8.137   2.718   4.839
  500WAT      O 1741   2.931   7.525   2.974
  500WAT     H1 1742   2.889   7.441   2.939
  500WAT     H2 1743   2.862   7.579   3.022
  501WAT      O 1744   3.627   5.077   6.630
  501WAT     H1 1745   3.664   5.077   6.537
  501WAT     H2 1746   3.684   5.019   6.689
  502WAT      O 1747   5.829   0.789   8.243
  502WAT     H1 1748   5.761   0.852   8.204
  502WAT     H2 1749   5.842   0.810   8.340
  503WAT      O 1750   4.510   3.701   1.609
  503WAT     H1 1751   4.582   3.666   1.550
  503WAT     H2 1752   4.421   3.675   1.573
  504WAT      O 1753   7.214   8.378   0.078
  504WAT     H1 1754   7.261   8.466   0.085
  504WAT     H2 1755   7.275   8.305   0.110
  505WAT      O 1756   7.249   6.549   8.619
  505WAT     H1 1757   7.257   6.450   8.606
  505WAT     H2 1758   7.163   6.570   8.665
  506WAT      O 1759   5.231   0.386   8.120
  506WAT     H1 1760   5.180   0.369   8.035
  506WAT     H2 1761   5.327   0.402   8.098
  507WAT      O 1762   4.895   2.680   3.511
  507WAT     H1 1763   4.942   2.763   3.483
  507WAT     H2 1764   4.807   2.674   3.464
  508WAT      O 1765   5.169   2.942   8.637
  508WAT     H1 1766   5.117   2.980   8.561
  508WAT     H2 1767   5.264   2.974   8.632
  509WAT      O 1768   3.583   4.930   5.196
  509WAT     H1 1769   3.681   4.917   5.208
  509WAT     H2 1770   3.541   4.951   5.284
  510WAT      O 1771   2.990   7.121   3.294
  510WAT     H1 1772   3.069   7.138   3.235
  510WAT     H2 1773   2.975   7.201   3.353
  511WAT      O 1774   4.185   2.164   7.951
  511WAT     H1 1775   4.099   2.215   7.948
  511WAT     H2 1776   4.179   2.085   7.890
  512WAT      O 1777   4.139   4.832   2.003
  512WAT     H1 1778   4.082   4.819   2.084
  512WAT     H2 1779   4.182   4.745   1.979
  513WAT      O 1780   1.710   3.181   6.346
  513WAT     H1 1781   1.640   3.126   6.392
  513WAT     H2 1782   1.754   3.127   6.274
  514WAT      O 1783   1.664   9.535   3.485
  514WAT     H1 1784   1.708   9.526   3.574
  514WAT     H2 1785   1.625   9.627   3.476
  515WAT      O 1786   8.250   0.355   3.186
  515WAT     H1 1787   8.310   0.435   3.174
  515WAT     H2 1788   8.206   0.334   3.099
  516WAT      O 1789   4.702   6.476   6.827
  516WAT     H1 1790   4.790   6.451   6.867
  516WAT     H2 1791   4.629   6.447   6.890
  517WAT      O 1792   4.014   8.456   0.932
  517WAT     H1 1793   4.045   8.377   0.881
  517WAT     H2 1794   4.069   8.536   0.908
  518WAT      O 1795   4.303   0.541   7.582
  518WAT     H1 1796   4.312   0.623   7.639
  518WAT     H2 1797   4.330   0.460   7.635
  519WAT      O 1798   7.569   4.797   7.519
  519WAT     H1 1799   7.604   4.743   7.596
  519WAT     H2 1800   7.611   4.765   7.434
  520WAT      O 1801   6.269   6.862   2.181
  520WAT     H1 1802   6.174   6.880   2.207
  520WAT     H2 1803   6.271   6.800   2.103
  521WAT      O 1804   0.373   0.218   5.526
  521WAT     H1 1805   0.389   0.210   5.428
  521WAT     H2 1806   0.371   0.127   5.567
  522WAT      O 1807   6.723   6.905   2.238
  522WAT     H1 1808   6.686   6.867   2.153
  522WAT     H2 1809   6.651   6.956   2.286
  523WAT      O 1810   6.337   5.077   8.623
  523WAT     H1 1811   6.270   5.024   8.675
  523WAT     H2 1812   6.429   5.053   8.652
  524WAT      O 1813   0.076   4.002   5.791
  524WAT     H1 1814   0.028   4.084   5.822
  524WAT     H2 1815   0.133   3.966   5.866
  525WAT      O 1816   4.382   5.938   1.420
  525WAT     H1 1817   4.417   5.855   1.464
  525WAT     H2 1818   4.357   6.004   1.490
  526WAT      O 1819   0.133   9.824   8.750
  526WAT     H1 1820   0.048   9.856   8.709
  526WAT     H2 1821   0.205   9.892   8.735
  527WAT      O 1822   0.631   4.237   8.327
  527WAT     H1 1823   0.627   4.334   8.353
  527WAT     H2 1824   0.551   4.189   8.364
  528WAT      O 1825   2.339   2.412   2.740
  528WAT     H1 1826   2.410   2.473   2.775
  528WAT     H2 1827   2.362   2.317   2.764
  529WAT      O 1828   4.135   1.107   2.672
  529WAT     H1 1829   4.175   1.196   2.691
  529WAT     H2 1830   4.067   1.085   2.743
  530WAT      O 1831   7.869   8.740   0.309
  530WAT     H1 1832   7.849   8.732   0.407
  530WAT     H2 1833   7.897   8.834   0.289
  531WAT      O 1834   4.596   9.152   6.620
  531WAT     H1 1835   4.508   9.131   6.664
  531WAT     H2 1836   4.584   9.224   6.553
  532WAT      O 1837   2.183   1.231   6.037
  532WAT     H1 1838   2.106   1.294   6.047
  532WAT     H2 1839   2.218   1.236   5.944
  533WAT      O 1840   7.005   0.512   8.630
  533WAT     H1 1841   6.964   0.550   8.547
  533WAT     H2 1842   6.951   0.541   8.709
  534WAT      O 1843   3.632   5.809   4.579
  534WAT     H1 1844   3.553   5.857   4.542
  534WAT     H2 1845   3.610   5.711   4.587
  535WAT      O 1846   2.492   7.495   3.192
  535WAT     H1 1847   2.580   7.539   3.171
  535WAT     H2 1848   2.490   7.404   3.151
  536WAT      O 1849   2.481   4.389   4.643
  536WAT     H1 1850   2.565   4.436   4.614
  536WAT     H2 1851   2.478   4.387   4.743
  537WAT      O 1852   0.790   7.402   1.746
  537WAT     H1 1853   0.846   7.477   1.711
  537WAT     H2 1854   0.830   7.315   1.719
  538WAT      O 1855   3.277   7.690   2.808
  538WAT     H1 1856   3.244   7.770   2.857
  538WAT     H2 1857   3.210   7.664   2.738
  539WAT      O 1858   6.984   9.407   7.144
  539WAT     H1 1859   7.050   9.337   7.171
  539WAT     H2 1860   6.911   9.365   7.091
  540WAT      O 1861   1.697   6.206   9.015
  540WAT     H1 1862   1.748   6.121   9.022
  540WAT     H2 1863   1.606   6.195   9.057
  541WAT      O 1864   3.240   2.650   5.324
  541WAT     H1 1865   3.178   2.619   5.397
  541WAT     H2 1866   3.320   2.693   5.365
  542WAT      O 1867   9.545   8.663   8.203
  542WAT     H1 1868   9.480   8.662   8.127
  542WAT     H2 1869   9.594   8.576   8.206
  543WAT      O 1870   5.583   5.939   1.911
  543WAT     H1 1871   5.571   5.934   2.010
  543WAT     H2 1872   5.680   5.927   1.889
  544WAT      O 1873   5.305   7.621   1.460
  544WAT     H1 1874   5.291   7.708   1.508
  544WAT     H2 1875   5.303   7.546   1.526
  545WAT      O 1876   5.475   1.641   0.584
  545WAT     H1 1877   5.379   1.625   0.562
  545WAT     H2 1878   5.531   1.624   0.503
  546WAT      O 1879   6.172   6.330   9.238
  546WAT     H1 1880   6.101   6.289   9.181
  546WAT     H2 1881   6.247   6.265   9.249
  547WAT      O 1882   1.834   4.573   5.242
  547WAT     H1 1883   1.750   4.626   5.240
  547WAT     H2 1884   1.817   4.483   5.202
  548WAT      O 1885   2.507   3.214   2.018
  548WAT     H1 1886   2.475   3.173   2.102
  548WAT     H2 1887   2.519   3.144   1.948
  549WAT      O 1888   8.037   5.545   2.689
  549WAT     H1 1889   8.093   5.625   2.666
  549WAT     H2 1890   7.988   5.563   2.775
  550WAT      O 1891   3.320   5.500   5.656
  550WAT     H1 1892   3.224   5.499   5.631
  550WAT     H2 1893   3.361   5.587   5.627
  551WAT      O 1894   7.794   2.121   9.600
  551WAT     H1 1895   7.775   2.203   9.547
  551WAT     H2 1896   7.740   2.045   9.563
  552WAT      O 1897   6.547   0.429   4.609
  552WAT     H1 1898   6.575   0.334   4.603
  552WAT     H2 1899   6.447   0.435   4.609
  553WAT      O 1900   7.961   1.262   5.843
  553WAT     H1 1901   7.914   1.324   5.905
  553WAT     H2 1902   7.916   1.263   5.754
  554WAT      O 1903   8.844   9.108   4.055
  554WAT     H1 1904   8.809   9.049   4.128
  554WAT     H2 1905   8.940   9.085   4.038
  555WAT      O 1906   7.072   0.811   4.089
  555WAT     H1 1907   7.021   0.779   4.169
  555WAT     H2 1908   7.025   0.782   4.006
  556WAT      O 1909   8.659   4.979   9.024
  556WAT     H1 1910   8.718   5.059   9.029
  556WAT     H2 1911   8.714   4.896   9.027
  557WAT      O 1912   2.305   2.345   9.697
  557WAT     H1 1913   2.240   2.334   9.771
  557WAT     H2 1914   2.380   2.405   9.727
  558WAT      O 1915   9.684   1.657   2.135
  558WAT     H1 1916   9.648   1.569   2.104
  558WAT     H2 1917   9.720   1.708   2.057
  559WAT      O 1918   7.962   3.535   8.644
  559WAT     H1 1919   7.874   3.532   8.596
  559WAT     H2 1920   7.956   3.600   8.720
  560WAT      O 1921   0.657   2.821   8.670
  560WAT     H1 1922   0.635   2.728   8.700
  560WAT     H2 1923   0.753   2.825   8.643
  561WAT      O 1924   3.869   8.106   8.161
  561WAT     H1 1925   3.873   8.006   8.173
  561WAT     H2 1926   3.819   8.147   8.238
  562WAT      O 1927   9.560   9.126   1.787
  562WAT     H1 1928   9.609   9.206   1.754
  562WAT     H2 1929   9.531   9.070   1.709
  563WAT      O 1930   7.251   5.102   1.775
  563WAT     H1 1931   7.335   5.122   1.825
  563WAT     H2 1932   7.272   5.083   1.679
  564WAT      O 1933   2.550   2.677   7.258
  564WAT     H1 1934   2.477   2.709   7.317
  564WAT     H2 1935   2.539   2.580   7.239
  565WAT      O 1936   6.995   1.056   9.184
  565WAT     H1 1937   6.924   1.016   9.127
  565WAT     H2 1938   7.071   0.991   9.194
  566WAT      O 1939   6.153   7.963   6.885
  566WAT     H1 1940   6.123   7.910   6.964
  566WAT     H2 1941   6.213   8.037   6.915
  567WAT      O 1942   8.527   5.835   7.422
  567WAT     H1 1943   8.522   5.832   7.522
  567WAT     H2 1944   8.452   5.781   7.383
  568WAT      O 1945   2.678   6.926   2.540
  568WAT     H1 1946   2.625   6.936   2.624
  568WAT     H2 1947   2.675   6.830   2.510
  569WAT      O 1948   8.185   0.531   8.865
  569WAT     H1 1949   8.196   0.579   8.952
  569WAT     H2 1950   8.211   0.436   8.875
  570WAT      O 1951   1.789   5.014   6.219
  570WAT     H1 1952   1.800   5.090   6.283
  570WAT     H2 1953   1.859   5.020   6.148
  571WAT      O 1954   2.067   6.084   3.696
  571WAT     H1 1955   1.979   6.129   3.704
  571WAT     H2 1956   2.139   6.152   3.681
  572WAT      O 1957   7.168   1.495   8.203
  572WAT     H1 1958   7.124   1.470   8.117
  572WAT     H2 1959   7.121   1.448   8.279
  573WAT      O 1960   4.030   8.362   1.710
  573WAT     H1 1961   4.122   8.368   1.749
  573WAT     H2 1962   3.970   8.314   1.773
  574WAT      O 1963   9.285   6.064   7.630
  574WAT     H1 1964   9.266   6.105   7.719
  574WAT     H2 1965   9.383   6.055   7.617
  575WAT      O 1966   8.443   7.293   6.174
  575WAT     H1 1967   8.392   7.212   6.143
  575WAT     H2 1968   8.504   7.324   6.102
  576WAT      O 1969   7.977   2.978   7.030
  576WAT     H1 1970   7.973   3.060   7.087
  576WAT     H2 1971   7.892   2.970   6.978
  577WAT      O 1972   4.100   9.702   3.819
  577WAT     H1 1973   4.129   9.649   3.739
  577WAT     H2 1974   4.037   9.773   3.791
  578WAT      O 1975   0.203   7.229   2.156
  578WAT     H1 1976   0.265   7.286   2.101
  578WAT     H2 1977   0.110   7.265   2.150
  579WAT      O 1978   7.092   9.605   4.233
  579WAT     H1 1979   7.008   9.613   4.179
  579WAT     H2 1980   7.111   9.509   4.253
  580WAT      O 1981   1.353   4.542   8.865
  580WAT     H1 1982   1.451   4.543   8.880
  580WAT     H2 1983   1.314   4.632   8.888
  581WAT      O 1984   4.798   3.395   9.704
  581WAT     H1 1985   4.824   3.374   9.609
  581WAT     H2 1986   4.849   3.336   9.766
  582WAT      O 1987   2.765   7.593   0.501
  582WAT     H1 1988   2.683   7.631   0.545
  582WAT     H2 1989   2.822   7.667   0.467
  583WAT      O 1990   9.871   2.324   3.995
  583WAT     H1 1991   9.857   2.423   3.996
  583WAT     H2 1992   9.902   2.294   4.085
  584WAT      O 1993   9.103   3.542   3.229
  584WAT     H1 1994   9.026   3.593   3.191
  584WAT     H2 1995   9.096   3.446   3.201
  585WAT      O 1996   3.691   5.015   3.109
  585WAT     H1 1997   3.602   5.058   3.119
  585WAT     H2 1998   3.743   5.061   3.037
  586WAT      O 1999   1.685   1.832   3.309
  586WAT     H1 2000   1.708   1.912   3.364
  586WAT     H2 2001   1.669   1.860   3.214
  587WAT      O 2002   2.813   8.366   2.959
  587WAT     H1 2003   2.835   8.463   2.951
  587WAT     H2 2004   2.719   8.356   2.992
  588WAT      O 2005   4.424   5.096   0.351
  588WAT     H1 2006   4.359   5.171   0.364
  588WAT     H2 2007   4.516   5.126   0.377
  589WAT      O 2008   3.163   1.594   8.649
  589WAT     H1 2009   3.091   1.587   8.580
  589WAT     H2 2010   3.213   1.681   8.638
  590WAT      O 2011   9.703   2.506   0.377
  590WAT     H1 2012   9.679   2.548   0.290
  590WAT     H2 2013   9.764   2.428   0.360
  591WAT      O 2014   6.637   8.980   0.336
  591WAT     H1 2015   6.630   9.006   0.432
  591WAT     H2 2016   6.546   8.969   0.297
  592WAT      O 2017   4.696   5.687   3.924
  592WAT     H1 2018   4.716   5.661   4.018
  592WAT     H2 2019   4.600   5.717   3.918
  593WAT      O 2020   9.667   7.178   8.792
  593WAT     H1 2021   9.677   7.141   8.885
  593WAT     H2 2022   9.611   7.116   8.738
  594WAT      O 2023   6.919   1.777   9.777
  594WAT     H1 2024   6.940   1.717   9.700
  594WAT     H2 2025   6.953   1.734   9.862
  595WAT      O 2026   2.151   5.570   9.646
  595WAT     H1 2027   2.183   5.566   9.741
  595WAT     H2 2028   2.228   5.565   9.584
  596WAT      O 2029   7.024   2.615   5.451
  596WAT     H1 2030   6.952   2.554   5.485
  596WAT     H2 2031   7.054   2.586   5.361
  597WAT      O 2032   8.924   2.745   5.149
  597WAT     H1 2033   8.922   2.817   5.079
  597WAT     H2 2034   9.013   2.743   5.193
  598WAT      O 2035   1.465   4.381   9.365
  598WAT     H1 2036   1.461   4.428   9.454
  598WAT     H2 2037   1.439   4.286   9.377
  599WAT      O 2038   7.247   3.414   4.834
  599WAT     H1 2039   7.222   3.399   4.739
  599WAT     H2 2040   7.325   3.477   4.839
  600WAT      O 2041   7.786   3.127   5.836
  600WAT     H1 2042   7.734   3.209   5.815
  600WAT     H2 2043   7.727   3.047   5.830
  601WAT      O 2044   4.924   3.825   0.211
  601WAT     H1 2045   4.867   3.854   0.288
  601WAT     H2 2046   4.867   3.781   0.141
  602WAT      O 2047   3.175   7.667   6.581
  602WAT     H1 2048   3.264   7.711   6.566
  602WAT     H2 2049   3.144   7.625   6.496
  603WAT      O 2050   2.652   7.215   5.158
  603WAT     H1 2051   2.729   7.169   5.203
  603WAT     H2 2052   2.672   7.313   5.151
  604WAT      O 2053   0.990   9.216   0.277
  604WAT     H1 2054   0.943   9.147   0.332
  604WAT     H2 2055   1.042   9.277   0.336
  605WAT      O 2056   8.274   2.558   1.583
  605WAT     H1 2057   8.355   2.531   1.635
  605WAT     H2 2058   8.221   2.624   1.635
  606WAT      O 2059   6.341   5.219   5.894
  606WAT     H1 2060   6.315   5.261   5.981
  606WAT     H2 2061   6.384   5.131   5.910
  607WAT      O 2062   5.996   3.008   9.759
  607WAT     H1 2063   6.017   3.093   9.710
  607WAT     H2 2064   5.900   3.007   9.785
  608WAT      O 2065   4.423   9.295   2.878
  608WAT     H1 2066   4.347   9.254   2.827
  608WAT     H2 2067   4.388   9.335   2.962
  609WAT      O 2068   5.925   6.795   2.477
  609WAT     H1 2069   5.849   6.734   2.500
  609WAT     H2 2070   5.891   6.869   2.419
  610WAT      O 2071   6.249   8.143   8.154
  610WAT     H1 2072   6.256   8.044   8.138
  610WAT     H2 2073   6.324   8.190   8.108
  611WAT      O 2074   2.763   3.970   4.696
  611WAT     H1 2075   2.835   3.912   4.659
  611WAT     H2 2076   2.784   4.066   4.679
  612WAT      O 2077   0.819   5.073   3.979
  612WAT     H1 2078   0.755   4.996   3.982
  612WAT     H2 2079   0.790   5.136   3.906
  613WAT      O 2080   9.410   3.451   3.127
  613WAT     H1 2081   9.400   3.539   3.081
  613WAT     H2 2082   9.391   3.461   3.224
  614WAT      O 2083   3.017   0.620   3.754
  614WAT     H1 2084   2.991   0.683   3.681
  614WAT     H2 2085   3.082   0.665   3.816
  615WAT      O 2086   2.037   4.342   4.327
  615WAT     H1 2087   2.125   4.389   4.323
  615WAT     H2 2088   2.052   4.245   4.348
  616WAT      O 2089   7.447   3.449   2.380
  616WAT     H1 2090   7.353   3.478   2.367
  616WAT     H2 2091   7.505   3.495   2.312
  617WAT      O 2092   4.284   8.306   1.789
  617WAT     H1 2093   4.318   8.364   1.863
  617WAT     H2 2094   4.358   8.288   1.725
  618WAT      O 2095   7.538   3.234   6.927
  618WAT     H1 2096   7.567   3.306   6.990
  618WAT     H2 2097   7.617   3.198   6.879
  619WAT      O 2098   5.811   7.646   6.894
  619WAT     H1 2099   5.904   7.623   6.866
  619WAT     H2 2100   5.796   7.617   6.988
  620WAT      O 2101   0.611   3.977   5.499
  620WAT     H1 2102   0.635   3.916   5.574
  620WAT     H2 2103   0.516   3.962   5.473
  621WAT      O 2104   3.116   0.233   2.062
  621WAT     H1 2105   3.119   0.332   2.065
  621WAT     H2 2106   3.069   0.204   1.979
  622WAT      O 2107   9.810   7.720   0.404
  622WAT     H1 2108   9.877   7.752   0.336
  622WAT     H2 2109   9.753   7.648   0.364
  623WAT      O 2110   1.849   2.175   7.909
  623WAT     H1 2111   1.860   2.264   7.953
  623WAT     H2 2112   1.760   2.136   7.935
  624WAT      O 2113   6.104   2.376   4.305
  624WAT     H1 2114   6.077   2.440   4.377
  624WAT     H2 2115   6.025   2.323   4.276
  625WAT      O 2116   3.955   6.445   3.104
  625WAT     H1 2117   4.005   6.480   3.024
  625WAT     H2 2118   3.865   6.413   3.075
  626WAT      O 2119   5.079   0.331   3.984
  626WAT     H1 2120   5.055   0.317   4.080
  626WAT     H2 2121   5.026   0.408   3.947
  627WAT      O 2122   0.246   1.693   4.675
  627WAT     H1 2123   0.330   1.640   4.677
  627WAT     H2 2124   0.261   1.780   4.723
  628WAT      O 2125   4.281   8.085   1.335
  628WAT     H1 2126   4.376   8.110   1.316
  628WAT     H2 2127   4.278   8.004   1.393
  629WAT      O 2128   8.343   2.508   1.014
  629WAT     H1 2129   8.296   2.444   1.075
  629WAT     H2 2130   8.440   2.487   1.012
  630WAT      O 2131   7.555   8.492   0.884
  630WAT     H1 2132   7.586   8.547   0.962
  630WAT     H2 2133   7.459   8.466   0.897
  631WAT      O 2134   9.339   8.261   8.094
  631WAT     H1 2135   9.392   8.274   8.010
  631WAT     H2 2136   9.400   8.241   8.170
  632WAT      O 2137   8.043   9.490   1.070
  632WAT     H1 2138   8.099   9.476   1.151
  632WAT     H2 2139   7.979   9.565   1.086
  633WAT      O 2140   5.528   5.868   7.323
  633WAT     H1 2141   5.441   5.821   7.338
  633WAT     H2 2142   5.517   5.966   7.343
  634WAT      O 2143   6.180   9.176   5.982
  634WAT     H1 2144   6.190   9.258   6.039
  634WAT     H2 2145   6.263   9.163   5.928
  635WAT      O 2146   7.719   6.094   5.495
  635WAT     H1 2147   7.627   6.079   5.461
  635WAT     H2 2148   7.771   6.008   5.490
  636WAT      O 2149   9.178   0.834   3.561
  636WAT     H1 2150   9.195   0.918   3.611
  636WAT     H2 2151   9.087   0.799   3.584
  637WAT      O 2152   4.087   9.671   9.037
  637WAT     H1 2153   3.994   9.688   9.068
  637WAT     H2 2154   4.084   9.620   8.950
  638WAT      O 2155   9.616   7.130   0.315
  638WAT     H1 2156   9.630   7.150   0.412
  638WAT     H2 2157   9.705   7.122   0.270
  639WAT      O 2158   2.121   7.291   3.319
  639WAT     H1 2159   2.041   7.309   3.376
  639WAT     H2 2160   2.125   7.194   3.295
  640WAT      O 2161   4.851   0.895   4.834
  640WAT     H1 2162   4.875   0.859   4.924
  640WAT     H2 2163   4.931   0.893   4.775
  641WAT      O 2164   0.371   5.212   9.397
  641WAT     H1 2165   0.450   5.248   9.448
  641WAT     H2 2166   0.294   5.274   9.407
  642WAT      O 2167   2.339   2.943   1.514
  642WAT     H1 2168   2.278   3.010   1.558
  642WAT     H2 2169   2.421   2.990   1.481
  643WAT      O 2170   6.206   5.642   1.027
  643WAT     H1 2171   6.272   5.630   1.101
  643WAT     H2 2172   6.147   5.561   1.023
  644WAT      O 2173   1.322   7.332   3.363
  644WAT     H1 2174   1.326   7.373   3.272
  644WAT     H2 2175   1.249   7.264   3.366
  645WAT      O 2176   6.094   8.883   9.131
  645WAT     H1 2177   6.185   8.843   9.142
  645WAT     H2 2178   6.025   8.812   9.141
  646WAT      O 2179   2.245   2.028   9.126
  646WAT     H1 2180   2.205   2.024   9.034
  646WAT     H2 2181   2.203   2.103   9.177
  647WAT      O 2182   7.536   8.278   1.656
  647WAT     H1 2183   7.540   8.337   1.736
  647WAT     H2 2184   7.532   8.183   1.685
  648WAT      O 2185   7.005   0.027   9.079
  648WAT     H1 2186   7.013  -0.072   9.069
  648WAT     H2 2187   7.090   0.064   9.115
  649WAT      O 2188   5.339   2.001   7.473
  649WAT     H1 2189   5.341   1.933   7.546
  649WAT     H2 2190   5.321   2.092   7.511
  650WAT      O 2191   0.875   6.948   6.854
  650WAT     H1 2192   0.907   7.012   6.784
  650WAT     H2 2193   0.950   6.925   6.916
  651WAT      O 2194   5.952   9.690   4.980
  651WAT     H1 2195   5.935   9.593   4.962
  651WAT     H2 2196   6.050   9.706   4.982
  652WAT      O 2197   7.450   2.927   1.579
  652WAT     H1 2198   7.471   2.974   1.494
  652WAT     H2 2199   7.532   2.923   1.636
  653WAT      O 2200   1.335   5.814   3.656
  653WAT     H1 2201   1.334   5.873   3.575
  653WAT     H2 2202   1.244   5.813   3.698
  654WAT      O 2203   7.097   2.585   6.987
  654WAT     H1 2204   7.118   2.648   7.062
  654WAT     H2 2205   7.183   2.550   6.948
  655WAT      O 2206   8.846   1.096   7.214
  655WAT     H1 2207   8.944   1.093   7.196
  655WAT     H2 2208   8.824   1.031   7.287
  656WAT      O 2209   2.923   1.176   5.519
  656WAT     H1 2210   2.938   1.232   5.600
  656WAT     H2 2211   2.918   1.235   5.438
  657WAT      O 2212   6.313   4.588   8.800
  657WAT     H1 2213   6.361   4.503   8.821
  657WAT     H2 2214   6.272   4.581   8.709
  658WAT      O 2215   3.208   2.234   7.788
  658WAT     H1 2216   3.113   2.250   7.814
  658WAT     H2 2217   3.213   2.163   7.717
  659WAT      O 2218   2.584   1.668   1.216
  659WAT     H1 2219   2.534   1.641   1.134
  659WAT     H2 2220   2.519   1.681   1.292
  660WAT      O 2221   0.617   5.419   3.602
  660WAT     H1 2222   0.659   5.508   3.624
  660WAT     H2 2223   0.611   5.409   3.503
  661WAT      O 2224   7.615   2.060   0.392
  661WAT     H1 2225   7.629   1.966   0.424
  661WAT     H2 2226   7.574   2.114   0.465
  662WAT      O 2227   8.787   7.631   9.845
  662WAT     H1 2228   8.851   7.562   9.811
  662WAT     H2 2229   8.836   7.694   9.906
  663WAT      O 2230   8.089   4.814   2.161
  663WAT     H1 2231   8.171   4.862   2.131
  663WAT     H2 2232   8.099   4.717   2.144
  664WAT      O 2233   3.375   5.264   5.086
  664WAT     H1 2234   3.440   5.267   5.161
  664WAT     H2 2235   3.424   5.264   4.999
  665WAT      O 2236   8.623   7.986   8.634
  665WAT     H1 2237   8.651   7.899   8.594
  665WAT     H2 2238   8.598   7.972   8.730
  666WAT      O 2239   3.033   8.836   1.610
  666WAT     H1 2240   2.990   8.902   1.549
  666WAT     H2 2241   3.127   8.865   1.630
  667WAT      O 2242   4.343   0.724   3.105
  667WAT     H1 2243   4.442   0.737   3.104
  667WAT     H2 2244   4.310   0.719   3.011
  668WAT      O 2245   3.850   0.601   1.566
  668WAT     H1 2246   3.776   0.574   1.504
  668WAT     H2 2247   3.925   0.640   1.512
  669WAT      O 2248   5.932   7.057   7.893
  669WAT     H1 2249   5.865   7.129   7.874
  669WAT     H2 2250   5.963   7.066   7.988
  670WAT      O 2251   4.377   2.508   0.100
  670WAT     H1 2252   4.451   2.570   0.074
  670WAT     H2 2253   4.416   2.428   0.145
  671WAT      O 2254   5.519   3.831   4.374
  671WAT     H1 2255   5.434   3.805   4.420
  671WAT     H2 2256   5.567   3.900   4.428
  672WAT      O 2257   1.991   0.906   6.383
  672WAT     H1 2258   1.916   0.848   6.415
  672WAT     H2 2259   2.078   0.862   6.405
  673WAT      O 2260   1.128   7.545   1.881
  673WAT     H1 2261   1.200   7.507   1.823
  673WAT     H2 2262   1.081   7.470   1.929
  674WAT      O 2263   3.538   2.391   9.590
  674WAT     H1 2264   3.547   2.409   9.688
  674WAT     H2 2265   3.467   2.322   9.575
  675WAT      O 2266   5.850   2.546   0.654
  675WAT     H1 2267   5.867   2.579   0.561
  675WAT     H2 2268   5.802   2.616   0.706
  676WAT      O 2269   1.412   3.233   5.677
  676WAT     H1 2270   1.428   3.289   5.758
  676WAT     H2 2271   1.494   3.230   5.621
  677WAT      O 2272   2.881   5.296   4.305
  677WAT     H1 2273   2.930   5.362   4.362
  677WAT     H2 2274   2.826   5.236   4.362
  678WAT      O 2275   2.144   0.212   8.108
  678WAT     H1 2276   2.046   0.216   8.126
  678WAT     H2 2277   2.185   0.302   8.127
  679WAT      O 2278   7.771   0.241   3.452
  679WAT     H1 2279   7.772   0.230   3.352
  679WAT     H2 2280   7.831   0.172   3.493
  680WAT      O 2281   4.373   2.713   4.869
  680WAT     H1 2282   4.420   2.754   4.947
  680WAT     H2 2283   4.332   2.626   4.896
  681WAT      O 2284   8.598   1.615   4.757
  681WAT     H1 2285   8.600   1.649   4.851
  681WAT     H2 2286   8.689   1.587   4.729
  682WAT      O 2287   3.992   3.933   4.406
  682WAT     H1 2288   3.945   3.857   4.450
  682WAT     H2 2289   4.089   3.913   4.399
  683WAT      O 2290   2.392   8.675   8.279
  683WAT     H1 2291   2.308   8.648   8.327
  683WAT     H2 2292   2.441   8.743   8.333
  684WAT      O 2293   1.981   5.994   6.833
  684WAT     H1 2294   2.079   5.975   6.831
  684WAT     H2 2295   1.930   5.909   6.842
  685WAT      O 2296   0.458   8.754   8.619
  685WAT     H1 2297   0.515   8.812   8.676
  685WAT     H2 2298   0.516   8.692   8.565
  686WAT      O 2299   4.496   9.108   3.148
  686WAT     H1 2300   4.473   9.151   3.061
  686WAT     H2 2301   4.413   9.099   3.204
  687WAT      O 2302   6.041   1.573   6.793
  687WAT     H1 2303   6.119   1.628   6.824
  687WAT     H2 2304   5.958   1.602   6.841
  688WAT      O 2305   1.745   2.945   5.697
  688WAT     H1 2306   1.821   2.915   5.638
  688WAT     H2 2307   1.665   2.887   5.680
  689WAT      O 2308   7.585   1.082   8.427
  689WAT     H1 2309   7.499   1.112   8.467
  689WAT     H2 2310   7.576   1.074   8.328
  690WAT      O 2311   9.137   2.976   8.313
  690WAT     H1 2312   9.133   3.070   8.281
  690WAT     H2 2313   9.069   2.962   8.386
  691WAT      O 2314   4.753   0.440   6.730
  691WAT     H1 2315   4.761   0.467   6.826
  691WAT     H2 2316   4.841   0.404   6.699
  692WAT      O 2317   0.004   4.887   7.011
  692WAT     H1 2318  -0.028   4.794   7.029
  692WAT     H2 2319   0.079   4.884   6.945
  693WAT      O 2320   4.511   5.488   8.299
  693WAT     H1 2321   4.532   5.539   8.383
  693WAT     H2 2322   4.539   5.392   8.311
  694WAT      O 2323   9.510   4.978   8.086
  694WAT     H1 2324   9.563   4.968   8.002
  694WAT     H2 2325   9.566   5.024   8.155
  695WAT      O 2326   0.811   7.811   6.655
  695WAT     H1 2327   0.851   7.741   6.714
  695WAT     H2 2328   0.875   7.887   6.646
  696WAT      O 2329   1.663   2.087   5.917
  696WAT     H1 2330   1.687   2.182   5.938
  696WAT     H2 2331   1.659   2.076   5.817
  697WAT      O 2332   7.668   5.631   0.149
  697WAT     H1 2333   7.650   5.697   0.076
  697WAT     H2 2334   7.761   5.595   0.138
  698WAT      O 2335   8.613   2.854   3.642
  698WAT     H1 2336   8.623   2.945   3.602
  698WAT     H2 2337   8.672   2.847   3.724
  699WAT      O 2338   5.337   0.870   9.626
  699WAT     H1 2339   5.314   0.910   9.537
  699WAT     H2 2340   5.269   0.801   9.650
  700WAT      O 2341   8.675   0.199   4.528
  700WAT     H1 2342   8.625   0.267   4.582
  700WAT     H2 2343   8.736   0.147   4.588
  701WAT      O 2344   5.030   3.372   8.132
  701WAT     H1 2345   5.096   3.322   8.076
  701WAT     H2 2346   5.017   3.464   8.094
  702WAT      O 2347   1.299   6.020   2.016
  702WAT     H1 2348   1.380   6.010   2.073
  702WAT     H2 2349   1.225   5.965   2.054
  703WAT      O 2350   3.981   4.426   8.163
  703WAT     H1 2351   4.022   4.376   8.088
  703WAT     H2 2352   4.050   4.444   8.234
  704WAT      O 2353   4.847   2.862   2.463
  704WAT     H1 2354   4.871   2.939   2.523
  704WAT     H2 2355   4.913   2.856   2.388
  705WAT      O 2356   6.144   6.124   6.148
  705WAT     H1 2357   6.164   6.107   6.051
  705WAT     H2 2358   6.054   6.087   6.170
  706WAT      O 2359   3.515   8.759   6.755
  706WAT     H1 2360   3.454   8.766   6.834
  706WAT     H2 2361   3.484   8.684   6.696
  707WAT      O 2362   1.156   1.013   3.776
  707WAT     H1 2363   1.223   0.945   3.745
  707WAT     H2 2364   1.139   0.999   3.874
  708WAT      O 2365   2.877   0.175   2.908
  708WAT     H1 2366   2.899   0.212   2.818
  708WAT     H2 2367   2.893   0.246   2.977
  709WAT      O 2368   1.617   3.080   6.817
  709WAT     H1 2369   1.623   3.050   6.912
  709WAT     H2 2370   1.550   3.024   6.769
  710WAT      O 2371   2.720   4.232   3.154
  710WAT     H1 2372   2.801   4.243   3.211
  710WAT     H2 2373   2.740   4.264   3.062
  711WAT      O 2374   6.169   8.359   7.517
  711WAT     H1 2375   6.115   8.306   7.451
  711WAT     H2 2376   6.138   8.454   7.516
  712WAT      O 2377   8.444   2.762   9.540
  712WAT     H1 2378   8.433   2.693   9.611
  712WAT     H2 2379   8.355   2.794   9.509
  713WAT      O 2380   9.856   0.884   3.754
  713WAT     H1 2381   9.805   0.817   3.808
  713WAT     H2 2382   9.828   0.878   3.658
  714WAT      O 2383   7.206   7.889   9.634
  714WAT     H1 2384   7.216   7.905   9.733
  714WAT     H2 2385   7.112   7.864   9.614
  715WAT      O 2386   4.627   0.630   4.365
  715WAT     H1 2387   4.607   0.706   4.427
  715WAT     H2 2388   4.716   0.647   4.321
  716WAT      O 2389   1.324   8.624   9.503
  716WAT     H1 2390   1.281   8.708   9.537
  716WAT     H2 2391   1.269   8.586   9.429
  717WAT      O 2392   3.809   2.699   6.942
  717WAT     H1 2393   3.871   2.777   6.930
  717WAT     H2 2394   3.863   2.615   6.951
  718WAT      O 2395   4.573   5.353   7.503
  718WAT     H1 2396   4.588   5.304   7.588
  718WAT     H2 2397   4.644   5.327   7.437
  719WAT      O 2398   6.951   9.558   1.031
  719WAT     H1 2399   6.872   9.508   1.065
  719WAT     H2 2400   7.001   9.598   1.108
  720WAT      O 2401   3.253   7.820   3.726
  720WAT     H1 2402   3.282   7.901   3.777
  720WAT     H2 2403   3.264   7.738   3.782
  721WAT      O 2404   0.543   5.944   5.806
  721WAT     H1 2405   0.614   5.959   5.875
  721WAT     H2 2406   0.571   5.869   5.746
  722WAT      O 2407   9.390   5.743   9.034
  722WAT     H1 2408   9.466   5.700   8.984
  722WAT     H2 2409   9.415   5.837   9.057
  723WAT      O 2410   9.540   7.693   8.119
  723WAT     H1 2411   9.547   7.789   8.145
  723WAT     H2 2412   9.608   7.639   8.169
  724WAT      O 2413   9.292   4.603   5.783
  724WAT     H1 2414   9.332   4.690   5.755
  724WAT     H2 2415   9.214   4.582   5.724
  725WAT      O 2416   2.070   2.226   3.134
  725WAT     H1 2417   2.125   2.300   3.172
  725WAT     H2 2418   2.048   2.160   3.206
  726WAT      O 2419   5.820   6.485   0.029
  726WAT     H1 2420   5.784   6.555  -0.033
  726WAT     H2 2421   5.760   6.475   0.108
  727WAT      O 2422   3.537   6.090   0.031
  727WAT     H1 2423   3.536   5.993   0.055
  727WAT     H2 2424   3.572   6.143   0.108
  728WAT      O 2425   2.736   7.749   6.154
  728WAT     H1 2426   2.770   7.781   6.065
  728WAT     H2 2427   2.808   7.758   6.222
  729WAT      O 2428   0.494   1.986   3.014
  729WAT     H1 2429   0.473   2.080   2.988
  729WAT     H2 2430   0.445   1.923   2.954
  730WAT      O 2431   3.974   8.882   2.560
  730WAT     H1 2432   3.891   8.918   2.517
  730WAT     H2 2433   3.979   8.783   2.546
  731WAT      O 2434   0.656   3.628   0.119
  731WAT     H1 2435   0.620   3.712   0.160
  731WAT     H2 2436   0.630   3.550   0.176
  732WAT      O 2437   5.167   3.790   4.165
  732WAT     H1 2438   5.266   3.792   4.148
  732WAT     H2 2439   5.128   3.880   4.144
  733WAT      O 2440   6.081   4.306   8.888
  733WAT     H1 2441   6.132   4.303   8.802
  733WAT     H2 2442   6.130   4.252   8.957
  734WAT      O 2443   1.407   2.505   8.427
  734WAT     H1 2444   1.332   2.457   8.381
  734WAT     H2 2445   1.396   2.603   8.414
  735WAT      O 2446   2.895   1.502   9.343
  735WAT     H1 2447   2.879   1.457   9.255
  735WAT     H2 2448   2.812   1.551   9.371
  736WAT      O 2449   0.489   3.246   7.090
  736WAT     H1 2450   0.483   3.151   7.060
  736WAT     H2 2451   0.398   3.287   7.092
  737WAT      O 2452   2.358   0.485   7.166
  737WAT     H1 2453   2.353   0.412   7.233
  737WAT     H2 2454   2.265   0.510   7.137
  738WAT      O 2455   0.127   6.696   2.918
  738WAT     H1 2456   0.097   6.617   2.865
  738WAT     H2 2457   0.188   6.665   2.992
  739WAT      O 2458   8.034   2.040   8.504
  739WAT     H1 2459   8.070   2.069   8.592
  739WAT     H2 2460   7.965   1.969   8.517
  740WAT      O 2461   3.184   9.477   1.283
  740WAT     H1 2462   3.141   9.562   1.252
  740WAT     H2 2463   3.279   9.474   1.251
  741WAT      O 2464   0.569   2.119   1.190
  741WAT     H1 2465   0.538   2.206   1.152
  741WAT     H2 2466   0.641   2.136   1.257
  742WAT      O 2467   2.500   0.321   6.677
  742WAT     H1 2468   2.579   0.263   6.657
  742WAT     H2 2469   2.449   0.282   6.755
  743WAT      O 2470   3.666   7.869   7.939
  743WAT     H1 2471   3.729   7.855   8.015
  743WAT     H2 2472   3.578   7.826   7.961
  744WAT      O 2473   0.795   1.340   8.783
  744WAT     H1 2474   0.839   1.430   8.777
  744WAT     H2 2475   0.860   1.274   8.822
  745WAT      O 2476   5.419   4.911   5.959
  745WAT     H1 2477   5.337   4.916   5.901
  745WAT     H2 2478   5.394   4.874   6.048
  746WAT      O 2479   6.764   3.205   0.791
  746WAT     H1 2480   6.689   3.269   0.778
  746WAT     H2 2481   6.737   3.115   0.758
  747WAT      O 2482   9.291   5.203   3.642
  747WAT     H1 2483   9.264   5.119   3.596
  747WAT     H2 2484   9.250   5.282   3.595
  748WAT      O 2485   9.691   6.337   2.549
  748WAT     H1 2486   9.593   6.346   2.531
  748WAT     H2 2487   9.705   6.283   2.632
  749WAT      O 2488   0.169   8.214   5.061
  749WAT     H1 2489   0.253   8.244   5.016
  749WAT     H2 2490   0.114   8.294   5.084
  750WAT      O 2491   0.141   2.435   0.320
  750WAT     H1 2492   0.143   2.473   0.412
  750WAT     H2 2493   0.153   2.509   0.254
  751WAT      O 2494   0.214   5.676   3.451
  751WAT     H1 2495   0.279   5.689   3.525
  751WAT     H2 2496   0.243   5.600   3.393
  752WAT      O 2497   5.749   6.187   9.502
  752WAT     H1 2498   5.723   6.272   9.457
  752WAT     H2 2499   5.774   6.205   9.597
  753WAT      O 2500   5.659   8.994   6.801
  753WAT     H1 2501   5.716   9.059   6.751
  753WAT     H2 2502   5.714   8.914   6.825
  754WAT      O 2503   6.053   9.490   1.356
  754WAT     H1 2504   6.098   9.430   1.422
  754WAT     H2 2505   5.977   9.537   1.400
  755WAT      O 2506   8.612   8.195   1.431
  755WAT     H1 2507   8.699   8.151   1.408
  755WAT     H2 2508   8.550   8.188   1.353
  756WAT      O 2509   6.612   1.464   5.873
  756WAT     H1 2510   6.535   1.406   5.899
  756WAT     H2 2511   6.585   1.523   5.797
  757WAT      O 2512   3.772   1.391   0.392
  757WAT     H1 2513   3.833   1.327   0.438
  757WAT     H2 2514   3.743   1.461   0.457
  758WAT      O 2515   4.980   2.721   3.769
  758WAT     H1 2516   4.949   2.717   3.674
  758WAT     H2 2517   5.062   2.665   3.779
  759WAT      O 2518   8.952   6.263   4.082
  759WAT     H1 2519   9.021   6.296   4.147
  759WAT     H2 2520   8.875   6.225   4.132
  760WAT      O 2521   0.755   1.890   9.742
  760WAT     H1 2522   0.685   1.818   9.740
  760WAT     H2 2523   0.805   1.891   9.655
  761WAT      O 2524   2.945   8.561   4.957
  761WAT     H1 2525   2.851   8.546   4.929
  761WAT     H2 2526   2.999   8.590   4.878
  762WAT      O 2527   2.580   1.355   2.017
  762WAT     H1 2528   2.614   1.320   1.929
  762WAT     H2 2529   2.573   1.454   2.012
  763WAT      O 2530   0.226   5.269   8.905
  763WAT     H1 2531   0.180   5.185   8.932
  763WAT     H2 2532   0.159   5.343   8.893
  764WAT      O 2533   8.610   0.776   4.366
  764WAT     H1 2534   8.537   0.791   4.433
  764WAT     H2 2535   8.588   0.825   4.282
  765WAT      O 2536   4.600   9.040   9.307
  765WAT     H1 2537   4.580   9.074   9.399
  765WAT     H2 2538   4.605   8.940   9.308
  766WAT      O 2539   6.334   3.068   5.258
  766WAT     H1 2540   6.340   3.037   5.163
  766WAT     H2 2541   6.423   3.057   5.302
  767WAT      O 2542   9.874   4.285   3.470
  767WAT     H1 2543   9.892   4.192   3.502
  767WAT     H2 2544   9.944   4.312   3.404
  768WAT      O 2545   3.930   7.382   3.888
  768WAT     H1 2546   3.873   7.383   3.970
  768WAT     H2 2547   3.872   7.369   3.807
  769WAT      O 2548   4.742   4.407   3.245
  769WAT     H1 2549   4.652   4.385   3.207
  769WAT     H2 2550   4.737   4.494   3.294
  770WAT      O 2551   3.620   5.181   1.628
  770WAT     H1 2552   3.622   5.281   1.622
  770WAT     H2 2553   3.567   5.154   1.708
  771WAT      O 2554   8.250   6.337   3.413
  771WAT     H1 2555   8.304   6.272   3.466
  771WAT     H2 2556   8.224   6.414   3.471
  772WAT      O 2557   3.477   4.839   7.583
  772WAT     H1 2558   3.487   4.792   7.495
  772WAT     H2 2559   3.556   4.819   7.641
  773WAT      O 2560   4.454   5.372   8.823
  773WAT     H1 2561   4.433   5.358   8.727
  773WAT     H2 2562   4.549   5.401   8.832
  774WAT      O 2563   9.227   3.893   4.219
  774WAT     H1 2564   9.276   3.974   4.247
  774WAT     H2 2565   9.135   3.894   4.258
  775WAT      O 2566   1.896   4.225   3.743
  775WAT     H1 2567   1.896   4.172   3.828
  775WAT     H2 2568   1.812   4.207   3.693
  776WAT      O 2569   4.581   1.738   8.857
  776WAT     H1 2570   4.624   1.669   8.915
  776WAT     H2 2571   4.566   1.822   8.910
  777WAT      O 2572   1.963   8.136   5.421
  777WAT     H1 2573   1.886   8.183   5.466
  777WAT     H2 2574   2.010   8.200   5.361
  778WAT      O 2575   8.345   4.677   1.003
  778WAT     H1 2576   8.313   4.585   0.982
  778WAT     H2 2577   8.279   4.723   1.061
  779WAT      O 2578   9.833   3.816   3.594
  779WAT     H1 2579   9.897   3.865   3.535
  779WAT     H2 2580   9.852   3.718   3.591
  780WAT      O 2581   9.221   7.772   0.174
  780WAT     H1 2582   9.308   7.811   0.141
  780WAT     H2 2583   9.224   7.673   0.165
  781WAT      O 2584   1.116   1.486   9.294
  781WAT     H1 2585   1.070   1.455   9.376
  781WAT     H2 2586   1.087   1.431   9.216
  782WAT      O 2587   9.426   9.392   1.394
  782WAT     H1 2588   9.359   9.336   1.345
  782WAT     H2 2589   9.473   9.451   1.329
  783WAT      O 2590   9.774   7.810   2.097
  783WAT     H1 2591   9.695   7.762   2.135
  783WAT     H2 2592   9.858   7.773   2.136
  784WAT      O 2593   4.728   9.557   1.784
  784WAT     H1 2594   4.821   9.590   1.798
  784WAT     H2 2595   4.665   9.611   1.839
  785WAT      O 2596   3.949   6.044   6.016
  785WAT     H1 2597   3.946   5.961   5.961
  785WAT     H2 2598   3.930   6.124   5.959
  786WAT      O 2599   4.959   3.127   0.451
  786WAT     H1 2600   5.036   3.086   0.401
  786WAT     H2 2601   4.992   3.160   0.540
  787WAT      O 2602   3.368   8.848   2.877
  787WAT     H1 2603   3.316   8.801   2.949
  787WAT     H2 2604   3.357   8.799   2.791
  788WAT      O 2605   1.900   0.676   4.210
  788WAT     H1 2606   1.875   0.745   4.142
  788WAT     H2 2607   1.989   0.638   4.188
  789WAT      O 2608   9.796   8.848   2.539
  789WAT     H1 2609   9.794   8.924   2.474
  789WAT     H2 2610   9.718   8.856   2.601
  790WAT      O 2611   1.227   0.064   1.380
  790WAT     H1 2612   1.260   0.067   1.285
  790WAT     H2 2613   1.136   0.106   1.384
  791WAT      O 2614   7.411   3.786   3.906
  791WAT     H1 2615   7.488   3.723   3.898
  791WAT     H2 2616   7.345   3.767   3.833
  792WAT      O 2617   9.393   9.657   0.630
  792WAT     H1 2618   9.441   9.659   0.717
  792WAT     H2 2619   9.375   9.562   0.604
  793WAT      O 2620   6.128   3.760   7.764
  793WAT     H1 2621   6.176   3.834   7.811
  793WAT     H2 2622   6.144   3.674   7.812
  794WAT      O 2623   3.223   7.071   4.663
  794WAT     H1 2624   3.295   7.140   4.649
  794WAT     H2 2625   3.148   7.112   4.716
  795WAT      O 2626   5.342   7.102   5.019
  795WAT     H1 2627   5.308   7.191   4.987
  795WAT     H2 2628   5.309   7.085   5.111
  796WAT      O 2629   2.608   6.456   2.326
  796WAT     H1 2630   2.576   6.381   2.383
  796WAT     H2 2631   2.650   6.420   2.243
  797WAT      O 2632   3.506   0.656   4.633
  797WAT     H1 2633   3.558   0.571   4.622
  797WAT     H2 2634   3.410   0.634   4.652
  798WAT      O 2635   5.721   2.536   1.269
  798WAT     H1 2636   5.737   2.558   1.172
  798WAT     H2 2637   5.733   2.438   1.283
  799WAT      O 2638   7.146   5.345   1.719
  799WAT     H1 2639   7.210   5.386   1.655
  799WAT     H2 2640   7.179   5.255   1.746
  800WAT      O 2641   3.053   1.324   7.187
  800WAT     H1 2642   3.093   1.248   7.135
  800WAT     H2 2643   3.098   1.409   7.161
  801WAT      O 2644   7.493   5.201   8.664
  801WAT     H1 2645   7.533   5.141   8.734
  801WAT     H2 2646   7.490   5.153   8.577
  802WAT      O 2647   5.736   0.691   9.781
  802WAT     H1 2648   5.680   0.774   9.772
  802WAT     H2 2649   5.706   0.624   9.713
  803WAT      O 2650   4.228   8.870   2.394
  803WAT     H1 2651   4.295   8.944   2.396
  803WAT     H2 2652   4.157   8.888   2.462
  804WAT      O 2653   9.855   2.329   1.522
  804WAT     H1 2654   9.816   2.337   1.613
  804WAT     H2 2655   9.931   2.264   1.523
  805WAT      O 2656   9.241   9.544   9.181
  805WAT     H1 2657   9.178   9.468   9.163
  805WAT     H2 2658   9.282   9.531   9.271
  806WAT      O 2659   7.647   7.470   3.742
  806WAT     H1 2660   7.568   7.470   3.680
  806WAT     H2 2661   7.621   7.432   3.830
  807WAT      O 2662   7.928   3.294   2.048
  807WAT     H1 2663   7.837   3.302   2.008
  807WAT     H2 2664   7.920   3.267   2.144
  808WAT      O 2665   1.161   0.609   1.160
  808WAT     H1 2666   1.162   0.697   1.113
  808WAT     H2 2667   1.251   0.565   1.150
  809WAT      O 2668   7.430   5.831   0.405
  809WAT     H1 2669   7.434   5.790   0.314
  809WAT     H2 2670   7.472   5.922   0.402
  810WAT      O 2671   2.228   4.771   4.321
  810WAT     H1 2672   2.134   4.781   4.356
  810WAT     H2 2673   2.287   4.737   4.395
  811WAT      O 2674   2.722   0.526   3.468
  811WAT     H1 2675   2.746   0.613   3.425
  811WAT     H2 2676   2.622   0.516   3.469
  812WAT      O 2677   9.024   7.819   3.866
  812WAT     H1 2678   8.951   7.751   3.866
  812WAT     H2 2679   9.020   7.873   3.781
  813WAT      O 2680   6.464   5.165   4.990
  813WAT     H1 2681   6.527   5.159   5.067
  813WAT     H2 2682   6.370   5.152   5.023
  814WAT      O 2683   3.181   0.130   3.160
  814WAT     H1 2684   3.247   0.074   3.210
  814WAT     H2 2685   3.221   0.221   3.144
  815WAT      O 2686   1.609   7.338   9.816
  815WAT     H1 2687   1.645   7.326   9.724
  815WAT     H2 2688   1.685   7.347   9.881
  816WAT      O 2689   1.441   5.341   7.101
  816WAT     H1 2690   1.417   5.244   7.097
  816WAT     H2 2691   1.540   5.350   7.111
  817WAT      O 2692   4.296   3.110   9.458
  817WAT     H1 2693   4.239   3.152   9.528
  817WAT     H2 2694   4.303   3.171   9.379
  818WAT      O 2695   9.462   2.997   5.997
  818WAT     H1 2696   9.437   3.084   6.039
  818WAT     H2 2697   9.512   3.015   5.912
  819WAT      O 2698   6.180   0.270   8.901
  819WAT     H1 2699   6.086   0.304   8.909
  819WAT     H2 2700   6.207   0.267   8.805
  820WAT      O 2701   0.208   7.439   8.454
  820WAT     H1 2702   0.157   7.411   8.373
  820WAT     H2 2703   0.163   7.517   8.497
  821WAT      O 2704   5.325   5.010   4.213
  821WAT     H1 2705   5.267   5.092   4.213
  821WAT     H2 2706   5.270   4.931   4.239
  822WAT      O 2707   7.888   3.908   1.188
  822WAT     H1 2708   7.879   4.005   1.210
  822WAT     H2 2709   7.981   3.877   1.210
  823WAT      O 2710   5.453   0.868   5.180
  823WAT     H1 2711   5.431   0.800   5.250
  823WAT     H2 2712   5.552   0.875   5.169
  824WAT      O 2713   4.264   0.245   8.570
  824WAT     H1 2714   4.276   0.160   8.622
  824WAT     H2 2715   4.176   0.241   8.522
  825WAT      O 2716   0.941   4.203   9.306
  825WAT     H1 2717   0.928   4.149   9.222
  825WAT     H2 2718   1.039   4.222   9.318
  826WAT      O 2719   0.509   0.520   8.699
  826WAT     H1 2720   0.467   0.521   8.790
  826WAT     H2 2721   0.511   0.613   8.662
  827WAT      O 2722   1.322   9.474   2.700
  827WAT     H1 2723   1.337   9.418   2.618
  827WAT     H2 2724   1.364   9.431   2.779
  828WAT      O 2725   9.161   0.806   2.496
  828WAT     H1 2726   9.175   0.901   2.467
  828WAT     H2 2727   9.246   0.754   2.482
  829WAT      O 2728   1.728   5.031   7.642
  829WAT     H1 2729   1.756   5.108   7.700
  829WAT     H2 2730   1.805   5.004   7.584
  830WAT      O 2731   1.741   4.583   2.045
  830WAT     H1 2732   1.723   4.578   1.946
  830WAT     H2 2733   1.827   4.537   2.066
  831WAT      O 2734   0.146   6.508   4.044
  831WAT     H1 2735   0.196   6.503   3.958
  831WAT     H2 2736   0.089   6.426   4.055
  832WAT      O 2737   8.792   4.384   4.947
  832WAT     H1 2738   8.813   4.307   5.006
  832WAT     H2 2739   8.718   4.358   4.884
  833WAT      O 2740   5.938   3.037   2.379
  833WAT     H1 2741   5.982   3.120   2.344
  833WAT     H2 2742   5.956   3.028   2.476
  834WAT      O 2743   0.169   1.195   7.566
  834WAT     H1 2744   0.130   1.106   7.589
  834WAT     H2 2745   0.101   1.251   7.519
  835WAT      O 2746   5.864   2.783   2.361
  835WAT     H1 2747   5.863   2.876   2.324
  835WAT     H2 2748   5.824   2.783   2.453
  836WAT      O 2749   2.379   0.489   0.983
  836WAT     H1 2750   2.449   0.453   0.921
  836WAT     H2 2751   2.358   0.583   0.958
  837WAT      O 2752   1.419   1.224   5.238
  837WAT     H1 2753   1.504   1.218   5.187
  837WAT     H2 2754   1.381   1.132   5.249
  838WAT      O 2755   2.733   0.741   2.265
  838WAT     H1 2756   2.668   0.762   2.338
  838WAT     H2 2757   2.779   0.825   2.236
  839WAT      O 2758   6.944   2.193   6.700
  839WAT     H1 2759   6.853   2.176   6.737
  839WAT     H2 2760   6.976   2.112   6.651
  840WAT      O 2761   6.242   8.252   8.391
  840WAT     H1 2762   6.258   8.196   8.310
  840WAT     H2 2763   6.219   8.345   8.364
  841WAT      O 2764   2.735   5.067   6.411
  841WAT     H1 2765   2.755   5.164   6.425
  841WAT     H2 2766   2.780   5.013   6.483
  842WAT      O 2767   4.791   5.226   2.404
  842WAT     H1 2768   4.887   5.197   2.401
  842WAT     H2 2769   4.732   5.146   2.393
  843WAT      O 2770   4.263   5.379   3.199
  843WAT     H1 2771   4.331   5.436   3.245
  843WAT     H2 2772   4.307   5.297   3.163
  844WAT      O 2773   6.836   8.025   1.187
  844WAT     H1 2774   6.871   7.932   1.197
  844WAT     H2 2775   6.912   8.088   1.172
  845WAT      O 2776   0.979   3.988   7.102
  845WAT     H1 2777   0.959   4.008   7.006
  845WAT     H2 2778   0.964   3.891   7.120
  846WAT      O 2779   5.000   4.173   0.617
  846WAT     H1 2780   5.052   4.094   0.649
  846WAT     H2 2781   5.031   4.255   0.665
  847WAT      O 2782   2.743   1.631   7.761
  847WAT     H1 2783   2.722   1.726   7.781
  847WAT     H2 2784   2.666   1.573   7.787
  848WAT      O 2785   0.834   1.269   7.245
  848WAT     H1 2786   0.933   1.282   7.245
  848WAT     H2 2787   0.789   1.358   7.253
  849WAT      O 2788   8.844   3.403   1.302
  849WAT     H1 2789   8.867   3.311   1.335
  849WAT     H2 2790   8.920   3.439   1.249
  850WAT      O 2791   1.876   6.369   0.644
  850WAT     H1 2792   1.910   6.380   0.551
  850WAT     H2 2793   1.949   6.392   0.709
  851WAT      O 2794   2.837   0.508   6.301
  851WAT     H1 2795   2.911   0.442   6.288
  851WAT     H2 2796   2.872   0.600   6.284
  852WAT      O 2797   7.673   0.818   4.699
  852WAT     H1 2798   7.583   0.775   4.691
  852WAT     H2 2799   7.698   0.859   4.611
  853WAT      O 2800   7.128   5.476   4.434
  853WAT     H1 2801   7.166   5.547   4.493
  853WAT     H2 2802   7.031   5.464   4.453
  854WAT      O 2803   7.985   2.774   0.856
  854WAT     H1 2804   7.997   2.874   0.854
  854WAT     H2 2805   7.907   2.749   0.799
  855WAT      O 2806   1.734   6.061   2.521
  855WAT     H1 2807   1.707   6.074   2.617
  855WAT     H2 2808   1.766   6.148   2.484
  856WAT      O 2809   2.788   8.209   1.651
  856WAT     H1 2810   2.713   8.169   1.704
  856WAT     H2 2811   2.774   8.308   1.644
  857WAT      O 2812   5.723   8.311   3.775
  857WAT     H1 2813   5.808   8.266   3.746
  857WAT     H2 2814   5.645   8.254   3.752
  858WAT      O 2815   3.604   4.195   4.384
  858WAT     H1 2816   3.644   4.286   4.378
  858WAT     H2 2817   3.669   4.127   4.349
  859WAT      O 2818   3.490   5.521   0.580
  859WAT     H1 2819   3.395   5.541   0.605
  859WAT     H2 2820   3.549   5.533   0.660
  860WAT      O 2821   9.459   8.207   9.503
  860WAT     H1 2822   9.373   8.249   9.532
  860WAT     H2 2823   9.441   8.118   9.461
  861WAT      O 2824   3.326   4.155   6.896
  861WAT     H1 2825   3.382   4.220   6.845
  861WAT     H2 2826   3.272   4.205   6.965
  862WAT      O 2827   2.507   9.321   4.156
  862WAT     H1 2828   2.511   9.286   4.250
  862WAT     H2 2829   2.486   9.247   4.093
  863WAT      O 2830   6.751   7.863   3.492
  863WAT     H1 2831   6.744   7.848   3.591
  863WAT     H2 2832   6.742   7.776   3.444
  864WAT      O 2833   2.373   0.696   3.929
  864WAT     H1 2834   2.307   0.667   3.999
  864WAT     H2 2835   2.465   0.671   3.958
  865WAT      O 2836   9.877   8.088   2.522
  865WAT     H1 2837   9.951   8.115   2.460
  865WAT     H2 2838   9.814   8.028   2.473
  866WAT      O 2839   0.930   1.010   5.660
  866WAT     H1 2840   0.911   1.088   5.720
  866WAT     H2 2841   0.845   0.959   5.644
  867WAT      O 2842   5.290   5.851   3.421
  867WAT     H1 2843   5.365   5.786   3.433
  867WAT     H2 2844   5.327   5.940   3.395
  868WAT      O 2845   0.375   2.183   2.495
  868WAT     H1 2846   0.389   2.273   2.538
  868WAT     H2 2847   0.433   2.116   2.540
  869WAT      O 2848   9.595   1.034   6.725
  869WAT     H1 2849   9.678   1.019   6.778
  869WAT     H2 2850   9.607   1.115   6.667
  870WAT      O 2851   5.178   4.446   1.613
  870WAT     H1 2852   5.123   4.513   1.664
  870WAT     H2 2853   5.272   4.446   1.648
  871WAT      O 2854   9.238   4.199   8.329
  871WAT     H1 2855   9.179   4.141   8.273
  871WAT     H2 2856   9.217   4.185   8.425
  872WAT      O 2857   3.694   0.980   0.614
  872WAT     H1 2858   3.650   1.062   0.651
  872WAT     H2 2859   3.792   0.982   0.637
  873WAT      O 2860   8.827   7.402   5.569
  873WAT     H1 2861   8.866   7.490   5.542
  873WAT     H2 2862   8.852   7.382   5.664
  874WAT      O 2863   3.055   3.237   0.096
  874WAT     H1 2864   3.134   3.298   0.093
  874WAT     H2 2865   2.978   3.278   0.047
  875WAT      O 2866   2.864   5.949   2.874
  875WAT     H1 2867   2.858   5.850   2.886
  875WAT     H2 2868   2.815   5.995   2.949
  876WAT      O 2869   1.990   3.274   3.232
  876WAT     H1 2870   2.038   3.213   3.295
  876WAT     H2 2871   2.044   3.358   3.219
  877WAT      O 2872   6.470   3.049   3.598
  877WAT     H1 2873   6.517   3.047   3.687
  877WAT     H2 2874   6.426   2.961   3.582
  878WAT      O 2875   4.844   7.695   8.391
  878WAT     H1 2876   4.803   7.615   8.347
  878WAT     H2 2877   4.941   7.677   8.409
  879WAT      O 2878   2.608   5.718   8.209
  879WAT     H1 2879   2.662   5.732   8.292
  879WAT     H2 2880   2.572   5.806   8.178
  880WAT      O 2881   0.809   2.969   1.826
  880WAT     H1 2882   0.844   2.876   1.827
  880WAT     H2 2883   0.717   2.970   1.866
  881WAT      O 2884   7.965   8.414   0.309
  881WAT     H1 2885   7.950   8.450   0.217
  881WAT     H2 2886   7.881   8.424   0.363
  882WAT      O 2887   4.417   0.906   7.266
  882WAT     H1 2888   4.430   0.917   7.365
  882WAT     H2 2889   4.503   0.925   7.219
  883WAT      O 2890   0.882   1.942   9.499
  883WAT     H1 2891   0.961   1.881   9.489
  883WAT     H2 2892   0.915   2.035   9.517
  884WAT      O 2893   0.688   0.188   2.978
  884WAT     H1 2894   0.766   0.152   2.926
  884WAT     H2 2895   0.709   0.280   3.011
  885WAT      O 2896   4.657   8.494   4.567
  885WAT     H1 2897   4.721   8.423   4.536
  885WAT     H2 2898   4.709   8.571   4.606
  886WAT      O 2899   6.593   1.182   8.744
  886WAT     H1 2900   6.581   1.083   8.735
  886WAT     H2 2901   6.515   1.221   8.793
  887WAT      O 2902   1.938   6.836   7.780
  887WAT     H1 2903   1.920   6.933   7.794
  887WAT     H2 2904   2.006   6.805   7.847
  888WAT      O 2905   6.750   2.957   3.176
  888WAT     H1 2906   6.834   2.918   3.213
  888WAT     H2 2907   6.731   3.044   3.221
  889WAT      O 2908   4.538   6.868   5.160
  889WAT     H1 2909   4.483   6.865   5.077
  889WAT     H2 2910   4.587   6.781   5.171
  890WAT      O 2911   7.128   6.334   9.730
  890WAT     H1 2912   7.122   6.420   9.780
  890WAT     H2 2913   7.108   6.258   9.792
  891WAT      O 2914   8.547   4.648   3.442
  891WAT     H1 2915   8.497   4.567   3.475
  891WAT     H2 2916   8.549   4.647   3.342
  892WAT      O 2917   2.393   9.427   9.468
  892WAT     H1 2918   2.387   9.518   9.428
  892WAT     H2 2919   2.356   9.429   9.561
  893WAT      O 2920   2.153   7.700   8.955
  893WAT     H1 2921   2.081   7.640   8.919
  893WAT     H2 2922   2.141   7.792   8.920
  894WAT      O 2923   5.506   1.636   6.145
  894WAT     H1 2924   5.535   1.712   6.203
  894WAT     H2 2925   5.532   1.549   6.187
  895WAT      O 2926   9.616   6.475   0.634
  895WAT     H1 2927   9.614   6.400   0.701
  895WAT     H2 2928   9.711   6.503   0.620
  896WAT      O 2929   3.310   6.433   9.171
  896WAT     H1 2930   3.280   6.475   9.256
  896WAT     H2 2931   3.235   6.379   9.132
  897WAT      O 2932   0.938   7.253   5.505
  897WAT     H1 2933   0.904   7.166   5.540
  897WAT     H2 2934   1.037   7.259   5.521
  898WAT      O 2935   7.082   7.292   4.800
  898WAT     H1 2936   7.159   7.229   4.804
  898WAT     H2 2937   6.999   7.245   4.831
  899WAT      O 2938   3.400   2.460   0.371
  899WAT     H1 2939   3.418   2.546   0.323
  899WAT     H2 2940   3.486   2.412   0.386
  900WAT      O 2941   1.863   4.239   9.253
  900WAT     H1 2942   1.920   4.248   9.334
  900WAT     H2 2943   1.884   4.153   9.207
  901WAT      O 2944   3.443   2.747   6.392
  901WAT     H1 2945   3.477   2.835   6.359
  901WAT     H2 2946   3.508   2.708   6.456
  902WAT      O 2947   6.320   6.007   3.747
  902WAT     H1 2948   6.270   6.050   3.671
  902WAT     H2 2949   6.270   6.020   3.832
  903WAT      O 2950   4.152   6.139   2.438
  903WAT     H1 2951   4.169   6.057   2.382
  903WAT     H2 2952   4.232   6.157   2.495
  904WAT      O 2953   5.584   6.949   0.687
  904WAT     H1 2954   5.530   6.916   0.764
  904WAT     H2 2955   5.524   6.979   0.613
  905WAT      O 2956   6.407   0.597   0.189
  905WAT     H1 2957   6.418   0.583   0.287
  905WAT     H2 2958   6.496   0.593   0.144
  906WAT      O 2959   8.150   2.612   7.730
  906WAT     H1 2960   8.151   2.712   7.721
  906WAT     H2 2961   8.224   2.584   7.791
  907WAT      O 2962   0.809   4.241   8.619
  907WAT     H1 2963   0.753   4.253   8.536
  907WAT     H2 2964   0.892   4.296   8.611
  908WAT      O 2965   9.111   2.452   2.684
  908WAT     H1 2966   9.120   2.363   2.639
  908WAT     H2 2967   9.193   2.506   2.668
  909WAT      O 2968   2.047   7.748   4.857
  909WAT     H1 2969   2.132   7.696   4.865
  909WAT     H2 2970   2.027   7.793   4.944
  910WAT      O 2971   3.803   8.181   3.795
  910WAT     H1 2972   3.713   8.162   3.756
  910WAT     H2 2973   3.800   8.268   3.845
  911WAT      O 2974   3.977   1.318   2.414
  911WAT     H1 2975   3.903   1.251   2.421
  911WAT     H2 2976   4.015   1.336   2.505
  912WAT      O 2977   1.446   0.474   4.996
  912WAT     H1 2978   1.484   0.496   5.085
  912WAT     H2 2979   1.368   0.534   4.977
  913WAT      O 2980   0.062   2.073   7.012
  913WAT     H1 2981  -0.002   2.150   7.020
  913WAT     H2 2982   0.087   2.040   7.103
  914WAT      O 2983   9.771   0.896   3.487
  914WAT     H1 2984   9.677   0.927   3.502
  914WAT     H2 2985   9.808   0.939   3.405
  915WAT      O 2986   8.858   9.705   3.204
  915WAT     H1 2987   8.781   9.713   3.141
  915WAT     H2 2988   8.827   9.726   3.297
  916WAT      O 2989   5.175   5.622   2.133
  916WAT     H1 2990   5.130   5.566   2.063
  916WAT     H2 2991   5.131   5.712   2.137
  917WAT      O 2992   4.752   3.881   0.430
  917WAT     H1 2993   4.808   3.892   0.513
  917WAT     H2 2994   4.665   3.839   0.454
  918WAT      O 2995   8.229   5.330   0.506
  918WAT     H1 2996   8.268   5.342   0.415
  918WAT     H2 2997   8.289   5.272   0.561
  919WAT      O 2998   4.236   6.234   8.045
  919WAT     H1 2999   4.326   6.198   8.071
  919WAT     H2 3000   4.207   6.303   8.111
  920WAT      O 3001   6.732   3.456   3.124
  920WAT     H1 3002   6.710   3.533   3.184
  920WAT     H2 3003   6.805   3.482   3.062
  921WAT      O 3004   8.365   7.528   2.141
  921WAT     H1 3005   8.427   7.606   2.139
  921WAT     H2 3006   8.383   7.473   2.223
  922WAT      O 3007   1.594   4.235   6.937
  922WAT     H1 3008   1.544   4.180   7.003
  922WAT     H2 3009   1.615   4.179   6.856
  923WAT      O 3010   6.320   9.122   2.068
  923WAT     H1 3011   6.238   9.077   2.031
  923WAT     H2 3012   6.333   9.210   2.022
  924WAT      O 3013   2.871   5.352   1.240
  924WAT     H1 3014   2.795   5.381   1.181
  924WAT     H2 3015   2.872   5.253   1.247
  925WAT      O 3016   2.213   6.546   5.007
  925WAT     H1 3017   2.176   6.455   4.991
  925WAT     H2 3018   2.223   6.594   4.920
  926WAT      O 3019   7.790   1.928   1.748
  926WAT     H1 3020   7.877   1.896   1.710
  926WAT     H2 3021   7.717   1.914   1.682
  927WAT      O 3022   6.740   0.110   9.512
  927WAT     H1 3023   6.785   0.132   9.425
  927WAT     H2 3024   6.796   0.142   9.588
  928WAT      O 3025   5.772   7.728   8.032
  928WAT     H1 3026   5.749   7.768   7.943
  928WAT     H2 3027   5.792   7.631   8.021
  929WAT      O 3028   3.700   7.414   9.018
  929WAT     H1 3029   3.779   7.465   9.052
  929WAT     H2 3030   3.623   7.476   9.005
  930WAT      O 3031   2.352   0.929   1.223
  930WAT     H1 3032   2.321   1.023   1.237
  930WAT     H2 3033   2.346   0.906   1.126
  931WAT      O 3034   1.486   6.337   7.396
  931WAT     H1 3035   1.579   6.354   7.428
  931WAT     H2 3036   1.483   6.251   7.344
  932WAT      O 3037   5.727   7.023   2.449
  932WAT     H1 3038   5.751   7.119   2.432
  932WAT     H2 3039   5.649   7.019   2.512
  933WAT      O 3040   4.160   9.298   5.517
  933WAT     H1 3041   4.146   9.204   5.487
  933WAT     H2 3042   4.121   9.310   5.609
  934WAT      O 3043   0.193   8.789   4.919
  934WAT     H1 3044   0.140   8.865   4.880
  934WAT     H2 3045   0.180   8.787   5.018
  935WAT      O 3046   4.464   5.664   8.090
  935WAT     H1 3047   4.434   5.602   8.017
  935WAT     H2 3048   4.486   5.612   8.172
  936WAT      O 3049   8.493   4.544   5.546
  936WAT     H1 3050   8.514   4.560   5.450
  936WAT     H2 3051   8.520   4.452   5.572
  937WAT      O 3052   0.163   4.293   1.422
  937WAT     H1 3053   0.170   4.356   1.500
  937WAT     H2 3054   0.165   4.345   1.337
  938WAT      O 3055   3.405   7.525   4.740
  938WAT     H1 3056   3.498   7.542   4.773
  938WAT     H2 3057   3.378   7.598   4.677
  939WAT      O 3058   2.602   4.465   9.577
  939WAT     H1 3059   2.563   4.554   9.553
  939WAT     H2 3060   2.621   4.414   9.493
  940WAT      O 3061   6.905   6.620   4.957
  940WAT     H1 3062   6.879   6.603   4.862
  940WAT     H2 3063   6.935   6.534   4.999
  941WAT      O 3064   0.110   0.434   5.295
  941WAT     H1 3065   0.188   0.496   5.305
  941WAT     H2 3066   0.098   0.412   5.198
  942WAT      O 3067   6.526   5.446   0.943
  942WAT     H1 3068   6.481   5.504   0.875
  942WAT     H2 3069   6.593   5.500   0.994
  943WAT      O 3070   7.674   0.546   5.462
  943WAT     H1 3071   7.644   0.631   5.506
  943WAT     H2 3072   7.713   0.567   5.372
  944WAT      O 3073   0.537   7.818   9.460
  944WAT     H1 3074   0.635   7.799   9.450
  944WAT     H2 3075   0.523   7.882   9.535
  945WAT      O 3076   0.791   4.562   9.547
  945WAT     H1 3077   0.793   4.504   9.466
  945WAT     H2 3078   0.696   4.587   9.568
  946WAT      O 3079   4.513   2.872   4.395
  946WAT     H1 3080   4.612   2.871   4.397
  946WAT     H2 3081   4.480   2.813   4.321
  947WAT      O 3082   0.623   2.069   5.840
  947WAT     H1 3083   0.577   2.006   5.903
  947WAT     H2 3084   0.720   2.047   5.835
  948WAT      O 3085   5.908   8.678   0.473
  948WAT     H1 3086   5.892   8.748   0.542
  948WAT     H2 3087   5.876   8.710   0.384
  949WAT      O 3088   0.279   6.586   0.267
  949WAT     H1 3089   0.198   6.640   0.247
  949WAT     H2 3090   0.352   6.645   0.301
  950WAT      O 3091   0.970   0.072   5.411
  950WAT     H1 3092   0.888   0.106   5.366
  950WAT     H2 3093   1.039   0.050   5.342
  951WAT      O 3094   6.779   0.371   5.185
  951WAT     H1 3095   6.720   0.320   5.121
  951WAT     H2 3096   6.804   0.459   5.144
  952WAT      O 3097   5.023   9.593   4.374
  952WAT     H1 3098   4.940   9.593   4.431
  952WAT     H2 3099   5.078   9.673   4.397
  953WAT      O 3100   6.794   4.394   4.545
  953WAT     H1 3101   6.891   4.381   4.523
  953WAT     H2 3102   6.758   4.473   4.494
  954WAT      O 3103   4.616   8.558   8.202
  954WAT     H1 3104   4.653   8.533   8.291
  954WAT     H2 3105   4.625   8.481   8.138
  955WAT      O 3106   1.801   6.898   5.851
  955WAT     H1 3107   1.865   6.964   5.810
  955WAT     H2 3108   1.732   6.948   5.904
  956WAT      O 3109   4.212   1.325   3.726
  956WAT     H1 3110   4.240   1.335   3.630
  956WAT     H2 3111   4.150   1.399   3.750
  957WAT      O 3112   9.027   4.682   2.022
  957WAT     H1 3113   9.052   4.718   1.932
  957WAT     H2 3114   9.110   4.673   2.078
  958WAT      O 3115   9.074   9.364   0.874
  958WAT     H1 3116   9.075   9.463   0.887
  958WAT     H2 3117   9.069   9.318   0.963
  959WAT      O 3118   2.398   0.726   5.185
  959WAT     H1 3119   2.376   0.802   5.123
  959WAT     H2 3120   2.446   0.761   5.265
  960WAT      O 3121   9.845   6.039   3.962
  960WAT     H1 3122   9.794   6.028   3.878
  960WAT     H2 3123   9.880   6.133   3.968
  961WAT      O 3124   0.351   4.390   2.617
  961WAT     H1 3125   0.406   4.406   2.535
  961WAT     H2 3126   0.352   4.471   2.675
  962WAT      O 3127   1.458   1.775   4.638
  962WAT     H1 3128   1.433   1.816   4.551
  962WAT     H2 3129   1.388   1.796   4.707
  963WAT      O 3130   5.969   1.032   5.065
  963WAT     H1 3131   5.969   1.070   4.972
  963WAT     H2 3132   6.049   0.973   5.076
  964WAT      O 3133   0.101   3.814   6.975
  964WAT     H1 3134   0.029   3.797   6.907
  964WAT     H2 3135   0.190   3.794   6.934
  965WAT      O 3136   2.002   1.303   9.004
  965WAT     H1 3137   1.952   1.360   9.070
  965WAT     H2 3138   2.009   1.210   9.040
  966WAT      O 3139   3.294   0.372   3.087
  966WAT     H1 3140   3.359   0.447   3.076
  966WAT     H2 3141   3.230   0.371   3.010
  967WAT      O 3142   8.975   6.461   6.116
  967WAT     H1 3143   8.941   6.553   6.135
  967WAT     H2 3144   8.929   6.395   6.175
  968WAT      O 3145   9.215   7.059   0.355
  968WAT     H1 3146   9.283   7.121   0.394
  968WAT     H2 3147   9.156   7.110   0.292
  969WAT      O 3148   7.997   8.241   8.849
  969WAT     H1 3149   7.947   8.203   8.927
  969WAT     H2 3150   8.092   8.258   8.875
  970WAT      O 3151   7.158   5.347   5.510
  970WAT     H1 3152   7.086   5.325   5.444
  970WAT     H2 3153   7.171   5.269   5.571
  971WAT      O 3154   4.237   4.741   2.936
  971WAT     H1 3155   4.274   4.828   2.902
  971WAT     H2 3156   4.312   4.685   2.971
  972WAT      O 3157   5.355   3.537   9.259
  972WAT     H1 3158   5.354   3.437   9.251
  972WAT     H2 3159   5.437   3.566   9.309
  973WAT      O 3160   7.670   6.396   0.057
  973WAT     H1 3161   7.650   6.463   0.128
  973WAT     H2 3162   7.619   6.312   0.075
  974WAT      O 3163   6.938   5.540   5.531
  974WAT     H1 3164   7.016   5.501   5.482
  974WAT     H2 3165   6.863   5.474   5.531
  975WAT      O 3166   0.595   0.852   1.962
  975WAT     H1 3167   0.505   0.812   1.944
  975WAT     H2 3168   0.597   0.890   2.055
  976WAT      O 3169   0.335   9.051   6.224
  976WAT     H1 3170   0.301   8.965   6.260
  976WAT     H2 3171   0.261   9.099   6.178
  977WAT      O 3172   6.493   5.453   8.862
  977WAT     H1 3173   6.502   5.422   8.767
  977WAT     H2 3174   6.562   5.523   8.881
  978WAT      O 3175   5.077   2.063   6.324
  978WAT     H1 3176   5.012   2.017   6.384
  978WAT     H2 3177   5.069   2.162   6.335
  979WAT      O 3178   8.410   7.230   8.765
  979WAT     H1 3179   8.502   7.231   8.803
  979WAT     H2 3180   8.373   7.137   8.769
  980WAT      O 3181   6.032   1.191   1.920
  980WAT     H1 3182   6.079   1.271   1.957
  980WAT     H2 3183   5.940   1.217   1.891
  981WAT      O 3184   6.564   7.787   2.586
  981WAT     H1 3185   6.641   7.843   2.618
  981WAT     H2 3186   6.505   7.766   2.664
  982WAT      O 3187   9.893   2.608   3.509
  982WAT     H1 3188   9.867   2.699   3.542
  982WAT     H2 3189   9.814   2.563   3.468
  983WAT      O 3190   8.206   8.739   0.325
  983WAT     H1 3191   8.213   8.686   0.241
  983WAT     H2 3192   8.159   8.826   0.305
  984WAT      O 3193   8.546   8.300   9.512
  984WAT     H1 3194   8.601   8.362   9.567
  984WAT     H2 3195   8.457   8.343   9.493
  985WAT      O 3196   5.288   7.378   8.656
  985WAT     H1 3197   5.263   7.391   8.560
  985WAT     H2 3198   5.368   7.434   8.677
  986WAT      O 3199   5.530   8.697   1.544
  986WAT     H1 3200   5.479   8.779   1.521
  986WAT     H2 3201   5.466   8.625   1.573
  987WAT      O 3202   3.830   1.223   4.419
  987WAT     H1 3203   3.864   1.316   4.437
  987WAT     H2 3204   3.783   1.221   4.331
  988WAT      O 3205   5.733   6.228   1.103
  988WAT     H1 3206   5.779   6.316   1.086
  988WAT     H2 3207   5.657   6.218   1.040
  989WAT      O 3208   9.811   1.381   8.709
  989WAT     H1 3209   9.862   1.465   8.692
  989WAT     H2 3210   9.875   1.304   8.711
  990WAT      O 3211   8.794   6.382   6.338
  990WAT     H1 3212   8.718   6.319   6.324
  990WAT     H2 3213   8.763   6.462   6.389
  991WAT      O 3214   4.712   1.082   8.629
  991WAT     H1 3215   4.719   1.031   8.715
  991WAT     H2 3216   4.710   1.018   8.552
  992WAT      O 3217   6.903   0.742   3.470
  992WAT     H1 3218   6.929   0.682   3.546
  992WAT     H2 3219   6.977   0.745   3.404
  993WAT      O 3220   5.503   4.314   2.873
  993WAT     H1 3221   5.552   4.301   2.787
  993WAT     H2 3222   5.529   4.402   2.913
  994WAT      O 3223   7.804   6.114   4.559
  994WAT     H1 3224   7.898   6.126   4.526
  994WAT     H2 3225   7.795   6.024   4.602
  995WAT      O 3226   8.473   4.335   9.737
  995WAT     H1 3227   8.439   4.379   9.654
  995WAT     H2 3228   8.510   4.404   9.799
  996WAT      O 3229   5.796   5.566   3.039
  996WAT     H1 3230   5.784   5.557   2.940
  996WAT     H2 3231   5.851   5.490   3.073
  997WAT      O 3232   6.876   2.493   5.917
  997WAT     H1 3233   6.936   2.413   5.909
  997WAT     H2 3234   6.785   2.463   5.946
  998WAT      O 3235   1.140   0.680   0.576
  998WAT     H1 3236   1.091   0.733   0.645
  998WAT     H2 3237   1.223   0.642   0.616
  999WAT      O 3238   0.122   4.875   1.103
  999WAT     H1 3239   0.170   4.791   1.079
  999WAT     H2 3240   0.143   4.947   1.037
 1000WAT      O 3241   5.420   6.997   4.661
 1000WAT     H1 3242   5.434   7.052   4.580
 1000WAT     H2 3243   5.362   7.046   4.726
 1001WAT      O 3244   8.302   1.089   5.574
 1001WAT     H1 3245   8.281   1.186   5.587
 1001WAT     H2 3246   8.292   1.066   5.477
 1002WAT      O 3247   2.967   5.698   7.509
 1002WAT     H1 3248   2.876   5.738   7.519
 1002WAT     H2 3249   3.011   5.737   7.428
 1003WAT      O 3250   3.273   0.104   2.233
 1003WAT     H1 3251   3.209   0.149   2.170
 1003WAT     H2 3252   3.258   0.005   2.231
 1004WAT      O 3253   8.725   8.839   5.355
 1004WAT     H1 3254   8.714   8.845   5.454
 1004WAT     H2 3255   8.676   8.758   5.321
 1005WAT      O 3256   9.395   6.131   4.465
 1005WAT     H1 3257   9.463   6.085   4.409
 1005WAT     H2 3258   9.432   6.217   4.499
 1006WAT      O 3259   9.715   7.094   6.515
 1006WAT     H1 3260   9.737   7.057   6.425
 1006WAT     H2 3261   9.766   7.044   6.585
 1007WAT      O 3262   5.701   5.713   7.142
 1007WAT     H1 3263   5.685   5.759   7.055
 1007WAT     H2 3264   5.648   5.760   7.214
 1008WAT      O 3265   2.358   7.426   9.259
 1008WAT     H1 3266   2.313   7.514   9.252
 1008WAT     H2 3267   2.414   7.409   9.178
 1009WAT      O 3268   4.701   7.088   1.570
 1009WAT     H1 3269   4.780   7.035   1.542
 1009WAT     H2 3270   4.621   7.059   1.518
 1010WAT      O 3271   6.813   2.812   7.588
 1010WAT     H1 3272   6.767   2.732   7.549
 1010WAT     H2 3273   6.877   2.850   7.521
 1011WAT      O 3274   6.871   3.832   9.355
 1011WAT     H1 3275   6.788   3.840   9.410
 1011WAT     H2 3276   6.935   3.904   9.381
 1012WAT      O 3277   6.285   1.199   9.715
 1012WAT     H1 3278   6.313   1.212   9.620
 1012WAT     H2 3279   6.315   1.278   9.769
 1013WAT      O 3280   0.040   8.305   0.697
 1013WAT     H1 3281   0.006   8.234   0.758
 1013WAT     H2 3282   0.107   8.266   0.634
 1014WAT      O 3283   5.445   7.347   2.873
 1014WAT     H1 3284   5.436   7.325   2.776
 1014WAT     H2 3285   5.362   7.392   2.905
 1015WAT      O 3286   0.541   5.679   1.828
 1015WAT     H1 3287   0.483   5.636   1.759
 1015WAT     H2 3288   0.634   5.686   1.794
 1016WAT      O 3289   8.074   6.996   4.230
 1016WAT     H1 3290   8.014   7.023   4.155
 1016WAT     H2 3291   8.143   6.931   4.196
 1017WAT      O 3292   7.035   0.523   9.499
 1017WAT     H1 3293   7.126   0.513   9.541
 1017WAT     H2 3294   7.030   0.468   9.416
 1018WAT      O 3295   8.047   8.139   7.829
 1018WAT     H1 3296   8.024   8.132   7.732
 1018WAT     H2 3297   8.022   8.230   7.863
 1019WAT      O 3298   4.630   2.816   8.232
 1019WAT     H1 3299   4.619   2.722   8.200
 1019WAT     H2 3300   4.728   2.836   8.243
 1020WAT      O 3301   0.955   8.112   5.221
 1020WAT     H1 3302   0.949   8.020   5.183
 1020WAT     H2 3303   1.051   8.143   5.218
 1021WAT      O 3304   7.300   8.085   3.014
 1021WAT     H1 3305   7.209   8.069   3.052
 1021WAT     H2 3306   7.294   8.147   2.936
 1022WAT      O 3307   0.034   5.463   8.534
 1022WAT     H1 3308  -0.014   5.449   8.620
 1022WAT     H2 3309  -0.012   5.533   8.479
 1023WAT      O 3310   1.943   2.005   0.720
 1023WAT     H1 3311   2.029   1.963   0.749
 1023WAT     H2 3312   1.916   2.073   0.788
 1024WAT      O 3313   0.876   8.612   1.704
 1024WAT     H1 3314   0.798   8.559   1.738
 1024WAT     H2 3315   0.932   8.553   1.645
 1025WAT      O 3316   8.336   1.238   4.348
 1025WAT     H1 3317   8.384   1.231   4.435
 1025WAT     H2 3318   8.344   1.331   4.312
 1026WAT      O 3319   5.266   2.531   5.743
 1026WAT     H1 3320   5.294   2.606   5.683
 1026WAT     H2 3321   5.272   2.444   5.693
 1027WAT      O 3322   7.435   1.030   1.122
 1027WAT     H1 3323   7.514   1.080   1.085
 1027WAT     H2 3324   7.460   0.935   1.137
 1028WAT      O 3325   1.318   8.521   0.960
 1028WAT     H1 3326   1.242   8.578   0.930
 1028WAT     H2 3327   1.352   8.467   0.883
 1029WAT      O 3328   1.485   6.020   7.500
 1029WAT     H1 3329   1.401   6.017   7.554
 1029WAT     H2 3330   1.560   6.056   7.556
 1030WAT      O 3331   3.554   0.044   7.675
 1030WAT     H1 3332   3.581   0.116   7.740
 1030WAT     H2 3333   3.634  -0.009   7.649
 1031WAT      O 3334   7.915   8.066   2.831
 1031WAT     H1 3335   7.970   8.056   2.913
 1031WAT     H2 3336   7.895   8.162   2.815
 1032WAT      O 3337   3.615   3.722   7.406
 1032WAT     H1 3338   3.611   3.717   7.306
 1032WAT     H2 3339   3.542   3.782   7.439
 1033WAT      O 3340   6.251   1.084   8.023
 1033WAT     H1 3341   6.312   1.125   8.090
 1033WAT     H2 3342   6.251   0.984   8.033
 1034WAT      O 3343   1.121   9.772   7.790
 1034WAT     H1 3344   1.035   9.816   7.815
 1034WAT     H2 3345   1.109   9.673   7.787
 1035WAT      O 3346   1.143   3.912   5.857
 1035WAT     H1 3347   1.092   3.850   5.916
 1035WAT     H2 3348   1.222   3.865   5.819
 1036WAT      O 3349   3.735   9.292   2.311
 1036WAT     H1 3350   3.786   9.334   2.387
 1036WAT     H2 3351   3.782   9.313   2.225
 1037WAT      O 3352   2.147   7.140   7.853
 1037WAT     H1 3353   2.172   7.051   7.890
 1037WAT     H2 3354   2.212   7.209   7.886
 1038WAT      O 3355   1.274   7.731   5.500
 1038WAT     H1 3356   1.331   7.668   5.448
 1038WAT     H2 3357   1.290   7.718   5.598
 1039WAT      O 3358   3.542   2.163   2.487
 1039WAT     H1 3359   3.443   2.165   2.484
 1039WAT     H2 3360   3.572   2.095   2.555
 1040WAT      O 3361   8.654   8.422   8.523
 1040WAT     H1 3362   8.598   8.397   8.444
 1040WAT     H2 3363   8.621   8.507   8.562
 1041WAT      O 3364   4.735   0.081   5.478
 1041WAT     H1 3365   4.654   0.096   5.422
 1041WAT     H2 3366   4.728   0.135   5.562
 1042WAT      O 3367   7.076   7.722   2.620
 1042WAT     H1 3368   7.024   7.710   2.705
 1042WAT     H2 3369   7.068   7.640   2.564
 1043WAT      O 3370   0.930   6.092   7.060
 1043WAT     H1 3371   0.988   6.030   7.008
 1043WAT     H2 3372   0.964   6.100   7.153
 1044WAT      O 3373   2.922   2.485   3.634
 1044WAT     H1 3374   3.017   2.464   3.609
 1044WAT     H2 3375   2.913   2.481   3.734
 1045WAT      O 3376   8.097   0.986   6.392
 1045WAT     H1 3377   8.114   1.064   6.452
 1045WAT     H2 3378   8.093   1.017   6.297
 1046WAT      O 3379   7.004   1.142   3.701
 1046WAT     H1 3380   7.080   1.177   3.756
 1046WAT     H2 3381   7.037   1.067   3.643
 1047WAT      O 3382   7.033   0.463   6.080
 1047WAT     H1 3383   7.046   0.549   6.130
 1047WAT     H2 3384   7.017   0.484   5.983
 1048WAT      O 3385   0.789   2.946   5.882
 1048WAT     H1 3386   0.870   2.909   5.927
 1048WAT     H2 3387   0.707   2.924   5.935
 1049WAT      O 3388   9.094   8.103   6.561
 1049WAT     H1 3389   9.032   8.175   6.592
 1049WAT     H2 3390   9.181   8.145   6.532
 1050WAT      O 3391   1.187   2.746   3.133
 1050WAT     H1 3392   1.171   2.839   3.166
 1050WAT     H2 3393   1.227   2.691   3.206
 1051WAT      O 3394   4.488   0.337   0.979
 1051WAT     H1 3395   4.524   0.246   1.000
 1051WAT     H2 3396   4.442   0.335   0.890
 1052WAT      O 3397   0.108   2.246   2.427
 1052WAT     H1 3398   0.198   2.223   2.463
 1052WAT     H2 3399   0.095   2.345   2.430
 1053WAT      O 3400   5.782   1.184   7.140
 1053WAT     H1 3401   5.837   1.126   7.199
 1053WAT     H2 3402   5.692   1.197   7.180
 1054WAT      O 3403   0.073   9.452   2.190
 1054WAT     H1 3404   0.086   9.361   2.149
 1054WAT     H2 3405   0.154   9.476   2.243
 1055WAT      O 3406   6.549   7.131   3.473
 1055WAT     H1 3407   6.487   7.117   3.550
 1055WAT     H2 3408   6.506   7.191   3.405
 1056WAT      O 3409   5.041   4.377   3.598
 1056WAT     H1 3410   5.000   4.463   3.629
 1056WAT     H2 3411   5.033   4.309   3.671
 1057WAT      O 3412   4.613   3.883   3.052
 1057WAT     H1 3413   4.655   3.792   3.056
 1057WAT     H2 3414   4.683   3.951   3.032
 1058WAT      O 3415   2.172   2.870   8.390
 1058WAT     H1 3416   2.134   2.916   8.310
 1058WAT     H2 3417   2.136   2.913   8.474
 1059WAT      O 3418   1.107   3.587   6.973
 1059WAT     H1 3419   1.130   3.635   6.888
 1059WAT     H2 3420   1.017   3.544   6.964
 1060WAT      O 3421   5.086   7.011   4.435
 1060WAT     H1 3422   4.990   7.020   4.461
 1060WAT     H2 3423   5.125   6.930   4.478
 1061WAT      O 3424   7.610   8.440   1.422
 1061WAT     H1 3425   7.588   8.386   1.503
 1061WAT     H2 3426   7.630   8.534   1.450
 1062WAT      O 3427   2.156   4.033   4.183
 1062WAT     H1 3428   2.159   3.935   4.163
 1062WAT     H2 3429   2.092   4.050   4.257
 1063WAT      O 3430   3.620   1.166   4.204
 1063WAT     H1 3431   3.607   1.076   4.162
 1063WAT     H2 3432   3.666   1.227   4.140
 1064WAT      O 3433   9.755   7.575   8.253
 1064WAT     H1 3434   9.772   7.479   8.230
 1064WAT     H2 3435   9.743   7.583   8.352
 1065WAT      O 3436   8.152   7.073   0.049
 1065WAT     H1 3437   8.215   7.001   0.021
 1065WAT     H2 3438   8.147   7.076   0.149
 1066WAT      O 3439   0.685   8.085   6.910
 1066WAT     H1 3440   0.662   8.086   6.812
 1066WAT     H2 3441   0.635   8.158   6.957
 1067WAT      O 3442   0.534   0.928   9.029
 1067WAT     H1 3443   0.508   1.006   9.086
 1067WAT     H2 3444   0.511   0.843   9.076
 1068WAT      O 3445   1.630   2.851   7.738
 1068WAT     H1 3446   1.578   2.884   7.659
 1068WAT     H2 3447   1.673   2.764   7.715
 1069WAT      O 3448   2.877   7.529   9.552
 1069WAT     H1 3449   2.888   7.568   9.461
 1069WAT     H2 3450   2.806   7.459   9.549
 1070WAT      O 3451   5.110   3.082   1.397
 1070WAT     H1 3452   5.107   3.157   1.463
 1070WAT     H2 3453   5.191   3.026   1.414
 1071WAT      O 3454   4.587   6.295   8.372
 1071WAT     H1 3455   4.655   6.336   8.432
 1071WAT     H2 3456   4.533   6.367   8.329
 1072WAT      O 3457   9.084   1.805   7.143
 1072WAT     H1 3458   9.085   1.879   7.210
 1072WAT     H2 3459   9.175   1.798   7.100
 1073WAT      O 3460   7.786   7.246   6.563
 1073WAT     H1 3461   7.687   7.247   6.551
 1073WAT     H2 3462   7.827   7.321   6.511
 1074WAT      O 3463   8.720   2.825   3.865
 1074WAT     H1 3464   8.641   2.881   3.894
 1074WAT     H2 3465   8.696   2.729   3.869
 1075WAT      O 3466   7.251   8.282   2.823
 1075WAT     H1 3467   7.306   8.295   2.740
 1075WAT     H2 3468   7.255   8.365   2.879
 1076WAT      O 3469   6.188   0.825   1.852
 1076WAT     H1 3470   6.204   0.913   1.808
 1076WAT     H2 3471   6.254   0.813   1.927
 1077WAT      O 3472   4.917   6.192   9.675
 1077WAT     H1 3473   4.858   6.115   9.650
 1077WAT     H2 3474   4.943   6.242   9.592
 1078WAT      O 3475   4.852   7.638   6.075
 1078WAT     H1 3476   4.816   7.553   6.036
 1078WAT     H2 3477   4.952   7.633   6.077
 1079WAT      O 3478   7.056   1.367   8.779
 1079WAT     H1 3479   7.058   1.317   8.865
 1079WAT     H2 3480   6.967   1.354   8.735
 1080WAT      O 3481   3.664   0.906   1.714
 1080WAT     H1 3482   3.623   0.981   1.764
 1080WAT     H2 3483   3.741   0.868   1.766
 1081WAT      O 3484   8.464   1.463   3.996
 1081WAT     H1 3485   8.428   1.543   3.948
 1081WAT     H2 3486   8.503   1.399   3.930
 1082WAT      O 3487   2.732   6.219   8.571
 1082WAT     H1 3488   2.706   6.314   8.557
 1082WAT     H2 3489   2.821   6.202   8.528
 1083WAT      O 3490   9.279   9.387   1.884
 1083WAT     H1 3491   9.312   9.416   1.794
 1083WAT     H2 3492   9.183   9.362   1.878
 1084WAT      O 3493   4.146   7.111   4.890
 1084WAT     H1 3494   4.057   7.064   4.891
 1084WAT     H2 3495   4.215   7.050   4.852
 1085WAT      O 3496   8.813   7.300   4.215
 1085WAT     H1 3497   8.815   7.211   4.260
 1085WAT     H2 3498   8.840   7.371   4.280
 1086WAT      O 3499   0.842   2.953   3.097
 1086WAT     H1 3500   0.930   2.963   3.145
 1086WAT     H2 3501   0.800   2.866   3.122
 1087WAT      O 3502   2.644   0.585   3.989
 1087WAT     H1 3503   2.702   0.551   3.915
 1087WAT     H2 3504   2.699   0.592   4.073
 1088WAT      O 3505   6.311   1.779   0.367
 1088WAT     H1 3506   6.398   1.736   0.393
 1088WAT     H2 3507   6.237   1.739   0.421
 1089WAT      O 3508   5.390   9.512   5.135
 1089WAT     H1 3509   5.439   9.466   5.210
 1089WAT     H2 3510   5.331   9.583   5.173
 1090WAT      O 3511   2.260   7.878   1.745
 1090WAT     H1 3512   2.193   7.803   1.737
 1090WAT     H2 3513   2.308   7.888   1.659
 1091WAT      O 3514   2.221   0.953   4.156
 1091WAT     H1 3515   2.265   0.964   4.067
 1091WAT     H2 3516   2.242   1.031   4.215
 1092WAT      O 3517   1.714   8.390   2.594
 1092WAT     H1 3518   1.780   8.388   2.670
 1092WAT     H2 3519   1.760   8.361   2.510
 1093WAT      O 3520   3.220   1.541   9.567
 1093WAT     H1 3521   3.169   1.596   9.501
 1093WAT     H2 3522   3.293   1.596   9.608
 1094WAT      O 3523   3.462   5.696   9.334
 1094WAT     H1 3524   3.555   5.700   9.297
 1094WAT     H2 3525   3.422   5.788   9.332
 1095WAT      O 3526   9.893   7.828   2.968
 1095WAT     H1 3527   9.802   7.787   2.976
 1095WAT     H2 3528   9.888   7.910   2.912
 1096WAT      O 3529   3.166   4.956   4.477
 1096WAT     H1 3530   3.186   5.049   4.448
 1096WAT     H2 3531   3.251   4.908   4.498
 1097WAT      O 3532   5.851   6.465   2.440
 1097WAT     H1 3533   5.913   6.481   2.362
 1097WAT     H2 3534   5.780   6.400   2.413
 1098WAT      O 3535   6.264   9.401   8.445
 1098WAT     H1 3536   6.296   9.494   8.427
 1098WAT     H2 3537   6.321   9.336   8.395
 1099WAT      O 3538   5.470   1.530   8.418
 1099WAT     H1 3539   5.550   1.491   8.372
 1099WAT     H2 3540   5.486   1.535   8.516
 1100WAT      O 3541   7.502   7.037   5.914
 1100WAT     H1 3542   7.548   6.994   5.837
 1100WAT     H2 3543   7.448   6.968   5.964
 1101WAT      O 3544   2.094   7.749   1.025
 1101WAT     H1 3545   2.102   7.840   1.065
 1101WAT     H2 3546   2.020   7.700   1.070
 1102WAT      O 3547   3.309   4.577   4.674
 1102WAT     H1 3548   3.222   4.531   4.659
 1102WAT     H2 3549   3.382   4.508   4.683
 1103WAT      O 3550   3.841   7.825   4.086
 1103WAT     H1 3551   3.934   7.801   4.059
 1103WAT     H2 3552   3.840   7.916   4.127
 1104WAT      O 3553   8.907   6.943   7.864
 1104WAT     H1 3554   8.894   7.007   7.939
 1104WAT     H2 3555   9.004   6.924   7.853
 1105WAT      O 3556   6.657   2.117   8.892
 1105WAT     H1 3557   6.677   2.183   8.964
 1105WAT     H2 3558   6.742   2.082   8.854
 1106WAT      O 3559   6.935   3.868   0.513
 1106WAT     H1 3560   6.959   3.879   0.609
 1106WAT     H2 3561   6.928   3.771   0.491
 1107WAT      O 3562   9.245   1.167   1.100
 1107WAT     H1 3563   9.240   1.136   1.195
 1107WAT     H2 3564   9.315   1.113   1.052
 1108WAT      O 3565   7.364   3.342   5.738
 1108WAT     H1 3566   7.307   3.423   5.750
 1108WAT     H2 3567   7.357   3.310   5.643
 1109WAT      O 3568   0.588   4.717   2.291
 1109WAT     H1 3569   0.674   4.745   2.335
 1109WAT     H2 3570   0.601   4.715   2.191
 1110WAT      O 3571   1.507   4.192   5.501
 1110WAT     H1 3572   1.477   4.257   5.571
 1110WAT     H2 3573   1.513   4.239   5.413
 1111WAT      O 3574   7.524   1.191   5.201
 1111WAT     H1 3575   7.480   1.268   5.247
 1111WAT     H2 3576   7.521   1.110   5.260
 1112WAT      O 3577   5.441   6.473   1.519
 1112WAT     H1 3578   5.473   6.567   1.522
 1112WAT     H2 3579   5.474   6.424   1.599
 1113WAT      O 3580   6.443   6.374   8.603
 1113WAT     H1 3581   6.533   6.411   8.581
 1113WAT     H2 3582   6.374   6.413   8.542
 1114WAT      O 3583   3.621   7.943   6.760
 1114WAT     H1 3584   3.655   7.859   6.802
 1114WAT     H2 3585   3.674   7.963   6.678
 1115WAT      O 3586   2.542   6.014   0.977
 1115WAT     H1 3587   2.625   5.971   1.012
 1115WAT     H2 3588   2.465   5.952   0.991
 1116WAT      O 3589   5.277   8.517   2.186
 1116WAT     H1 3590   5.264   8.562   2.098
 1116WAT     H2 3591   5.213   8.440   2.195
 1117WAT      O 3592   8.695   6.151   1.592
 1117WAT     H1 3593   8.606   6.147   1.637
 1117WAT     H2 3594   8.761   6.095   1.643
 1118WAT      O 3595   1.842   1.497   0.751
 1118WAT     H1 3596   1.765   1.462   0.805
 1118WAT     H2 3597   1.842   1.597   0.754
 1119WAT      O 3598   4.802   2.007   2.543
 1119WAT     H1 3599   4.874   1.991   2.610
 1119WAT     H2 3600   4.825   2.085   2.486
 1120WAT      O 3601   2.347   5.265   9.401
 1120WAT     H1 3602   2.289   5.260   9.482
 1120WAT     H2 3603   2.412   5.189   9.402
 1121WAT      O 3604   0.035   4.701   9.153
 1121WAT     H1 3605  -0.031   4.751   9.209
 1121WAT     H2 3606  -0.012   4.660   9.075
 1122WAT      O 3607   8.923   3.960   6.699
 1122WAT     H1 3608   9.012   3.981   6.658
 1122WAT     H2 3609   8.862   3.922   6.630
 1123WAT      O 3610   1.880   7.500   4.263
 1123WAT     H1 3611   1.912   7.491   4.357
 1123WAT     H2 3612   1.926   7.577   4.219
 1124WAT      O 3613   0.923   0.521   0.266
 1124WAT     H1 3614   0.916   0.588   0.340
 1124WAT     H2 3615   1.015   0.523   0.228
 1125WAT      O 3616   5.656   2.768   0.379
 1125WAT     H1 3617   5.583   2.717   0.424
 1125WAT     H2 3618   5.741   2.715   0.383
 1126WAT      O 3619   1.318   5.523   3.655
 1126WAT     H1 3620   1.395   5.466   3.627
 1126WAT     H2 3621   1.343   5.619   3.646
 1127WAT      O 3622   4.814   4.128   8.225
 1127WAT     H1 3623   4.840   4.146   8.130
 1127WAT     H2 3624   4.778   4.212   8.266
 1128WAT      O 3625   2.674   4.675   5.494
 1128WAT     H1 3626   2.632   4.731   5.566
 1128WAT     H2 3627   2.659   4.718   5.405
 1129WAT      O 3628   4.534   2.627   7.879
 1129WAT     H1 3629   4.546   2.581   7.791
 1129WAT     H2 3630   4.545   2.726   7.867
 1130WAT      O 3631   1.250   5.458   6.947
 1130WAT     H1 3632   1.220   5.383   6.888
 1130WAT     H2 3633   1.329   5.430   7.000
 1131WAT      O 3634   8.373   4.572   8.966
 1131WAT     H1 3635   8.321   4.654   8.989
 1131WAT     H2 3636   8.471   4.591   8.978
 1132WAT      O 3637   5.187   5.024   7.368
 1132WAT     H1 3638   5.138   4.974   7.296
 1132WAT     H2 3639   5.185   4.970   7.452
 1133WAT      O 3640   1.759   3.411   5.635
 1133WAT     H1 3641   1.835   3.430   5.573
 1133WAT     H2 3642   1.795   3.385   5.724
 1134WAT      O 3643   1.915   1.917   1.616
 1134WAT     H1 3644   1.988   1.857   1.585
 1134WAT     H2 3645   1.953   1.990   1.673
 1135WAT      O 3646   3.946   3.483   1.807
 1135WAT     H1 3647   3.979   3.495   1.714
 1135WAT     H2 3648   3.980   3.396   1.844
 1136WAT      O 3649   5.085   6.066   3.228
 1136WAT     H1 3650   5.054   5.990   3.171
 1136WAT     H2 3651   5.185   6.071   3.226
 1137WAT      O 3652   5.893   9.731   6.308
 1137WAT     H1 3653   5.910   9.829   6.318
 1137WAT     H2 3654   5.937   9.681   6.382
 1138WAT      O 3655   3.516   0.921   6.470
 1138WAT     H1 3656   3.558   1.012   6.471
 1138WAT     H2 3657   3.572   0.859   6.416
 1139WAT      O 3658   8.492   5.131   0.188
 1139WAT     H1 3659   8.526   5.121   0.095
 1139WAT     H2 3660   8.397   5.100   0.193
 1140WAT      O 3661   4.459   8.229   7.893
 1140WAT     H1 3662   4.486   8.297   7.825
 1140WAT     H2 3663   4.385   8.266   7.950
 1141WAT      O 3664   6.620   0.835   0.997
 1141WAT     H1 3665   6.571   0.922   1.000
 1141WAT     H2 3666   6.620   0.794   1.088
 1142WAT      O 3667   1.403   8.578   6.122
 1142WAT     H1 3668   1.418   8.553   6.026
 1142WAT     H2 3669   1.457   8.659   6.144
 1143WAT      O 3670   2.905   1.958   9.153
 1143WAT     H1 3671   2.833   1.898   9.185
 1143WAT     H2 3672   2.878   2.053   9.167
 1144WAT      O 3673   9.038   4.003   9.271
 1144WAT     H1 3674   9.096   3.927   9.243
 1144WAT     H2 3675   9.063   4.085   9.218
 1145WAT      O 3676   2.691   8.842   9.434
 1145WAT     H1 3677   2.787   8.841   9.461
 1145WAT     H2 3678   2.651   8.751   9.449
 1146WAT      O 3679   4.244   0.964   3.562
 1146WAT     H1 3680   4.268   0.887   3.502
 1146WAT     H2 3681   4.327   1.000   3.604
 1147WAT      O 3682   0.383   7.114   1.318
 1147WAT     H1 3683   0.410   7.158   1.232
 1147WAT     H2 3684   0.464   7.104   1.377
 1148WAT      O 3685   3.469   5.110   1.849
 1148WAT     H1 3686   3.425   5.020   1.849
 1148WAT     H2 3687   3.490   5.137   1.943
 1149WAT      O 3688   2.001   5.342   0.852
 1149WAT     H1 3689   2.016   5.244   0.840
 1149WAT     H2 3690   2.088   5.386   0.875
 1150WAT      O 3691   3.935   7.563   7.643
 1150WAT     H1 3692   3.850   7.553   7.591
 1150WAT     H2 3693   4.009   7.590   7.581
 1151WAT      O 3694   0.889   9.676   3.795
 1151WAT     H1 3695   0.985   9.688   3.773
 1151WAT     H2 3696   0.880   9.632   3.884
 1152WAT      O 3697   6.725   4.197   3.171
 1152WAT     H1 3698   6.800   4.200   3.237
 1152WAT     H2 3699   6.695   4.290   3.150
 1153WAT      O 3700   4.001   9.243   0.758
 1153WAT     H1 3701   4.071   9.186   0.802
 1153WAT     H2 3702   3.929   9.264   0.824
 1154WAT      O 3703   0.678   8.739   7.260
 1154WAT     H1 3704   0.691   8.689   7.345
 1154WAT     H2 3705   0.604   8.697   7.207
 1155WAT      O 3706   6.362   5.840   7.900
 1155WAT     H1 3707   6.353   5.784   7.818
 1155WAT     H2 3708   6.320   5.793   7.977
 1156WAT      O 3709   5.247   2.647   9.531
 1156WAT     H1 3710   5.211   2.587   9.460
 1156WAT     H2 3711   5.226   2.608   9.621
 1157WAT      O 3712   5.531   4.872   8.961
 1157WAT     H1 3713   5.580   4.784   8.962
 1157WAT     H2 3714   5.588   4.941   9.006
 1158WAT      O 3715   1.528   7.003   1.936
 1158WAT     H1 3716   1.445   7.057   1.953
 1158WAT     H2 3717   1.591   7.014   2.013
 1159WAT      O 3718   4.335   9.495   9.642
 1159WAT     H1 3719   4.319   9.401   9.613
 1159WAT     H2 3720   4.249   9.535   9.676
 1160WAT      O 3721   8.222   3.267   5.540
 1160WAT     H1 3722   8.124   3.245   5.546
 1160WAT     H2 3723   8.246   3.331   5.613
 1161WAT      O 3724   4.067   8.342   2.988
 1161WAT     H1 3725   4.121   8.401   3.048
 1161WAT     H2 3726   4.061   8.250   3.028
 1162WAT      O 3727   1.899   4.943   1.054
 1162WAT     H1 3728   1.800   4.930   1.041
 1162WAT     H2 3729   1.914   5.026   1.108
 1163WAT      O 3730   2.461   0.138   0.266
 1163WAT     H1 3731   2.405   0.059   0.288
 1163WAT     H2 3732   2.527   0.155   0.339
 1164WAT      O 3733   8.875   0.351   8.442
 1164WAT     H1 3734   8.973   0.369   8.436
 1164WAT     H2 3735   8.835   0.351   8.350
 1165WAT      O 3736   6.334   0.398   2.894
 1165WAT     H1 3737   6.264   0.421   2.961
 1165WAT     H2 3738   6.392   0.478   2.877
 1166WAT      O 3739   8.835   5.337   6.068
 1166WAT     H1 3740   8.773   5.261   6.051
 1166WAT     H2 3741   8.860   5.380   5.982
 1167WAT      O 3742   4.357   9.136   6.761
 1167WAT     H1 3743   4.385   9.043   6.782
 1167WAT     H2 3744   4.278   9.135   6.700
 1168WAT      O 3745   0.276   7.570   1.506
 1168WAT     H1 3746   0.256   7.541   1.412
 1168WAT     H2 3747   0.261   7.494   1.569
 1169WAT      O 3748   2.176   1.259   5.252
 1169WAT     H1 3749   2.099   1.199   5.276
 1169WAT     H2 3750   2.154   1.353   5.276
 1170WAT      O 3751   6.235   5.632   2.971
 1170WAT     H1 3752   6.192   5.600   2.887
 1170WAT     H2 3753   6.218   5.730   2.982
 1171WAT      O 3754   9.064   1.651   1.475
 1171WAT     H1 3755   8.973   1.673   1.512
 1171WAT     H2 3756   9.086   1.556   1.496
 1172WAT      O 3757   1.644   4.145   6.027
 1172WAT     H1 3758   1.562   4.100   5.992
 1172WAT     H2 3759   1.643   4.142   6.127
 1173WAT      O 3760   6.736   0.905   4.429
 1173WAT     H1 3761   6.783   0.972   4.372
 1173WAT     H2 3762   6.637   0.919   4.421
 1174WAT      O 3763   3.918   6.273   3.811
 1174WAT     H1 3764   3.958   6.192   3.770
 1174WAT     H2 3765   3.847   6.246   3.875
 1175WAT      O 3766   9.182   6.695   5.724
 1175WAT     H1 3767   9.177   6.715   5.626
 1175WAT     H2 3768   9.237   6.765   5.769
 1176WAT      O 3769   4.957   8.731   8.739
 1176WAT     H1 3770   4.866   8.690   8.739
 1176WAT     H2 3771   5.003   8.710   8.825
 1177WAT      O 3772   6.232   3.804   0.486
 1177WAT     H1 3773   6.320   3.784   0.529
 1177WAT     H2 3774   6.158   3.776   0.547
 1178WAT      O 3775   1.412   0.399   7.475
 1178WAT     H1 3776   1.406   0.348   7.390
 1178WAT     H2 3777   1.464   0.345   7.542
 1179WAT      O 3778   0.418   8.872   7.881
 1179WAT     H1 3779   0.359   8.925   7.821
 1179WAT     H2 3780   0.366   8.798   7.923
 1180WAT      O 3781   7.986   4.682   8.200
 1180WAT     H1 3782   7.948   4.773   8.217
 1180WAT     H2 3783   7.933   4.637   8.128
 1181WAT      O 3784   4.675   6.449   2.516
 1181WAT     H1 3785   4.640   6.356   2.508
 1181WAT     H2 3786   4.603   6.514   2.491
 1182WAT      O 3787   2.217   7.577   3.136
 1182WAT     H1 3788   2.303   7.528   3.147
 1182WAT     H2 3789   2.223   7.667   3.179
 1183WAT      O 3790   1.617   4.724   7.651
 1183WAT     H1 3791   1.526   4.766   7.652
 1183WAT     H2 3792   1.686   4.793   7.671
 1184WAT      O 3793   6.141   0.560   7.880
 1184WAT     H1 3794   6.094   0.511   7.807
 1184WAT     H2 3795   6.073   0.609   7.936
 1185WAT      O 3796   4.639   6.137   6.203
 1185WAT     H1 3797   4.653   6.045   6.240
 1185WAT     H2 3798   4.681   6.143   6.112
 1186WAT      O 3799   6.689   7.382   6.928
 1186WAT     H1 3800   6.784   7.351   6.927
 1186WAT     H2 3801   6.648   7.366   6.838
 1187WAT      O 3802   3.194   2.495   2.355
 1187WAT     H1 3803   3.186   2.574   2.416
 1187WAT     H2 3804   3.266   2.513   2.288
 1188WAT      O 3805   4.909   1.021   0.657
 1188WAT     H1 3806   4.837   0.952   0.668
 1188WAT     H2 3807   4.996   0.976   0.639
 1189WAT      O 3808   9.690   7.615   8.530
 1189WAT     H1 3809   9.631   7.574   8.600
 1189WAT     H2 3810   9.680   7.715   8.533
 1190WAT      O 3811   6.645   8.728   1.200
 1190WAT     H1 3812   6.730   8.756   1.155
 1190WAT     H2 3813   6.591   8.672   1.137
 1191WAT      O 3814   4.367   4.400   0.273
 1191WAT     H1 3815   4.296   4.370   0.337
 1191WAT     H2 3816   4.395   4.323   0.217
 1192WAT      O 3817   6.482   0.192   2.995
 1192WAT     H1 3818   6.564   0.246   2.977
 1192WAT     H2 3819   6.403   0.237   2.954
 1193WAT      O 3820   4.338   8.513   1.973
 1193WAT     H1 3821   4.315   8.528   2.069
 1193WAT     H2 3822   4.436   8.528   1.960
 1194WAT      O 3823   1.247   7.215   6.530
 1194WAT     H1 3824   1.286   7.266   6.453
 1194WAT     H2 3825   1.229   7.277   6.606
 1195WAT      O 3826   7.739   7.527   2.781
 1195WAT     H1 3827   7.663   7.472   2.746
 1195WAT     H2 3828   7.794   7.472   2.844
 1196WAT      O 3829   9.875   5.783   6.520
 1196WAT     H1 3830   9.784   5.797   6.560
 1196WAT     H2 3831   9.942   5.769   6.594
 1197WAT      O 3832   3.100   8.033   0.683
 1197WAT     H1 3833   3.025   7.969   0.665
 1197WAT     H2 3834   3.073   8.095   0.757
 1198WAT      O 3835   7.305   9.405   0.658
 1198WAT     H1 3836   7.300   9.500   0.690
 1198WAT     H2 3837   7.213   9.373   0.638
 1199WAT      O 3838   2.019   3.417   0.616
 1199WAT     H1 3839   1.955   3.457   0.550
 1199WAT     H2 3840   1.969   3.386   0.697
 1200WAT      O 3841   1.758   1.430   0.403
 1200WAT     H1 3842   1.800   1.342   0.424
 1200WAT     H2 3843   1.781   1.456   0.309
 1201WAT      O 3844   6.113   5.774   9.790
 1201WAT     H1 3845   6.030   5.770   9.846
 1201WAT     H2 3846   6.176   5.841   9.829
 1202WAT      O 3847   5.033   6.306   7.471
 1202WAT     H1 3848   5.030   6.206   7.480
 1202WAT     H2 3849   5.072   6.329   7.381
 1203WAT      O 3850   3.946   2.343   6.435
 1203WAT     H1 3851   3.956   2.275   6.362
 1203WAT     H2 3852   3.957   2.298   6.524
 1204WAT      O 3853   7.710   5.981   7.894
 1204WAT     H1 3854   7.777   5.980   7.820
 1204WAT     H2 3855   7.707   6.072   7.934
 1205WAT      O 3856   4.125   9.084   4.202
 1205WAT     H1 3857   4.146   9.171   4.156
 1205WAT     H2 3858   4.187   9.072   4.279
 1206WAT      O 3859   7.548   3.332   3.593
 1206WAT     H1 3860   7.617   3.301   3.527
 1206WAT     H2 3861   7.512   3.253   3.642
 1207WAT      O 3862   9.536   0.848   3.150
 1207WAT     H1 3863   9.440   0.824   3.161
 1207WAT     H2 3864   9.561   0.917   3.217
 1208WAT      O 3865   0.015   6.926   7.318
 1208WAT     H1 3866   0.015   6.975   7.405
 1208WAT     H2 3867   0.101   6.943   7.270
 1209WAT      O 3868   8.913   9.582   1.437
 1209WAT     H1 3869   8.856   9.662   1.452
 1209WAT     H2 3870   9.009   9.605   1.456
 1210WAT      O 3871   3.814   4.337   2.521
 1210WAT     H1 3872   3.760   4.355   2.439
 1210WAT     H2 3873   3.757   4.289   2.588
 1211WAT      O 3874   5.029   6.862   9.360
 1211WAT     H1 3875   5.062   6.953   9.385
 1211WAT     H2 3876   4.933   6.853   9.386
 1212WAT      O 3877   1.864   7.525   2.044
 1212WAT     H1 3878   1.818   7.496   2.127
 1212WAT     H2 3879   1.958   7.489   2.043
 1213WAT      O 3880   0.796   7.205   2.193
 1213WAT     H1 3881   0.863   7.143   2.234
 1213WAT     H2 3882   0.726   7.152   2.146
 1214WAT      O 3883   1.254   2.416   7.561
 1214WAT     H1 3884   1.340   2.440   7.605
 1214WAT     H2 3885   1.195   2.497   7.556
 1215WAT      O 3886   9.601   0.335   9.643
 1215WAT     H1 3887   9.626   0.431   9.649
 1215WAT     H2 3888   9.505   0.327   9.615
 1216WAT      O 3889   1.184   1.761   1.320
 1216WAT     H1 3890   1.183   1.858   1.297
 1216WAT     H2 3891   1.259   1.716   1.271
 1217WAT      O 3892   5.345   7.484   7.977
 1217WAT     H1 3893   5.349   7.548   8.054
 1217WAT     H2 3894   5.353   7.390   8.011
 1218WAT      O 3895   3.469   6.116   6.207
 1218WAT     H1 3896   3.515   6.190   6.158
 1218WAT     H2 3897   3.532   6.078   6.275
 1219WAT      O 3898   8.856   5.600   7.892
 1219WAT     H1 3899   8.896   5.564   7.976
 1219WAT     H2 3900   8.758   5.579   7.891
 1220WAT      O 3901   7.201   3.527   9.587
 1220WAT     H1 3902   7.121   3.500   9.534
 1220WAT     H2 3903   7.209   3.469   9.668
 1221WAT      O 3904   4.101   0.276   5.584
 1221WAT     H1 3905   4.122   0.264   5.487
 1221WAT     H2 3906   4.011   0.317   5.594
 1222WAT      O 3907   2.910   5.034   9.437
 1222WAT     H1 3908   2.868   4.967   9.498
 1222WAT     H2 3909   2.896   5.126   9.474
 1223WAT      O 3910   6.150   6.207   6.982
 1223WAT     H1 3911   6.081   6.212   6.910
 1223WAT     H2 3912   6.169   6.111   7.004
 1224WAT      O 3913   2.199   3.219   8.421
 1224WAT     H1 3914   2.256   3.170   8.487
 1224WAT     H2 3915   2.236   3.208   8.329
 1225WAT      O 3916   0.406   7.409   9.651
 1225WAT     H1 3917   0.490   7.457   9.676
 1225WAT     H2 3918   0.331   7.474   9.642
 1226WAT      O 3919   2.065   7.435   9.628
 1226WAT     H1 3920   2.068   7.522   9.579
 1226WAT     H2 3921   2.012   7.369   9.575
 1227WAT      O 3922   2.796   3.430   6.023
 1227WAT     H1 3923   2.864   3.357   6.012
 1227WAT     H2 3924   2.830   3.498   6.088
 1228WAT      O 3925   5.043   1.366   6.559
 1228WAT     H1 3926   4.979   1.428   6.604
 1228WAT     H2 3927   4.999   1.278   6.544
 1229WAT      O 3928   1.965   6.052   7.408
 1229WAT     H1 3929   1.900   6.093   7.344
 1229WAT     H2 3930   1.987   5.959   7.378
 1230WAT      O 3931   2.365   5.879   7.289
 1230WAT     H1 3932   2.392   5.888   7.193
 1230WAT     H2 3933   2.322   5.964   7.319
 1231WAT      O 3934   7.646   1.493   6.426
 1231WAT     H1 3935   7.638   1.395   6.445
 1231WAT     H2 3936   7.740   1.514   6.397
 1232WAT      O 3937   1.558   3.601   3.018
 1232WAT     H1 3938   1.596   3.549   3.094
 1232WAT     H2 3939   1.479   3.552   2.981
 1233WAT      O 3940   0.442   4.552   6.209
 1233WAT     H1 3941   0.365   4.614   6.219
 1233WAT     H2 3942   0.425   4.469   6.264
 1234WAT      O 3943   7.491   1.781   0.795
 1234WAT     H1 3944   7.516   1.690   0.762
 1234WAT     H2 3945   7.568   1.844   0.783
 1235WAT      O 3946   3.306   1.937   6.069
 1235WAT     H1 3947   3.364   1.856   6.068
 1235WAT     H2 3948   3.211   1.910   6.080
 1236WAT      O 3949   8.512   0.642   1.490
 1236WAT     H1 3950   8.495   0.740   1.486
 1236WAT     H2 3951   8.440   0.597   1.543
 1237WAT      O 3952   2.154   5.773   4.221
 1237WAT     H1 3953   2.165   5.872   4.226
 1237WAT     H2 3954   2.058   5.750   4.237
 1238WAT      O 3955   0.550   0.410   0.698
 1238WAT     H1 3956   0.549   0.383   0.601
 1238WAT     H2 3957   0.643   0.439   0.723
 1239WAT      O 3958   3.267   4.060   8.457
 1239WAT     H1 3959   3.177   4.085   8.420
 1239WAT     H2 3960   3.314   4.143   8.489
 1240WAT      O 3961   6.892   7.864   8.244
 1240WAT     H1 3962   6.925   7.945   8.292
 1240WAT     H2 3963   6.800   7.841   8.276
 1241WAT      O 3964   6.310   9.621   6.221
 1241WAT     H1 3965   6.355   9.658   6.301
 1241WAT     H2 3966   6.292   9.694   6.155
 1242WAT      O 3967   4.505   5.970   6.712
 1242WAT     H1 3968   4.502   6.016   6.624
 1242WAT     H2 3969   4.464   5.879   6.703
 1243WAT      O 3970   0.983   3.322   0.416
 1243WAT     H1 3971   0.960   3.248   0.353
 1243WAT     H2 3972   1.042   3.286   0.489
 1244WAT      O 3973   2.670   5.500   0.672
 1244WAT     H1 3974   2.632   5.482   0.581
 1244WAT     H2 3975   2.763   5.464   0.677
 1245WAT      O 3976   2.667   8.073   8.446
 1245WAT     H1 3977   2.762   8.100   8.465
 1245WAT     H2 3978   2.633   8.016   8.520
 1246WAT      O 3979   8.048   9.597   3.519
 1246WAT     H1 3980   8.111   9.522   3.502
 1246WAT     H2 3981   7.970   9.590   3.456
 1247WAT      O 3982   9.833   7.731   6.354
 1247WAT     H1 3983   9.859   7.634   6.354
 1247WAT     H2 3984   9.836   7.765   6.448
 1248WAT      O 3985   3.501   7.042   2.806
 1248WAT     H1 3986   3.459   7.049   2.715
 1248WAT     H2 3987   3.549   7.127   2.826
 1249WAT      O 3988   4.247   9.307   5.961
 1249WAT     H1 3989   4.330   9.264   5.923
 1249WAT     H2 3990   4.251   9.406   5.946
 1250WAT      O 3991   1.512   2.150   9.622
 1250WAT     H1 3992   1.589   2.192   9.669
 1250WAT     H2 3993   1.530   2.052   9.611
 1251WAT      O 3994   4.980   1.594   7.965
 1251WAT     H1 3995   4.939   1.502   7.964
 1251WAT     H2 3996   4.907   1.662   7.958
 1252WAT      O 3997   1.116   6.307   8.020
 1252WAT     H1 3998   1.073   6.217   8.032
 1252WAT     H2 3999   1.215   6.296   8.012
 1253WAT      O 4000   3.141   0.452   5.282
 1253WAT     H1 4001   3.124   0.455   5.184
 1253WAT     H2 4002   3.075   0.510   5.330
 1254WAT      O 4003   6.454   3.210   0.736
 1254WAT     H1 4004   6.391   3.136   0.714
 1254WAT     H2 4005   6.476   3.261   0.652
 1255WAT      O 4006   7.260   2.502   1.305
 1255WAT     H1 4007   7.331   2.527   1.370
 1255WAT     H2 4008   7.294   2.430   1.245
 1256WAT      O 4009   7.970   8.475   6.400
 1256WAT     H1 4010   7.954   8.391   6.349
 1256WAT     H2 4011   7.884   8.508   6.438
 1257WAT      O 4012   5.581   9.398   0.455
 1257WAT     H1 4013   5.662   9.422   0.509
 1257WAT     H2 4014   5.535   9.320   0.497
 1258WAT      O 4015   6.211   0.738   0.007
 1258WAT     H1 4016   6.292   0.688   0.037
 1258WAT     H2 4017   6.130   0.680   0.015
 1259WAT      O 4018   4.331   4.368   2.635
 1259WAT     H1 4019   4.324   4.385   2.734
 1259WAT     H2 4020   4.370   4.448   2.590
 1260WAT      O 4021   8.787   3.427   3.365
 1260WAT     H1 4022   8.785   3.410   3.267
 1260WAT     H2 4023   8.863   3.376   3.406
 1261WAT      O 4024   5.023   8.187   3.634
 1261WAT     H1 4025   5.012   8.211   3.538
 1261WAT     H2 4026   5.120   8.169   3.654
 1262WAT      O 4027   9.687   5.822   0.577
 1262WAT     H1 4028   9.681   5.806   0.676
 1262WAT     H2 4029   9.595   5.837   0.541
 1263WAT      O 4030   8.442   3.872   5.266
 1263WAT     H1 4031   8.487   3.787   5.295
 1263WAT     H2 4032   8.373   3.898   5.333
 1264WAT      O 4033   7.316   3.712   6.848
 1264WAT     H1 4034   7.370   3.694   6.931
 1264WAT     H2 4035   7.363   3.779   6.792
 1265WAT      O 4036   4.730   8.961   2.409
 1265WAT     H1 4037   4.798   8.983   2.479
 1265WAT     H2 4038   4.724   9.037   2.343
 1266WAT      O 4039   7.826   6.967   7.443
 1266WAT     H1 4040   7.810   7.043   7.505
 1266WAT     H2 4041   7.778   6.886   7.476
 1267WAT      O 4042   4.915   7.426   0.116
 1267WAT     H1 4043   4.913   7.513   0.164
 1267WAT     H2 4044   5.009   7.391   0.115
 1268WAT      O 4045   4.443   0.900   9.491
 1268WAT     H1 4046   4.376   0.931   9.424
 1268WAT     H2 4047   4.474   0.808   9.467
 1269WAT      O 4048   2.175   8.261   3.333
 1269WAT     H1 4049   2.218   8.282   3.245
 1269WAT     H2 4050   2.228   8.304   3.406
 1270WAT      O 4051   0.339   9.169   5.108
 1270WAT     H1 4052   0.297   9.152   5.019
 1270WAT     H2 4053   0.408   9.241   5.098
 1271WAT      O 4054   6.331   0.944   8.970
 1271WAT     H1 4055   6.391   1.007   9.019
 1271WAT     H2 4056   6.356   0.850   8.994
 1272WAT      O 4057   2.354   4.001   2.658
 1272WAT     H1 4058   2.284   3.933   2.681
 1272WAT     H2 4059   2.381   4.050   2.740
 1273WAT      O 4060   1.791   5.193   0.274
 1273WAT     H1 4061   1.713   5.147   0.232
 1273WAT     H2 4062   1.777   5.201   0.372
 1274WAT      O 4063   9.001   8.765   9.832
 1274WAT     H1 4064   9.083   8.729   9.876
 1274WAT     H2 4065   8.920   8.725   9.874
 1275WAT      O 4066   2.867   9.044   8.378
 1275WAT     H1 4067   2.955   8.998   8.361
 1275WAT     H2 4068   2.807   9.030   8.299
 1276WAT      O 4069   3.731   6.159   0.545
 1276WAT     H1 4070   3.816   6.211   0.536
 1276WAT     H2 4071   3.666   6.212   0.599
 1277WAT      O 4072   0.289   5.446   3.298
 1277WAT     H1 4073   0.277   5.363   3.352
 1277WAT     H2 4074   0.242   5.435   3.210
 1278WAT      O 4075   8.284   8.481   1.525
 1278WAT     H1 4076   8.320   8.392   1.553
 1278WAT     H2 4077   8.355   8.533   1.479
 1279WAT      O 4078   5.926   6.879   4.180
 1279WAT     H1 4079   5.978   6.953   4.221
 1279WAT     H2 4080   5.977   6.793   4.188
 1280WAT      O 4081   9.667   4.776   5.967
 1280WAT     H1 4082   9.643   4.706   6.034
 1280WAT     H2 4083   9.608   4.856   5.981
 1281WAT      O 4084   5.313   7.893   0.538
 1281WAT     H1 4085   5.247   7.868   0.467
 1281WAT     H2 4086   5.401   7.851   0.519
 1282WAT      O 4087   9.559   4.587   4.901
 1282WAT     H1 4088   9.657   4.568   4.908
 1282WAT     H2 4089   9.516   4.573   4.990
 1283WAT      O 4090   5.596   7.318   2.146
 1283WAT     H1 4091   5.623   7.254   2.075
 1283WAT     H2 4092   5.615   7.412   2.116
 1284WAT      O 4093   1.657   5.905   0.195
 1284WAT     H1 4094   1.675   5.850   0.277
 1284WAT     H2 4095   1.636   5.844   0.118
 1285WAT      O 4096   5.012   0.955   2.810
 1285WAT     H1 4097   4.919   0.916   2.811
 1285WAT     H2 4098   5.009   1.046   2.851
 1286WAT      O 4099   2.649   1.869   7.845
 1286WAT     H1 4100   2.549   1.868   7.849
 1286WAT     H2 4101   2.686   1.830   7.929
 1287WAT      O 4102   7.874   6.981   1.631
 1287WAT     H1 4103   7.951   6.976   1.567
 1287WAT     H2 4104   7.885   7.059   1.691
 1288WAT      O 4105   9.643   6.037   4.889
 1288WAT     H1 4106   9.709   6.061   4.960
 1288WAT     H2 4107   9.659   5.944   4.858
 1289WAT      O 4108   5.841   1.707   6.922
 1289WAT     H1 4109   5.894   1.790   6.939
 1289WAT     H2 4110   5.836   1.653   7.006
 1290WAT      O 4111   5.899   5.018   9.481
 1290WAT     H1 4112   5.876   5.045   9.574
 1290WAT     H2 4113   5.911   5.099   9.424
 1291WAT      O 4114   2.158   0.185   9.129
 1291WAT     H1 4115   2.168   0.159   9.033
 1291WAT     H2 4116   2.064   0.165   9.158
 1292WAT      O 4117   0.378   2.808   4.624
 1292WAT     H1 4118   0.334   2.719   4.616
 1292WAT     H2 4119   0.313   2.874   4.661
 1293WAT      O 4120   3.949   3.392   2.845
 1293WAT     H1 4121   3.990   3.305   2.871
 1293WAT     H2 4122   4.001   3.467   2.887
 1294WAT      O 4123   8.427   8.965   3.370
 1294WAT     H1 4124   8.390   9.028   3.439
 1294WAT     H2 4125   8.526   8.959   3.380
 1295WAT      O 4126   2.585   0.401   6.312
 1295WAT     H1 4127   2.547   0.377   6.223
 1295WAT     H2 4128   2.679   0.435   6.301
 1296WAT      O 4129   5.703   0.269   6.178
 1296WAT     H1 4130   5.617   0.256   6.227
 1296WAT     H2 4131   5.724   0.367   6.174
 1297WAT      O 4132   7.191   7.944   8.997
 1297WAT     H1 4133   7.264   8.011   8.994
 1297WAT     H2 4134   7.215   7.866   8.939
 1298WAT      O 4135   8.468   9.452   3.404
 1298WAT     H1 4136   8.375   9.419   3.420
 1298WAT     H2 4137   8.503   9.414   3.318
 1299WAT      O 4138   1.608   5.239   7.914
 1299WAT     H1 4139   1.629   5.158   7.969
 1299WAT     H2 4140   1.517   5.229   7.874
 1300WAT      O 4141   6.906   7.620   5.978
 1300WAT     H1 4142   6.852   7.553   6.030
 1300WAT     H2 4143   6.988   7.643   6.030
 1301WAT      O 4144   0.002   6.918   2.369
 1301WAT     H1 4145   0.089   6.879   2.400
 1301WAT     H2 4146  -0.068   6.903   2.439
 1302WAT      O 4147   6.086   9.067   8.033
 1302WAT     H1 4148   6.162   9.124   8.063
 1302WAT     H2 4149   6.110   8.970   8.046
 1303WAT      O 4150   9.231   9.798   6.772
 1303WAT     H1 4151   9.256   9.709   6.811
 1303WAT     H2 4152   9.138   9.792   6.735
 1304WAT      O 4153   8.185   0.167   4.231
 1304WAT     H1 4154   8.278   0.139   4.206
 1304WAT     H2 4155   8.153   0.112   4.308
 1305WAT      O 4156   6.177   6.698   1.215
 1305WAT     H1 4157   6.242   6.753   1.163
 1305WAT     H2 4158   6.225   6.624   1.262
 1306WAT      O 4159   4.532   0.250   8.165
 1306WAT     H1 4160   4.539   0.175   8.231
 1306WAT     H2 4161   4.498   0.214   8.078
 1307WAT      O 4162   2.037   9.745   2.447
 1307WAT     H1 4163   1.942   9.726   2.473
 1307WAT     H2 4164   2.073   9.667   2.395
 1308WAT      O 4165   1.842   6.057   3.400
 1308WAT     H1 4166   1.842   5.957   3.396
 1308WAT     H2 4167   1.904   6.087   3.473
 1309WAT      O 4168   6.961   3.555   1.713
 1309WAT     H1 4169   6.902   3.526   1.637
 1309WAT     H2 4170   6.989   3.475   1.765
 1310WAT      O 4171   6.056   7.398   4.899
 1310WAT     H1 4172   6.016   7.334   4.964
 1310WAT     H2 4173   6.003   7.398   4.814
 1311WAT      O 4174   2.110   5.173   3.101
 1311WAT     H1 4175   2.134   5.176   3.198
 1311WAT     H2 4176   2.136   5.259   3.057
 1312WAT      O 4177   1.286   8.347   2.263
 1312WAT     H1 4178   1.371   8.364   2.313
 1312WAT     H2 4179   1.290   8.257   2.220
 1313WAT      O 4180   1.579   2.042   0.942
 1313WAT     H1 4181   1.677   2.058   0.928
 1313WAT     H2 4182   1.527   2.083   0.867
 1314WAT      O 4183   2.917   6.929   1.876
 1314WAT     H1 4184   2.879   6.837   1.891
 1314WAT     H2 4185   2.861   6.977   1.808
 1315WAT      O 4186   3.857   9.417   7.829
 1315WAT     H1 4187   3.921   9.468   7.887
 1315WAT     H2 4188   3.897   9.403   7.739
 1316WAT      O 4189   9.815   1.135   5.325
 1316WAT     H1 4190   9.863   1.097   5.246
 1316WAT     H2 4191   9.810   1.235   5.317
 1317WAT      O 4192   5.837   1.523   2.546
 1317WAT     H1 4193   5.787   1.559   2.626
 1317WAT     H2 4194   5.815   1.426   2.534
 1318WAT      O 4195   9.616   0.906   0.395
 1318WAT     H1 4196   9.516   0.914   0.385
 1318WAT     H2 4197   9.655   0.996   0.414
 1319WAT      O 4198   7.376   8.914   1.487
 1319WAT     H1 4199   7.364   8.957   1.576
 1319WAT     H2 4200   7.334   8.823   1.488
 1320WAT      O 4201   2.280   0.532   2.338
 1320WAT     H1 4202   2.215   0.464   2.372
 1320WAT     H2 4203   2.251   0.623   2.367
 1321WAT      O 4204   8.395   1.569   1.907
 1321WAT     H1 4205   8.309   1.581   1.857
 1321WAT     H2 4206   8.416   1.472   1.913
 1322WAT      O 4207   4.516   7.482   2.639
 1322WAT     H1 4208   4.512   7.541   2.558
 1322WAT     H2 4209   4.542   7.390   2.611
 1323WAT      O 4210   9.818   1.902   1.540
 1323WAT     H1 4211   9.790   1.829   1.477
 1323WAT     H2 4212   9.745   1.971   1.545
 1324WAT      O 4213   1.394   3.653   8.019
 1324WAT     H1 4214   1.440   3.673   7.932
 1324WAT     H2 4215   1.442   3.700   8.093
 1325WAT      O 4216   3.000   2.850   1.192
 1325WAT     H1 4217   2.909   2.871   1.228
 1325WAT     H2 4218   3.069   2.868   1.263
 1326WAT      O 4219   6.170   0.128   6.214
 1326WAT     H1 4220   6.243   0.107   6.280
 1326WAT     H2 4221   6.211   0.163   6.130
 1327WAT      O 4222   4.508   8.890   1.013
 1327WAT     H1 4223   4.504   8.928   0.921
 1327WAT     H2 4224   4.451   8.944   1.075
 1328WAT      O 4225   1.169   4.291   9.580
 1328WAT     H1 4226   1.075   4.324   9.588
 1328WAT     H2 4227   1.200   4.300   9.485
 1329WAT      O 4228   2.766   2.384   4.896
 1329WAT     H1 4229   2.800   2.293   4.872
 1329WAT     H2 4230   2.834   2.431   4.953
 1330WAT      O 4231   5.267   8.089   5.984
 1330WAT     H1 4232   5.227   7.998   5.981
 1330WAT     H2 4233   5.362   8.085   5.953
 1331WAT      O 4234   3.113   7.643   5.380
 1331WAT     H1 4235   3.071   7.657   5.469
 1331WAT     H2 4236   3.163   7.557   5.379
 1332WAT      O 4237   5.377   3.774   7.122
 1332WAT     H1 4238   5.385   3.693   7.063
 1332WAT     H2 4239   5.363   3.855   7.066
 1333WAT      O 4240   1.746   4.585   6.912
 1333WAT     H1 4241   1.796   4.620   6.991
 1333WAT     H2 4242   1.657   4.551   6.942
 1334WAT      O 4243   2.381   5.007   9.818
 1334WAT     H1 4244   2.336   4.976   9.734
 1334WAT     H2 4245   2.460   4.949   9.837
 1335WAT      O 4246   3.952   1.632   1.946
 1335WAT     H1 4247   3.921   1.676   2.030
 1335WAT     H2 4248   3.873   1.596   1.896
 1336WAT      O 4249   3.183   8.913   0.743
 1336WAT     H1 4250   3.113   8.951   0.683
 1336WAT     H2 4251   3.141   8.885   0.830
 1337WAT      O 4252   6.639   4.868   9.638
 1337WAT     H1 4253   6.575   4.792   9.634
 1337WAT     H2 4254   6.685   4.869   9.727
 1338WAT      O 4255   1.462   4.881   1.748
 1338WAT     H1 4256   1.430   4.787   1.753
 1338WAT     H2 4257   1.429   4.924   1.664
 1339WAT      O 4258   3.136   3.622   0.116
 1339WAT     H1 4259   3.065   3.675   0.069
 1339WAT     H2 4260   3.097   3.584   0.200
 1340WAT      O 4261   1.119   7.624   8.008
 1340WAT     H1 4262   1.066   7.620   7.923
 1340WAT     H2 4263   1.154   7.717   8.022
 1341WAT      O 4264   0.370   3.082   2.301
 1341WAT     H1 4265   0.452   3.137   2.282
 1341WAT     H2 4266   0.323   3.061   2.215
 1342WAT      O 4267   2.138   1.448   3.248
 1342WAT     H1 4268   2.215   1.388   3.270
 1342WAT     H2 4269   2.140   1.468   3.150
 1343WAT      O 4270   8.033   2.904   3.708
 1343WAT     H1 4271   7.989   2.864   3.628
 1343WAT     H2 4272   7.993   2.866   3.791
 1344WAT      O 4273   7.405   3.251   9.843
 1344WAT     H1 4274   7.448   3.297   9.765
 1344WAT     H2 4275   7.397   3.153   9.823
 1345WAT      O 4276   6.515   3.638   6.924
 1345WAT     H1 4277   6.459   3.597   6.996
 1345WAT     H2 4278   6.508   3.737   6.930
 1346WAT      O 4279   7.984   6.008   3.199
 1346WAT     H1 4280   8.001   5.912   3.177
 1346WAT     H2 4281   8.064   6.063   3.176
 1347WAT      O 4282   6.494   0.664   6.798
 1347WAT     H1 4283   6.525   0.633   6.708
 1347WAT     H2 4284   6.395   0.673   6.799
 1348WAT      O 4285   7.532   2.582   3.206
 1348WAT     H1 4286   7.588   2.520   3.153
 1348WAT     H2 4287   7.513   2.542   3.296
 1349WAT      O 4288   2.465   2.040   2.091
 1349WAT     H1 4289   2.519   2.107   2.040
 1349WAT     H2 4290   2.433   2.081   2.177
 1350WAT      O 4291   4.350   8.154   5.514
 1350WAT     H1 4292   4.271   8.201   5.554
 1350WAT     H2 4293   4.425   8.151   5.580
 1351WAT      O 4294   0.606   5.731   3.529
 1351WAT     H1 4295   0.588   5.790   3.451
 1351WAT     H2 4296   0.704   5.711   3.534
 1352WAT      O 4297   4.836   1.724   6.673
 1352WAT     H1 4298   4.778   1.802   6.649
 1352WAT     H2 4299   4.833   1.710   6.772
 1353WAT      O 4300   5.648   1.587   6.741
 1353WAT     H1 4301   5.646   1.492   6.771
 1353WAT     H2 4302   5.709   1.639   6.800
 1354WAT      O 4303   1.897   8.505   6.876
 1354WAT     H1 4304   1.805   8.519   6.915
 1354WAT     H2 4305   1.956   8.464   6.946
 1355WAT      O 4306   7.956   4.664   1.404
 1355WAT     H1 4307   7.935   4.586   1.463
 1355WAT     H2 4308   7.946   4.638   1.308
 1356WAT      O 4309   2.859   5.406   7.036
 1356WAT     H1 4310   2.824   5.427   7.127
 1356WAT     H2 4311   2.927   5.332   7.042
 1357WAT      O 4312   8.989   4.484   6.256
 1357WAT     H1 4313   9.062   4.536   6.300
 1357WAT     H2 4314   8.911   4.545   6.239
 1358WAT      O 4315   4.663   9.011   3.964
 1358WAT     H1 4316   4.568   9.036   3.945
 1358WAT     H2 4317   4.704   9.077   4.026
 1359WAT      O 4318   8.584   1.732   2.027
 1359WAT     H1 4319   8.558   1.746   2.123
 1359WAT     H2 4320   8.522   1.666   1.985
 1360WAT      O 4321   1.806   7.654   8.460
 1360WAT     H1 4322   1.725   7.636   8.516
 1360WAT     H2 4323   1.882   7.597   8.493
 1361WAT      O 4324   3.805   8.937   5.058
 1361WAT     H1 4325   3.881   8.923   5.123
 1361WAT     H2 4326   3.723   8.963   5.108
 1362WAT      O 4327   8.541   2.927   1.410
 1362WAT     H1 4328   8.524   2.951   1.314
 1362WAT     H2 4329   8.593   3.001   1.454
 1363WAT      O 4330   1.893   7.610   1.157
 1363WAT     H1 4331   1.795   7.625   1.172
 1363WAT     H2 4332   1.912   7.512   1.159
 1364WAT      O 4333   7.660   9.718   9.844
 1364WAT     H1 4334   7.705   9.706   9.755
 1364WAT     H2 4335   7.670   9.813   9.874
 1365WAT      O 4336   3.887   6.117   4.735
 1365WAT     H1 4337   3.871   6.189   4.667
 1365WAT     H2 4338   3.812   6.051   4.732
 1366WAT      O 4339   9.168   6.218   6.527
 1366WAT     H1 4340   9.144   6.314   6.536
 1366WAT     H2 4341   9.208   6.201   6.437
 1367WAT      O 4342   5.384   1.321   7.630
 1367WAT     H1 4343   5.361   1.380   7.553
 1367WAT     H2 4344   5.444   1.370   7.693
 1368WAT      O 4345   4.851   1.387   0.903
 1368WAT     H1 4346   4.762   1.354   0.871
 1368WAT     H2 4347   4.920   1.318   0.885
 1369WAT      O 4348   0.925   3.360   2.892
 1369WAT     H1 4349   1.003   3.348   2.954
 1369WAT     H2 4350   0.849   3.303   2.922
 1370WAT      O 4351   7.903   8.184   1.222
 1370WAT     H1 4352   7.818   8.132   1.224
 1370WAT     H2 4353   7.944   8.187   1.313
 1371WAT      O 4354   2.881   8.377   2.286
 1371WAT     H1 4355   2.944   8.300   2.291
 1371WAT     H2 4356   2.851   8.389   2.191
 1372WAT      O 4357   7.818   9.475   3.001
 1372WAT     H1 4358   7.806   9.555   2.942
 1372WAT     H2 4359   7.904   9.483   3.050
 1373WAT      O 4360   1.566   2.100   4.517
 1373WAT     H1 4361   1.610   2.026   4.465
 1373WAT     H2 4362   1.622   2.121   4.597
 1374WAT      O 4363   8.423   7.220   4.342
 1374WAT     H1 4364   8.474   7.267   4.415
 1374WAT     H2 4365   8.484   7.161   4.291
 1375WAT      O 4366   0.054   4.391   8.507
 1375WAT     H1 4367  -0.030   4.442   8.527
 1375WAT     H2 4368   0.062   4.379   8.408
 1376WAT      O 4369   0.243   6.734   5.904
 1376WAT     H1 4370   0.204   6.819   5.869
 1376WAT     H2 4371   0.255   6.741   6.003
 1377WAT      O 4372   5.940   4.417   1.704
 1377WAT     H1 4373   5.903   4.500   1.746
 1377WAT     H2 4374   5.982   4.360   1.774
 1378WAT      O 4375   8.778   9.718   5.297
 1378WAT     H1 4376   8.820   9.629   5.313
 1378WAT     H2 4377   8.786   9.774   5.379
 1379WAT      O 4378   1.763   9.541   3.725
 1379WAT     H1 4379   1.715   9.478   3.786
 1379WAT     H2 4380   1.850   9.569   3.768
 1380WAT      O 4381   3.585   2.006   0.757
 1380WAT     H1 4382   3.531   2.059   0.691
 1380WAT     H2 4383   3.532   1.996   0.841
 1381WAT      O 4384   4.061   4.901   4.202
 1381WAT     H1 4385   4.161   4.910   4.203
 1381WAT     H2 4386   4.027   4.914   4.109
 1382WAT      O 4387   0.018   4.069   9.626
 1382WAT     H1 4388  -0.028   4.125   9.695
 1382WAT     H2 4389   0.112   4.052   9.654
 1383WAT      O 4390   4.871   6.438   6.437
 1383WAT     H1 4391   4.930   6.417   6.359
 1383WAT     H2 4392   4.775   6.432   6.410
 1384WAT      O 4393   3.211   3.725   8.623
 1384WAT     H1 4394   3.157   3.795   8.669
 1384WAT     H2 4395   3.304   3.759   8.608
 1385WAT      O 4396   2.460   1.580   0.261
 1385WAT     H1 4397   2.453   1.485   0.293
 1385WAT     H2 4398   2.403   1.592   0.180
 1386WAT      O 4399   1.875   8.742   5.128
 1386WAT     H1 4400   1.858   8.649   5.096
 1386WAT     H2 4401   1.963   8.774   5.094
 1387WAT      O 4402   1.860   3.854   4.884
 1387WAT     H1 4403   1.772   3.897   4.866
 1387WAT     H2 4404   1.859   3.814   4.976
 1388WAT      O 4405   8.120   0.308   4.581
 1388WAT     H1 4406   8.039   0.361   4.602
 1388WAT     H2 4407   8.186   0.317   4.656
 1389WAT      O 4408   2.503   5.222   5.395
 1389WAT     H1 4409   2.586   5.276   5.383
 1389WAT     H2 4410   2.522   5.127   5.370
 1390WAT      O 4411   4.273   1.416   6.333
 1390WAT     H1 4412   4.233   1.465   6.255
 1390WAT     H2 4413   4.333   1.344   6.299
 1391WAT      O 4414   2.789   3.408   3.511
 1391WAT     H1 4415   2.822   3.382   3.420
 1391WAT     H2 4416   2.826   3.497   3.536
 1392WAT      O 4417   6.378   0.682   9.090
 1392WAT     H1 4418   6.293   0.637   9.120
 1392WAT     H2 4419   6.456   0.640   9.137
 1393WAT      O 4420   0.031   7.329   1.507
 1393WAT     H1 4421   0.119   7.301   1.544
 1393WAT     H2 4422   0.001   7.413   1.552
 1394WAT      O 4423   8.272   5.807   3.908
 1394WAT     H1 4424   8.257   5.746   3.830
 1394WAT     H2 4425   8.349   5.868   3.888
 1395WAT      O 4426   9.111   2.340   6.126
 1395WAT     H1 4427   9.139   2.372   6.216
 1395WAT     H2 4428   9.085   2.418   6.069
 1396WAT      O 4429   2.985   1.970   0.503
 1396WAT     H1 4430   2.955   2.058   0.468
 1396WAT     H2 4431   2.915   1.901   0.483
 1397WAT      O 4432   3.175   4.940   1.297
 1397WAT     H1 4433   3.164   5.003   1.220
 1397WAT     H2 4434   3.086   4.921   1.338
 1398WAT      O 4435   0.312   2.877   8.243
 1398WAT     H1 4436   0.407   2.888   8.213
 1398WAT     H2 4437   0.294   2.780   8.259
 1399WAT      O 4438   2.971   6.469   5.577
 1399WAT     H1 4439   2.998   6.377   5.606
 1399WAT     H2 4440   2.971   6.473   5.477
 1400WAT      O 4441   6.385   4.541   8.315
 1400WAT     H1 4442   6.351   4.583   8.399
 1400WAT     H2 4443   6.336   4.578   8.236
 1401WAT      O 4444   6.265   4.805   0.173
 1401WAT     H1 4445   6.193   4.765   0.117
 1401WAT     H2 4446   6.315   4.873   0.119
 1402WAT      O 4447   6.139   0.043   6.608
 1402WAT     H1 4448   6.199   0.120   6.631
 1402WAT     H2 4449   6.145   0.024   6.510
 1403WAT      O 4450   5.894   6.568   1.532
 1403WAT     H1 4451   5.954   6.499   1.490
 1403WAT     H2 4452   5.831   6.522   1.596
 1404WAT      O 4453   8.058   2.019   9.467
 1404WAT     H1 4454   8.032   1.960   9.391
 1404WAT     H2 4455   7.976   2.059   9.508
 1405WAT      O 4456   7.775   1.270   6.571
 1405WAT     H1 4457   7.808   1.353   6.615
 1405WAT     H2 4458   7.811   1.265   6.478
 1406WAT      O 4459   6.608   1.756   4.368
 1406WAT     H1 4460   6.703   1.777   4.390
 1406WAT     H2 4461   6.578   1.813   4.291
 1407WAT      O 4462   2.106   3.645   1.868
 1407WAT     H1 4463   2.142   3.557   1.836
 1407WAT     H2 4464   2.013   3.632   1.903
 1408WAT      O 4465   7.942   4.620   7.080
 1408WAT     H1 4466   7.894   4.630   6.993
 1408WAT     H2 4467   7.880   4.642   7.155
 1409WAT      O 4468   1.649   1.522   3.218
 1409WAT     H1 4469   1.658   1.620   3.233
 1409WAT     H2 4470   1.697   1.472   3.290
 1410WAT      O 4471   2.605   4.872   4.611
 1410WAT     H1 4472   2.526   4.929   4.585
 1410WAT     H2 4473   2.678   4.930   4.645
 1411WAT      O 4474   8.645   3.787   9.027
 1411WAT     H1 4475   8.703   3.842   9.087
 1411WAT     H2 4476   8.636   3.694   9.064
 1412WAT      O 4477   5.572   2.555   9.680
 1412WAT     H1 4478   5.507   2.482   9.701
 1412WAT     H2 4479   5.565   2.580   9.584
 1413WAT      O 4480   2.903   0.899   4.715
 1413WAT     H1 4481   2.819   0.953   4.707
 1413WAT     H2 4482   2.978   0.948   4.670
 1414WAT      O 4483   9.774   3.776   9.590
 1414WAT     H1 4484   9.748   3.837   9.666
 1414WAT     H2 4485   9.841   3.709   9.622
 1415WAT      O 4486   6.482   2.530   4.132
 1415WAT     H1 4487   6.504   2.545   4.229
 1415WAT     H2 4488   6.555   2.568   4.075
 1416WAT      O 4489   2.359   8.469   6.419
 1416WAT     H1 4490   2.452   8.493   6.446
 1416WAT     H2 4491   2.360   8.435   6.325
 1417WAT      O 4492   9.776   3.672   0.068
 1417WAT     H1 4493   9.834   3.640  -0.007
 1417WAT     H2 4494   9.809   3.761   0.100
 1418WAT      O 4495   7.119   6.162   4.939
 1418WAT     H1 4496   7.179   6.193   4.865
 1418WAT     H2 4497   7.161   6.086   4.988
 1419WAT      O 4498   8.753   6.318   7.935
 1419WAT     H1 4499   8.831   6.289   7.990
 1419WAT     H2 4500   8.780   6.325   7.839
 1420WAT      O 4501   8.998   9.204   5.376
 1420WAT     H1 4502   8.924   9.194   5.311
 1420WAT     H2 4503   9.059   9.125   5.371
 1421WAT      O 4504   9.376   7.269   0.434
 1421WAT     H1 4505   9.459   7.265   0.378
 1421WAT     H2 4506   9.355   7.365   0.455
 1422WAT      O 4507   9.741   8.789   1.416
 1422WAT     H1 4508   9.680   8.742   1.480
 1422WAT     H2 4509   9.704   8.879   1.394
 1423WAT      O 4510   8.516   3.364   6.796
 1423WAT     H1 4511   8.567   3.374   6.882
 1423WAT     H2 4512   8.496   3.455   6.759
 1424WAT      O 4513   1.405   4.247   9.692
 1424WAT     H1 4514   1.454   4.216   9.611
 1424WAT     H2 4515   1.310   4.270   9.667
 1425WAT      O 4516   6.282   8.129   3.635
 1425WAT     H1 4517   6.224   8.210   3.636
 1425WAT     H2 4518   6.233   8.053   3.678
 1426WAT      O 4519   1.618   3.445   0.621
 1426WAT     H1 4520   1.526   3.471   0.649
 1426WAT     H2 4521   1.674   3.427   0.702
 1427WAT      O 4522   6.525   5.124   0.677
 1427WAT     H1 4523   6.549   5.064   0.601
 1427WAT     H2 4524   6.582   5.206   0.674
 1428WAT      O 4525   5.856   3.273   6.274
 1428WAT     H1 4526   5.895   3.293   6.184
 1428WAT     H2 4527   5.772   3.220   6.262
 1429WAT      O 4528   1.586   6.654   7.153
 1429WAT     H1 4529   1.518   6.581   7.143
 1429WAT     H2 4530   1.549   6.727   7.210
 1430WAT      O 4531   1.343   0.244   7.054
 1430WAT     H1 4532   1.405   0.180   7.100
 1430WAT     H2 4533   1.294   0.298   7.123
 1431WAT      O 4534   0.987   1.132   3.014
 1431WAT     H1 4535   0.889   1.140   3.032
 1431WAT     H2 4536   1.030   1.221   3.029
 1432WAT      O 4537   2.714   9.390   3.113
 1432WAT     H1 4538   2.631   9.416   3.161
 1432WAT     H2 4539   2.703   9.301   3.071
 1433WAT      O 4540   1.102   5.006   0.929
 1433WAT     H1 4541   1.072   5.091   0.972
 1433WAT     H2 4542   1.057   4.995   0.840
 1434WAT      O 4543   7.228   1.996   0.576
 1434WAT     H1 4544   7.230   1.900   0.601
 1434WAT     H2 4545   7.156   2.043   0.629
 1435WAT      O 4546   6.687   5.056   1.665
 1435WAT     H1 4547   6.751   5.025   1.595
 1435WAT     H2 4548   6.736   5.106   1.736
 1436WAT      O 4549   5.813   5.962   3.227
 1436WAT     H1 4550   5.745   5.890   3.218
 1436WAT     H2 4551   5.778   6.047   3.187
 1437WAT      O 4552   0.131   2.576   7.441
 1437WAT     H1 4553   0.183   2.633   7.505
 1437WAT     H2 4554   0.144   2.610   7.348
 1438WAT      O 4555   4.435   5.962   1.019
 1438WAT     H1 4556   4.472   6.041   0.970
 1438WAT     H2 4557   4.374   5.994   1.091
 1439WAT      O 4558   8.908   1.698   9.156
 1439WAT     H1 4559   8.983   1.713   9.091
 1439WAT     H2 4560   8.825   1.675   9.106
 1440WAT      O 4561   4.362   6.187   2.639
 1440WAT     H1 4562   4.362   6.098   2.684
 1440WAT     H2 4563   4.452   6.203   2.598
 1441WAT      O 4564   4.188   2.688   7.657
 1441WAT     H1 4565   4.285   2.712   7.667
 1441WAT     H2 4566   4.159   2.634   7.736
 1442WAT      O 4567   7.312   9.355   6.029
 1442WAT     H1 4568   7.394   9.301   6.008
 1442WAT     H2 4569   7.239   9.331   5.964
 1443WAT      O 4570   3.781   4.169   9.199
 1443WAT     H1 4571   3.739   4.112   9.129
 1443WAT     H2 4572   3.784   4.119   9.286
 1444WAT      O 4573   2.244   2.535   8.261
 1444WAT     H1 4574   2.288   2.590   8.332
 1444WAT     H2 4575   2.245   2.586   8.175
 1445WAT      O 4576   4.423   0.092   9.381
 1445WAT     H1 4577   4.460   0.033   9.309
 1445WAT     H2 4578   4.488   0.167   9.398
 1446WAT      O 4579   9.573   7.846   5.223
 1446WAT     H1 4580   9.667   7.839   5.190
 1446WAT     H2 4581   9.538   7.755   5.245
 1447WAT      O 4582   2.622   1.232   7.225
 1447WAT     H1 4583   2.558   1.164   7.192
 1447WAT     H2 4584   2.680   1.192   7.296
 1448WAT      O 4585   9.278   4.395   7.051
 1448WAT     H1 4586   9.355   4.362   6.997
 1448WAT     H2 4587   9.235   4.473   7.005
 1449WAT      O 4588   0.940   7.239   5.845
 1449WAT     H1 4589   0.953   7.194   5.933
 1449WAT     H2 4590   1.025   7.234   5.792
 1450WAT      O 4591   3.223   8.468   7.078
 1450WAT     H1 4592   3.156   8.479   7.004
 1450WAT     H2 4593   3.217   8.546   7.140
 1451WAT      O 4594   7.675   0.646   1.258
 1451WAT     H1 4595   7.759   0.609   1.218
 1451WAT     H2 4596   7.691   0.667   1.354
 1452WAT      O 4597   6.496   4.213   2.858
 1452WAT     H1 4598   6.571   4.262   2.902
 1452WAT     H2 4599   6.498   4.117   2.886
 1453WAT      O 4600   0.767   8.196   2.250
 1453WAT     H1 4601   0.747   8.162   2.341
 1453WAT     H2 4602   0.797   8.291   2.256
 1454WAT      O 4603   4.885   0.866   9.459
 1454WAT     H1 4604   4.981   0.894   9.461
 1454WAT     H2 4605   4.827   0.947   9.449
 1455WAT      O 4606   1.482   7.264   7.296
 1455WAT     H1 4607   1.546   7.187   7.305
 1455WAT     H2 4608   1.389   7.231   7.310
 1456WAT      O 4609   8.609   6.900   8.560
 1456WAT     H1 4610   8.676   6.905   8.634
 1456WAT     H2 4611   8.579   6.805   8.548
 1457WAT      O 4612   0.087   4.048   7.671
 1457WAT     H1 4613   0.057   4.010   7.583
 1457WAT     H2 4614   0.177   4.089   7.660
 1458WAT      O 4615   4.117   3.073   7.095
 1458WAT     H1 4616   4.211   3.100   7.115
 1458WAT     H2 4617   4.069   3.148   7.051
 1459WAT      O 4618   2.066   8.749   1.464
 1459WAT     H1 4619   2.103   8.783   1.377
 1459WAT     H2 4620   1.994   8.682   1.446
 1460WAT      O 4621   5.035   5.582   3.910
 1460WAT     H1 4622   4.949   5.546   3.874
 1460WAT     H2 4623   5.034   5.681   3.906
 1461WAT      O 4624   3.128   3.331   9.380
 1461WAT     H1 4625   3.057   3.321   9.449
 1461WAT     H2 4626   3.212   3.364   9.423
 1462WAT      O 4627   7.891   4.583   2.879
 1462WAT     H1 4628   7.909   4.539   2.967
 1462WAT     H2 4629   7.793   4.575   2.858
 1463WAT      O 4630   3.734   7.543   7.456
 1463WAT     H1 4631   3.639   7.552   7.486
 1463WAT     H2 4632   3.742   7.466   7.392
 1464WAT      O 4633   9.351   0.831   8.968
 1464WAT     H1 4634   9.377   0.834   8.872
 1464WAT     H2 4635   9.254   0.808   8.976
 1465WAT      O 4636   0.465   0.040   2.932
 1465WAT     H1 4637   0.439   0.030   2.836
 1465WAT     H2 4638   0.555   0.083   2.938
 1466WAT      O 4639   0.008   4.115   3.085
 1466WAT     H1 4640  -0.060   4.148   3.019
 1466WAT     H2 4641   0.072   4.189   3.106
 1467WAT      O 4642   5.881   5.309   3.471
 1467WAT     H1 4643   5.913   5.216   3.455
 1467WAT     H2 4644   5.915   5.342   3.559
 1468WAT      O 4645   6.430   5.881   2.184
 1468WAT     H1 4646   6.479   5.818   2.124
 1468WAT     H2 4647   6.487   5.903   2.263
 1469WAT      O 4648   5.085   6.064   9.826
 1469WAT     H1 4649   5.176   6.104   9.821
 1469WAT     H2 4650   5.022   6.115   9.767
 1470WAT      O 4651   1.567   7.321   9.301
 1470WAT     H1 4652   1.497   7.391   9.315
 1470WAT     H2 4653   1.651   7.364   9.267
 1471WAT      O 4654   5.589   9.128   5.321
 1471WAT     H1 4655   5.530   9.050   5.302
 1471WAT     H2 4656   5.607   9.133   5.419
 1472WAT      O 4657   1.624   2.938   4.369
 1472WAT     H1 4658   1.643   2.857   4.315
 1472WAT     H2 4659   1.588   2.911   4.458
 1473WAT      O 4660   6.633   2.993   2.942
 1473WAT     H1 4661   6.589   3.082   2.953
 1473WAT     H2 4662   6.704   2.982   3.011
 1474WAT      O 4663   2.015   5.392   6.327
 1474WAT     H1 4664   2.108   5.410   6.296
 1474WAT     H2 4665   1.951   5.444   6.271
 1475WAT      O 4666   2.464   2.633   2.865
 1475WAT     H1 4667   2.500   2.599   2.952
 1475WAT     H2 4668   2.386   2.693   2.882
 1476WAT      O 4669   5.757   0.554   9.128
 1476WAT     H1 4670   5.754   0.591   9.035
 1476WAT     H2 4671   5.664   0.533   9.158
 1477WAT      O 4672   3.736   8.630   9.007
 1477WAT     H1 4673   3.694   8.541   8.994
 1477WAT     H2 4674   3.732   8.682   8.921
 1478WAT      O 4675   4.179   4.318   4.994
 1478WAT     H1 4676   4.128   4.351   5.074
 1478WAT     H2 4677   4.267   4.365   4.989
 1479WAT      O 4678   7.367   3.551   1.562
 1479WAT     H1 4679   7.292   3.571   1.624
 1479WAT     H2 4680   7.379   3.627   1.498
 1480WAT      O 4681   1.971   5.461   8.904
 1480WAT     H1 4682   1.882   5.500   8.925
 1480WAT     H2 4683   1.960   5.381   8.845
 1481WAT      O 4684   4.734   9.689   8.118
 1481WAT     H1 4685   4.718   9.599   8.078
 1481WAT     H2 4686   4.825   9.691   8.159
 1482WAT      O 4687   0.728   7.423   8.216
 1482WAT     H1 4688   0.692   7.348   8.271
 1482WAT     H2 4689   0.710   7.510   8.262
 1483WAT      O 4690   6.491   2.706   3.435
 1483WAT     H1 4691   6.586   2.732   3.452
 1483WAT     H2 4692   6.487   2.646   3.355
 1484WAT      O 4693   8.683   4.846   3.177
 1484WAT     H1 4694   8.615   4.774   3.167
 1484WAT     H2 4695   8.771   4.806   3.204
 1485WAT      O 4696   7.587   3.010   8.143
 1485WAT     H1 4697   7.641   2.963   8.073
 1485WAT     H2 4698   7.522   2.946   8.183
 1486WAT      O 4699   7.312   0.807   2.107
 1486WAT     H1 4700   7.275   0.715   2.115
 1486WAT     H2 4701   7.347   0.838   2.195
 1487WAT      O 4702   8.589   4.708   3.829
 1487WAT     H1 4703   8.663   4.764   3.866
 1487WAT     H2 4704   8.541   4.662   3.904
 1488WAT      O 4705   5.872   0.649   1.184
 1488WAT     H1 4706   5.876   0.551   1.164
 1488WAT     H2 4707   5.946   0.674   1.247
 1489WAT      O 4708   7.176   6.672   8.392
 1489WAT     H1 4709   7.195   6.636   8.484
 1489WAT     H2 4710   7.138   6.599   8.335
 1490WAT      O 4711   3.456   8.931   0.137
 1490WAT     H1 4712   3.392   8.917   0.213
 1490WAT     H2 4713   3.449   9.026   0.105
 1491WAT      O 4714   3.077   2.755   9.731
 1491WAT     H1 4715   3.126   2.679   9.689
 1491WAT     H2 4716   3.085   2.836   9.672
 1492WAT      O 4717   7.384   3.468   8.079
 1492WAT     H1 4718   7.411   3.469   7.983
 1492WAT     H2 4719   7.404   3.558   8.120
 1493WAT      O 4720   9.676   2.335   9.720
 1493WAT     H1 4721   9.619   2.390   9.782
 1493WAT     H2 4722   9.636   2.336   9.629
 1494WAT      O 4723   0.650   1.995   0.428
 1494WAT     H1 4724   0.731   1.949   0.392
 1494WAT     H2 4725   0.620   2.066   0.363
 1495WAT      O 4726   2.614   4.564   8.708
 1495WAT     H1 4727   2.633   4.504   8.786
 1495WAT     H2 4728   2.689   4.630   8.699
 1496WAT      O 4729   1.590   7.897   3.387
 1496WAT     H1 4730   1.540   7.811   3.392
 1496WAT     H2 4731   1.664   7.897   3.454
 1497WAT      O 4732   6.404   7.470   3.850
 1497WAT     H1 4733   6.385   7.381   3.892
 1497WAT     H2 4734   6.341   7.538   3.887
 1498WAT      O 4735   0.526   9.309   1.533
 1498WAT     H1 4736   0.443   9.254   1.546
 1498WAT     H2 4737   0.580   9.309   1.616
 1499WAT      O 4738   7.848   6.722   2.711
 1499WAT     H1 4739   7.936   6.770   2.707
 1499WAT     H2 4740   7.858   6.638   2.764
 1500WAT      O 4741   0.323   3.053   5.411
 1500WAT     H1 4742   0.243   3.022   5.359
 1500WAT     H2 4743   0.406   3.027   5.362
 1501WAT      O 4744   1.043   7.632   7.721
 1501WAT     H1 4745   0.952   7.671   7.706
 1501WAT     H2 4746   1.068   7.577   7.642
 1502WAT      O 4747   4.899   8.540   2.442
 1502WAT     H1 4748   4.851   8.530   2.529
 1502WAT     H2 4749   4.924   8.449   2.407
 1503WAT      O 4750   2.721   0.029   3.677
 1503WAT     H1 4751   2.814   0.016   3.643
 1503WAT     H2 4752   2.660   0.053   3.601
 1504WAT      O 4753   1.260   1.394   8.243
 1504WAT     H1 4754   1.279   1.420   8.338
 1504WAT     H2 4755   1.275   1.296   8.232
 1505WAT      O 4756   9.462   6.870   6.762
 1505WAT     H1 4757   9.525   6.870   6.840
 1505WAT     H2 4758   9.452   6.964   6.728
 1506WAT      O 4759   2.219   3.180   2.289
 1506WAT     H1 4760   2.280   3.259   2.298
 1506WAT     H2 4761   2.141   3.191   2.351
 1507WAT      O 4762   7.148   7.545   4.922
 1507WAT     H1 4763   7.171   7.461   4.874
 1507WAT     H2 4764   7.226   7.576   4.976
 1508WAT      O 4765   7.737   2.333   7.051
 1508WAT     H1 4766   7.790   2.411   7.018
 1508WAT     H2 4767   7.732   2.263   6.980
 1509WAT      O 4768   9.836   0.879   4.920
 1509WAT     H1 4769   9.858   0.915   5.011
 1509WAT     H2 4770   9.742   0.904   4.896
 1510WAT      O 4771   8.896   9.609   0.380
 1510WAT     H1 4772   8.958   9.535   0.406
 1510WAT     H2 4773   8.826   9.620   0.450
 1511WAT      O 4774   4.376   0.744   8.236
 1511WAT     H1 4775   4.296   0.692   8.207
 1511WAT     H2 4776   4.409   0.799   8.159
 1512WAT      O 4777   7.476   4.482   1.491
 1512WAT     H1 4778   7.483   4.471   1.591
 1512WAT     H2 4779   7.484   4.579   1.468
 1513WAT      O 4780   7.982   7.329   0.525
 1513WAT     H1 4781   8.009   7.401   0.461
 1513WAT     H2 4782   8.056   7.313   0.591
 1514WAT      O 4783   1.141   0.269   8.897
 1514WAT     H1 4784   1.143   0.221   8.985
 1514WAT     H2 4785   1.140   0.368   8.913
 1515WAT      O 4786   6.156   8.271   2.406
 1515WAT     H1 4787   6.111   8.303   2.323
 1515WAT     H2 4788   6.220   8.342   2.438
 1516WAT      O 4789   6.201   6.645   9.770
 1516WAT     H1 4790   6.184   6.704   9.848
 1516WAT     H2 4791   6.115   6.599   9.743
 1517WAT      O 4792   0.765   1.427   9.269
 1517WAT     H1 4793   0.681   1.482   9.274
 1517WAT     H2 4794   0.838   1.482   9.227
 1518WAT      O 4795   0.731   5.011   7.342
 1518WAT     H1 4796   0.802   4.986   7.277
 1518WAT     H2 4797   0.727   4.942   7.415
 1519WAT      O 4798   9.664   9.833   3.391
 1519WAT     H1 4799   9.653   9.871   3.299
 1519WAT     H2 4800   9.672   9.908   3.457
 1520WAT      O 4801   1.156   8.709   6.223
 1520WAT     H1 4802   1.245   8.671   6.196
 1520WAT     H2 4803   1.103   8.638   6.270
 1521WAT      O 4804   7.300   4.866   5.338
 1521WAT     H1 4805   7.322   4.807   5.415
 1521WAT     H2 4806   7.380   4.923   5.315
 1522WAT      O 4807   2.392   3.058   3.392
 1522WAT     H1 4808   2.384   3.076   3.490
 1522WAT     H2 4809   2.488   3.046   3.368
 1523WAT      O 4810   3.655   0.478   8.951
 1523WAT     H1 4811   3.582   0.413   8.930
 1523WAT     H2 4812   3.743   0.440   8.924
 1524WAT      O 4813   1.706   4.441   8.468
 1524WAT     H1 4814   1.730   4.476   8.558
 1524WAT     H2 4815   1.785   4.395   8.427
 1525WAT      O 4816   7.985   2.654   0.354
 1525WAT     H1 4817   7.926   2.614   0.424
 1525WAT     H2 4818   7.968   2.607   0.267
 1526WAT      O 4819   1.694   7.945   2.444
 1526WAT     H1 4820   1.719   7.983   2.533
 1526WAT     H2 4821   1.608   7.985   2.413
 1527WAT      O 4822   0.763   7.033   5.469
 1527WAT     H1 4823   0.745   6.948   5.420
 1527WAT     H2 4824   0.708   7.106   5.431
 1528WAT      O 4825   8.580   1.118   5.068
 1528WAT     H1 4826   8.631   1.086   5.147
 1528WAT     H2 4827   8.643   1.136   4.992
 1529WAT      O 4828   4.443   8.238   3.025
 1529WAT     H1 4829   4.541   8.235   3.044
 1529WAT     H2 4830   4.396   8.278   3.103
 1530WAT      O 4831   8.125   6.401   1.618
 1530WAT     H1 4832   8.221   6.375   1.624
 1530WAT     H2 4833   8.105   6.433   1.525
 1531WAT      O 4834   2.898   0.073   5.703
 1531WAT     H1 4835   2.918   0.170   5.690
 1531WAT     H2 4836   2.842   0.061   5.785
 1532WAT      O 4837   8.417   5.465   6.027
 1532WAT     H1 4838   8.474   5.385   6.042
 1532WAT     H2 4839   8.473   5.540   5.991
 1533WAT      O 4840   9.351   6.934   1.371
 1533WAT     H1 4841   9.335   7.026   1.405
 1533WAT     H2 4842   9.357   6.935   1.271
 1534WAT      O 4843   1.610   4.976   8.057
 1534WAT     H1 4844   1.607   4.876   8.056
 1534WAT     H2 4845   1.645   5.008   8.145
 1535WAT      O 4846   1.854   5.416   3.196
 1535WAT     H1 4847   1.759   5.441   3.176
 1535WAT     H2 4848   1.868   5.319   3.173
 1536WAT      O 4849   4.872   2.323   0.567
 1536WAT     H1 4850   4.926   2.299   0.486
 1536WAT     H2 4851   4.890   2.419   0.591
 1537WAT      O 4852   3.672   4.010   6.559
 1537WAT     H1 4853   3.636   3.926   6.600
 1537WAT     H2 4854   3.768   3.996   6.535
 1538WAT      O 4855   2.120   3.843   9.348
 1538WAT     H1 4856   2.173   3.846   9.263
 1538WAT     H2 4857   2.171   3.891   9.419
 1539WAT      O 4858   8.855   8.560   4.212
 1539WAT     H1 4859   8.929   8.500   4.181
 1539WAT     H2 4860   8.884   8.608   4.295
 1540WAT      O 4861   5.537   1.111   3.421
 1540WAT     H1 4862   5.574   1.022   3.395
 1540WAT     H2 4863   5.597   1.183   3.386
 1541WAT      O 4864   7.575   4.553   5.380
 1541WAT     H1 4865   7.494   4.502   5.351
 1541WAT     H2 4866   7.654   4.524   5.326
 1542WAT      O 4867   3.478   5.113   2.634
 1542WAT     H1 4868   3.479   5.073   2.542
 1542WAT     H2 4869   3.569   5.149   2.655
 1543WAT      O 4870   2.092   0.136   8.440
 1543WAT     H1 4871   2.088   0.037   8.424
 1543WAT     H2 4872   2.066   0.184   8.357
 1544WAT      O 4873   2.893   4.618   6.941
 1544WAT     H1 4874   2.807   4.573   6.918
 1544WAT     H2 4875   2.962   4.595   6.872
 1545WAT      O 4876   7.478   0.608   7.758
 1545WAT     H1 4877   7.422   0.666   7.699
 1545WAT     H2 4878   7.462   0.512   7.736
 1546WAT      O 4879   8.087   3.596   5.293
 1546WAT     H1 4880   8.025   3.675   5.291
 1546WAT     H2 4881   8.034   3.512   5.307
 1547WAT      O 4882   1.276   0.306   4.134
 1547WAT     H1 4883   1.207   0.247   4.092
 1547WAT     H2 4884   1.330   0.252   4.199
 1548WAT      O 4885   1.710   3.220   8.737
 1548WAT     H1 4886   1.703   3.139   8.679
 1548WAT     H2 4887   1.742   3.298   8.683
 1549WAT      O 4888   3.649   8.348   5.570
 1549WAT     H1 4889   3.596   8.268   5.595
 1549WAT     H2 4890   3.599   8.403   5.503
 1550WAT      O 4891   0.748   0.262   6.777
 1550WAT     H1 4892   0.696   0.307   6.850
 1550WAT     H2 4893   0.686   0.214   6.716
 1551WAT      O 4894   2.965   6.703   2.924
 1551WAT     H1 4895   3.062   6.713   2.945
 1551WAT     H2 4896   2.940   6.606   2.926
 1552WAT      O 4897   1.081   7.151   0.615
 1552WAT     H1 4898   1.127   7.087   0.553
 1552WAT     H2 4899   1.023   7.101   0.678
 1553WAT      O 4900   2.698   8.699   6.333
 1553WAT     H1 4901   2.766   8.633   6.365
 1553WAT     H2 4902   2.672   8.759   6.409
 1554WAT      O 4903   6.389   2.093   3.348
 1554WAT     H1 4904   6.299   2.056   3.326
 1554WAT     H2 4905   6.421   2.149   3.272
 1555WAT      O 4906   9.533   2.518   7.073
 1555WAT     H1 4907   9.563   2.610   7.050
 1555WAT     H2 4908   9.593   2.480   7.144
 1556WAT      O 4909   1.605   6.916   9.417
 1556WAT     H1 4910   1.592   6.849   9.490
 1556WAT     H2 4911   1.686   6.892   9.363
 1557WAT      O 4912   2.845   0.903   1.959
 1557WAT     H1 4913   2.906   0.837   2.004
 1557WAT     H2 4914   2.863   0.995   1.995
 1558WAT      O 4915   3.989   9.410   4.982
 1558WAT     H1 4916   3.916   9.470   5.016
 1558WAT     H2 4917   3.949   9.331   4.936
 1559WAT      O 4918   1.835   2.340   0.613
 1559WAT     H1 4919   1.831   2.303   0.521
 1559WAT     H2 4920   1.803   2.271   0.678
 1560WAT      O 4921   3.862   7.807   6.373
 1560WAT     H1 4922   3.954   7.790   6.406
 1560WAT     H2 4923   3.864   7.824   6.274
 1561WAT      O 4924   8.750   2.109   3.344
 1561WAT     H1 4925   8.823   2.148   3.400
 1561WAT     H2 4926   8.661   2.135   3.383
 1562WAT      O 4927   8.545   5.688   5.937
 1562WAT     H1 4928   8.627   5.716   5.987
 1562WAT     H2 4929   8.464   5.730   5.979
 1563WAT      O 4930   5.391   6.098   6.642
 1563WAT     H1 4931   5.372   6.000   6.647
 1563WAT     H2 4932   5.306   6.149   6.650
 1564WAT      O 4933   0.036   5.944   1.944
 1564WAT     H1 4934   0.021   5.957   1.846
 1564WAT     H2 4935   0.026   6.032   1.991
 1565WAT      O 4936   5.232   4.646   8.221
 1565WAT     H1 4937   5.197   4.731   8.181
 1565WAT     H2 4938   5.179   4.568   8.185
 1566WAT      O 4939   9.834   7.813   0.700
 1566WAT     H1 4940   9.833   7.763   0.787
 1566WAT     H2 4941   9.858   7.750   0.626
 1567WAT      O 4942   1.310   3.268   3.528
 1567WAT     H1 4943   1.255   3.236   3.605
 1567WAT     H2 4944   1.346   3.189   3.478
 1568WAT      O 4945   9.263   2.888   6.704
 1568WAT     H1 4946   9.356   2.887   6.668
 1568WAT     H2 4947   9.244   2.801   6.749
 1569WAT      O 4948   4.278   5.120   9.124
 1569WAT     H1 4949   4.192   5.113   9.175
 1569WAT     H2 4950   4.332   5.037   9.138
 1570WAT      O 4951   3.143   3.440   1.218
 1570WAT     H1 4952   3.159   3.490   1.133
 1570WAT     H2 4953   3.068   3.483   1.268
 1571WAT      O 4954   8.711   9.343   5.351
 1571WAT     H1 4955   8.690   9.326   5.255
 1571WAT     H2 4956   8.653   9.417   5.385
 1572WAT      O 4957   4.028   5.580   1.480
 1572WAT     H1 4958   4.087   5.638   1.424
 1572WAT     H2 4959   4.047   5.484   1.460
 1573WAT      O 4960   5.170   8.197   6.596
 1573WAT     H1 4961   5.115   8.170   6.675
 1573WAT     H2 4962   5.111   8.209   6.516
 1574WAT      O 4963   8.630   1.048   9.189
 1574WAT     H1 4964   8.548   1.033   9.133
 1574WAT     H2 4965   8.670   1.137   9.168
 1575WAT      O 4966   9.650   4.337   8.884
 1575WAT     H1 4967   9.561   4.331   8.839
 1575WAT     H2 4968   9.639   4.382   8.972
 1576WAT      O 4969   6.477   7.046   6.196
 1576WAT     H1 4970   6.491   7.009   6.287
 1576WAT     H2 4971   6.382   7.033   6.168
 1577WAT      O 4972   0.183   1.851   1.420
 1577WAT     H1 4973   0.140   1.861   1.509
 1577WAT     H2 4974   0.242   1.770   1.421
 1578WAT      O 4975   6.548   5.319   7.026
 1578WAT     H1 4976   6.508   5.231   7.050
 1578WAT     H2 4977   6.566   5.371   7.110
 1579WAT      O 4978   9.566   9.684   6.306
 1579WAT     H1 4979   9.632   9.705   6.234
 1579WAT     H2 4980   9.552   9.585   6.310
 1580WAT      O 4981   8.033   7.601   6.700
 1580WAT     H1 4982   8.104   7.649   6.649
 1580WAT     H2 4983   8.005   7.656   6.778
 1581WAT      O 4984   6.826   1.383   4.180
 1581WAT     H1 4985   6.822   1.321   4.259
 1581WAT     H2 4986   6.756   1.453   4.189
 1582WAT      O 4987   6.448   6.430   2.488
 1582WAT     H1 4988   6.528   6.488   2.475
 1582WAT     H2 4989   6.367   6.474   2.450
 1583WAT      O 4990   7.630   9.839   5.823
 1583WAT     H1 4991   7.708   9.776   5.834
 1583WAT     H2 4992   7.567   9.801   5.756
 1584WAT      O 4993   8.071   1.576   1.383
 1584WAT     H1 4994   8.126   1.540   1.307
 1584WAT     H2 4995   7.974   1.574   1.358
 1585WAT      O 4996   9.512   1.706   7.561
 1585WAT     H1 4997   9.448   1.760   7.506
 1585WAT     H2 4998   9.464   1.628   7.601
 1586WAT      O 4999   9.302   1.118   3.185
 1586WAT     H1 5000   9.343   1.202   3.149
 1586WAT     H2 5001   9.294   1.125   3.285
 1587WAT      O 5002   8.477   8.679   9.592
 1587WAT     H1 5003   8.507   8.729   9.673
 1587WAT     H2 5004   8.485   8.738   9.511
 1588WAT      O 5005   6.870   4.457   6.021
 1588WAT     H1 5006   6.897   4.502   5.936
 1588WAT     H2 5007   6.942   4.469   6.090
 1589WAT      O 5008   5.757   7.150   1.391
 1589WAT     H1 5009   5.773   7.067   1.337
 1589WAT     H2 5010   5.824   7.154   1.465
 1590WAT      O 5011   3.535   9.503   5.219
 1590WAT     H1 5012   3.582   9.424   5.181
 1590WAT     H2 5013   3.597   9.582   5.219
 1591WAT      O 5014   1.311   1.093   4.713
 1591WAT     H1 5015   1.345   1.069   4.804
 1591WAT     H2 5016   1.227   1.042   4.694
 1592WAT      O 5017   7.890   6.950   5.362
 1592WAT     H1 5018   7.876   6.854   5.339
 1592WAT     H2 5019   7.988   6.970   5.357
 1593WAT      O 5020   6.350   6.736   2.994
 1593WAT     H1 5021   6.410   6.736   2.914
 1593WAT     H2 5022   6.286   6.813   2.988
 1594WAT      O 5023   4.517   8.764   9.280
 1594WAT     H1 5024   4.446   8.738   9.345
 1594WAT     H2 5025   4.577   8.686   9.264
 1595WAT      O 5026   8.019   0.468   3.324
 1595WAT     H1 5027   8.054   0.545   3.377
 1595WAT     H2 5028   8.084   0.393   3.328
 1596WAT      O 5029   6.846   1.672   5.530
 1596WAT     H1 5030   6.834   1.592   5.470
 1596WAT     H2 5031   6.758   1.716   5.545
 1597WAT      O 5032   4.203   8.881   5.896
 1597WAT     H1 5033   4.147   8.808   5.936
 1597WAT     H2 5034   4.151   8.926   5.823
 1598WAT      O 5035   2.772   8.336   5.803
 1598WAT     H1 5036   2.849   8.338   5.739
 1598WAT     H2 5037   2.773   8.419   5.859
 1599WAT      O 5038   1.710   9.309   6.070
 1599WAT     H1 5039   1.614   9.300   6.044
 1599WAT     H2 5040   1.730   9.246   6.145
 1600WAT      O 5041   6.794   3.590   8.329
 1600WAT     H1 5042   6.733   3.572   8.252
 1600WAT     H2 5043   6.807   3.689   8.340
 1601WAT      O 5044   2.976   6.009   9.210
 1601WAT     H1 5045   2.936   5.918   9.224
 1601WAT     H2 5046   2.906   6.079   9.230
 1602WAT      O 5047   4.834   4.822   3.622
 1602WAT     H1 5048   4.765   4.837   3.693
 1602WAT     H2 5049   4.840   4.903   3.563
 1603WAT      O 5050   5.753   3.720   8.822
 1603WAT     H1 5051   5.806   3.661   8.761
 1603WAT     H2 5052   5.759   3.815   8.790
 1604WAT      O 5053   3.249   8.149   2.898
 1604WAT     H1 5054   3.306   8.127   2.978
 1604WAT     H2 5055   3.214   8.243   2.907
 1605WAT      O 5056   4.893   2.929   6.468
 1605WAT     H1 5057   4.951   2.980   6.404
 1605WAT     H2 5058   4.902   2.831   6.450
 1606WAT      O 5059   3.500   5.198   3.161
 1606WAT     H1 5060   3.437   5.235   3.230
 1606WAT     H2 5061   3.513   5.266   3.089
 1607WAT      O 5062   9.391   6.597   7.846
 1607WAT     H1 5063   9.451   6.672   7.818
 1607WAT     H2 5064   9.395   6.524   7.778
 1608WAT      O 5065   4.656   6.770   9.203
 1608WAT     H1 5066   4.717   6.691   9.207
 1608WAT     H2 5067   4.673   6.828   9.282
 1609WAT      O 5068   4.585   8.682   7.361
 1609WAT     H1 5069   4.532   8.627   7.296
 1609WAT     H2 5070   4.541   8.679   7.451
 1610WAT      O 5071   9.173   7.887   1.295
 1610WAT     H1 5072   9.259   7.845   1.323
 1610WAT     H2 5073   9.170   7.894   1.195
 1611WAT      O 5074   1.931   6.559   5.866
 1611WAT     H1 5075   1.946   6.635   5.803
 1611WAT     H2 5076   1.884   6.485   5.818
 1612WAT      O 5077   1.654   9.348   0.013
 1612WAT     H1 5078   1.734   9.383   0.061
 1612WAT     H2 5079   1.597   9.296   0.077
 1613WAT      O 5080   0.055   6.076   6.625
 1613WAT     H1 5081   0.051   6.149   6.557
 1613WAT     H2 5082   0.088   5.992   6.583
 1614WAT      O 5083   5.570   3.322   9.194
 1614WAT     H1 5084   5.582   3.318   9.095
 1614WAT     H2 5085   5.597   3.413   9.227
 1615WAT      O 5086   7.331   0.059   4.815
 1615WAT     H1 5087   7.263   0.076   4.743
 1615WAT     H2 5088   7.289   0.010   4.891
 1616WAT      O 5089   2.355   3.432   9.518
 1616WAT     H1 5090   2.325   3.362   9.452
 1616WAT     H2 5091   2.341   3.399   9.611
 1617WAT      O 5092   1.343   7.023   5.446
 1617WAT     H1 5093   1.243   7.024   5.452
 1617WAT     H2 5094   1.376   7.112   5.415
 1618WAT      O 5095   0.488   8.106   6.049
 1618WAT     H1 5096   0.451   8.031   5.993
 1618WAT     H2 5097   0.577   8.133   6.013
 1619WAT      O 5098   9.627   6.831   4.911
 1619WAT     H1 5099   9.529   6.813   4.915
 1619WAT     H2 5100   9.658   6.822   4.816
 1620WAT      O 5101   4.399   6.631   7.270
 1620WAT     H1 5102   4.308   6.609   7.235
 1620WAT     H2 5103   4.425   6.563   7.339
 1621WAT      O 5104   2.978   7.938   7.506
 1621WAT     H1 5105   3.042   7.861   7.503
 1621WAT     H2 5106   2.938   7.944   7.598
 1622WAT      O 5107   9.082   1.269   3.018
 1622WAT     H1 5108   9.174   1.299   3.044
 1622WAT     H2 5109   9.085   1.230   2.926
 1623WAT      O 5110   2.058   3.191   3.502
 1623WAT     H1 5111   1.977   3.247   3.519
 1623WAT     H2 5112   2.043   3.099   3.539
 1624WAT      O 5113   2.812   1.151   7.411
 1624WAT     H1 5114   2.779   1.141   7.505
 1624WAT     H2 5115   2.910   1.133   7.408
 1625WAT      O 5116   3.136   6.991   1.236
 1625WAT     H1 5117   3.193   6.953   1.309
 1625WAT     H2 5118   3.042   6.961   1.248
 1626WAT      O 5119   9.227   2.577   0.533
 1626WAT     H1 5120   9.128   2.568   0.523
 1626WAT     H2 5121   9.272   2.545   0.449
 1627WAT      O 5122   3.645   4.532   8.777
 1627WAT     H1 5123   3.720   4.597   8.764
 1627WAT     H2 5124   3.645   4.466   8.702
 1628WAT      O 5125   2.433   7.346   2.014
 1628WAT     H1 5126   2.496   7.413   1.975
 1628WAT     H2 5127   2.445   7.258   1.967
 1629WAT      O 5128   4.843   5.129   3.180
 1629WAT     H1 5129   4.835   5.145   3.081
 1629WAT     H2 5130   4.939   5.116   3.203
 1630WAT      O 5131   9.179   5.030   7.334
 1630WAT     H1 5132   9.081   5.008   7.341
 1630WAT     H2 5133   9.231   4.946   7.316
 1631WAT      O 5134   9.608   3.148   8.593
 1631WAT     H1 5135   9.598   3.054   8.561
 1631WAT     H2 5136   9.551   3.162   8.675
 1632WAT      O 5137   9.079   7.032   3.246
 1632WAT     H1 5138   9.143   7.106   3.226
 1632WAT     H2 5139   9.099   6.995   3.337
 1633WAT      O 5140   0.061   3.636   2.123
 1633WAT     H1 5141  -0.029   3.632   2.080
 1633WAT     H2 5142   0.090   3.543   2.148
 1634WAT      O 5143   5.717   0.542   6.167
 1634WAT     H1 5144   5.773   0.609   6.118
 1634WAT     H2 5145   5.623   0.546   6.132
 1635WAT      O 5146   7.669   7.478   7.937
 1635WAT     H1 5147   7.669   7.403   8.003
 1635WAT     H2 5148   7.609   7.455   7.860
 1636WAT      O 5149   6.104   1.926   5.938
 1636WAT     H1 5150   6.075   2.015   5.973
 1636WAT     H2 5151   6.103   1.927   5.838
 1637WAT      O 5152   8.944   5.766   3.339
 1637WAT     H1 5153   8.995   5.713   3.271
 1637WAT     H2 5154   8.848   5.738   3.337
 1638WAT      O 5155   7.179   1.107   8.003
 1638WAT     H1 5156   7.192   1.112   7.904
 1638WAT     H2 5157   7.264   1.130   8.050
 1639WAT      O 5158   9.417   3.881   7.187
 1639WAT     H1 5159   9.396   3.837   7.274
 1639WAT     H2 5160   9.333   3.889   7.133
 1640WAT      O 5161   0.241   1.205   4.996
 1640WAT     H1 5162   0.165   1.265   4.974
 1640WAT     H2 5163   0.318   1.224   4.934
 1641WAT      O 5164   7.666   3.229   1.910
 1641WAT     H1 5165   7.578   3.273   1.894
 1641WAT     H2 5166   7.722   3.235   1.827
 1642WAT      O 5167   3.920   0.565   8.572
 1642WAT     H1 5168   3.970   0.553   8.658
 1642WAT     H2 5169   3.831   0.520   8.578
 1643WAT      O 5170   8.542   2.951   0.636
 1643WAT     H1 5171   8.541   3.034   0.580
 1643WAT     H2 5172   8.635   2.935   0.670
 1644WAT      O 5173   8.629   6.634   2.449
 1644WAT     H1 5174   8.630   6.659   2.546
 1644WAT     H2 5175   8.695   6.560   2.433
 1645WAT      O 5176   6.832   9.255   6.616
 1645WAT     H1 5177   6.868   9.270   6.524
 1645WAT     H2 5178   6.908   9.244   6.680
 1646WAT      O 5179   3.058   9.400   1.533
 1646WAT     H1 5180   3.122   9.406   1.456
 1646WAT     H2 5181   3.105   9.423   1.618
 1647WAT      O 5182   1.449   1.546   9.545
 1647WAT     H1 5183   1.505   1.544   9.628
 1647WAT     H2 5184   1.489   1.484   9.477
 1648WAT      O 5185   4.675   6.577   1.814
 1648WAT     H1 5186   4.743   6.650   1.815
 1648WAT     H2 5187   4.690   6.520   1.733
 1649WAT      O 5188   6.596   2.918   9.279
 1649WAT     H1 5189   6.551   2.835   9.311
 1649WAT     H2 5190   6.630   2.970   9.358
 1650WAT      O 5191   0.061   9.459   1.349
 1650WAT     H1 5192   0.023   9.440   1.258
 1650WAT     H2 5193   0.144   9.514   1.339
 1651WAT      O 5194   4.161   6.194   8.532
 1651WAT     H1 5195   4.114   6.207   8.619
 1651WAT     H2 5196   4.218   6.275   8.513
 1652WAT      O 5197   3.848   2.616   0.267
 1652WAT     H1 5198   3.842   2.605   0.168
 1652WAT     H2 5199   3.839   2.527   0.311
 1653WAT      O 5200   8.783   8.299   1.159
 1653WAT     H1 5201   8.756   8.255   1.073
 1653WAT     H2 5202   8.814   8.229   1.224
 1654WAT      O 5203   7.184   0.588   6.852
 1654WAT     H1 5204   7.128   0.652   6.904
 1654WAT     H2 5205   7.245   0.539   6.914
 1655WAT      O 5206   0.613   3.943   6.046
 1655WAT     H1 5207   0.634   4.015   5.980
 1655WAT     H2 5208   0.534   3.891   6.015
 1656WAT      O 5209   6.500   9.069   8.528
 1656WAT     H1 5210   6.526   9.075   8.625
 1656WAT     H2 5211   6.498   8.973   8.500
 1657WAT      O 5212   3.977   6.992   0.092
 1657WAT     H1 5213   3.986   7.064   0.161
 1657WAT     H2 5214   4.037   6.916   0.116
 1658WAT      O 5215   5.171   5.011   3.509
 1658WAT     H1 5216   5.175   5.045   3.603
 1658WAT     H2 5217   5.221   5.073   3.449
 1659WAT      O 5218   7.049   8.900   1.238
 1659WAT     H1 5219   7.117   8.972   1.220
 1659WAT     H2 5220   6.995   8.926   1.318
 1660WAT      O 5221   6.632   6.274   3.022
 1660WAT     H1 5222   6.591   6.278   2.931
 1660WAT     H2 5223   6.673   6.363   3.044
 1661WAT      O 5224   0.252   1.731   9.718
 1661WAT     H1 5225   0.303   1.785   9.650
 1661WAT     H2 5226   0.155   1.757   9.716
 1662WAT      O 5227   3.854   4.292   2.205
 1662WAT     H1 5228   3.772   4.347   2.223
 1662WAT     H2 5229   3.839   4.200   2.242
 1663WAT      O 5230   7.911   9.491   7.934
 1663WAT     H1 5231   7.872   9.512   7.844
 1663WAT     H2 5232   7.842   9.503   8.004
 1664WAT      O 5233   0.900   4.948   9.515
 1664WAT     H1 5234   0.817   4.901   9.484
 1664WAT     H2 5235   0.978   4.887   9.507
 1665WAT      O 5236   8.423   5.317   4.155
 1665WAT     H1 5237   8.403   5.223   4.126
 1665WAT     H2 5238   8.508   5.348   4.112
 1666WAT      O 5239   6.155   3.932   9.432
 1666WAT     H1 5240   6.085   3.936   9.360
 1666WAT     H2 5241   6.193   3.840   9.437
 1667WAT      O 5242   8.156   6.423   5.424
 1667WAT     H1 5243   8.094   6.348   5.446
 1667WAT     H2 5244   8.137   6.501   5.484
 1668WAT      O 5245   7.072   7.721   6.463
 1668WAT     H1 5246   7.153   7.679   6.503
 1668WAT     H2 5247   7.060   7.688   6.369
 1669WAT      O 5248   7.209   8.694   0.332
 1669WAT     H1 5249   7.250   8.654   0.414
 1669WAT     H2 5250   7.175   8.786   0.354
 1670WAT      O 5251   4.235   0.094   2.419
 1670WAT     H1 5252   4.319   0.047   2.391
 1670WAT     H2 5253   4.157   0.056   2.368
 1671WAT      O 5254   1.220   2.693   1.695
 1671WAT     H1 5255   1.254   2.736   1.778
 1671WAT     H2 5256   1.121   2.708   1.687
 1672WAT      O 5257   2.952   8.218   7.466
 1672WAT     H1 5258   2.934   8.238   7.562
 1672WAT     H2 5259   2.951   8.119   7.452
 1673WAT      O 5260   8.761   9.212   1.147
 1673WAT     H1 5261   8.779   9.194   1.244
 1673WAT     H2 5262   8.682   9.158   1.117
 1674WAT      O 5263   0.920   9.297   1.918
 1674WAT     H1 5264   0.888   9.391   1.913
 1674WAT     H2 5265   0.943   9.264   1.826
 1675WAT      O 5266   7.360   8.137   6.334
 1675WAT     H1 5267   7.278   8.098   6.375
 1675WAT     H2 5268   7.429   8.065   6.323
 1676WAT      O 5269   5.917   2.924   3.727
 1676WAT     H1 5270   5.976   3.005   3.723
 1676WAT     H2 5271   5.960   2.848   3.678
 1677WAT      O 5272   6.947   8.288   7.734
 1677WAT     H1 5273   7.033   8.324   7.697
 1677WAT     H2 5274   6.966   8.214   7.797
 1678WAT      O 5275   2.157   9.116   5.268
 1678WAT     H1 5276   2.201   9.153   5.186
 1678WAT     H2 5277   2.086   9.180   5.300
 1679WAT      O 5278   4.563   3.333   9.798
 1679WAT     H1 5279   4.651   3.360   9.758
 1679WAT     H2 5280   4.569   3.339   9.898
 1680WAT      O 5281   2.716   5.166   1.504
 1680WAT     H1 5282   2.803   5.214   1.507
 1680WAT     H2 5283   2.681   5.166   1.410
 1681WAT      O 5284   1.722   1.026   0.937
 1681WAT     H1 5285   1.667   1.017   1.020
 1681WAT     H2 5286   1.747   0.935   0.904
 1682WAT      O 5287   4.878   9.056   2.641
 1682WAT     H1 5288   4.791   9.053   2.691
 1682WAT     H2 5289   4.952   9.028   2.702
 1683WAT      O 5290   8.840   1.222   1.074
 1683WAT     H1 5291   8.824   1.217   1.172
 1683WAT     H2 5292   8.823   1.316   1.042
 1684WAT      O 5293   6.011   8.465   7.228
 1684WAT     H1 5294   6.013   8.367   7.246
 1684WAT     H2 5295   6.065   8.513   7.297
 1685WAT      O 5296   9.866   8.531   6.031
 1685WAT     H1 5297   9.782   8.510   5.981
 1685WAT     H2 5298   9.907   8.614   5.994
 1686WAT      O 5299   6.638   2.352   2.164
 1686WAT     H1 5300   6.647   2.252   2.167
 1686WAT     H2 5301   6.704   2.390   2.100
 1687WAT      O 5302   4.619   3.071   3.903
 1687WAT     H1 5303   4.699   3.086   3.845
 1687WAT     H2 5304   4.603   3.152   3.959
 1688WAT      O 5305   4.570   8.932   7.282
 1688WAT     H1 5306   4.501   8.952   7.212
 1688WAT     H2 5307   4.562   8.837   7.310
 1689WAT      O 5308   9.184   4.510   7.843
 1689WAT     H1 5309   9.120   4.511   7.766
 1689WAT     H2 5310   9.225   4.601   7.854
 1690WAT      O 5311   2.053   5.029   2.851
 1690WAT     H1 5312   1.961   5.028   2.812
 1690WAT     H2 5313   2.055   5.089   2.931
 1691WAT      O 5314   8.289   6.336   3.718
 1691WAT     H1 5315   8.367   6.298   3.669
 1691WAT     H2 5316   8.263   6.424   3.678
 1692WAT      O 5317   1.906   8.100   6.032
 1692WAT     H1 5318   1.959   8.075   5.950
 1692WAT     H2 5319   1.954   8.172   6.082
 1693WAT      O 5320   5.128   8.657   8.940
 1693WAT     H1 5321   5.193   8.589   8.907
 1693WAT     H2 5322   5.070   8.617   9.011
 1694WAT      O 5323   9.492   1.053   9.884
 1694WAT     H1 5324   9.504   0.957   9.908
 1694WAT     H2 5325   9.396   1.079   9.896
 1695WAT      O 5326   2.376   7.099   7.520
 1695WAT     H1 5327   2.365   7.115   7.422
 1695WAT     H2 5328   2.288   7.073   7.560
 1696WAT      O 5329   3.836   8.581   5.242
 1696WAT     H1 5330   3.843   8.533   5.155
 1696WAT     H2 5331   3.902   8.543   5.307
 1697WAT      O 5332   5.090   6.649   6.567
 1697WAT     H1 5333   5.097   6.560   6.613
 1697WAT     H2 5334   5.057   6.717   6.633
 1698WAT      O 5335   3.465   7.622   7.461
 1698WAT     H1 5336   3.430   7.634   7.368
 1698WAT     H2 5337   3.402   7.564   7.513
 1699WAT      O 5338   2.260   8.849   7.813
 1699WAT     H1 5339   2.168   8.871   7.782
 1699WAT     H2 5340   2.317   8.931   7.811
 1700WAT      O 5341   4.452   6.999   7.618
 1700WAT     H1 5342   4.482   6.932   7.686
 1700WAT     H2 5343   4.494   7.088   7.640
 1701WAT      O 5344   3.735   1.861   6.636
 1701WAT     H1 5345   3.652   1.918   6.634
 1701WAT     H2 5346   3.739   1.806   6.553
 1702WAT      O 5347   9.866   2.245   5.292
 1702WAT     H1 5348   9.843   2.167   5.233
 1702WAT     H2 5349   9.795   2.314   5.284
 1703WAT      O 5350   6.699   9.598   7.023
 1703WAT     H1 5351   6.700   9.589   6.923
 1703WAT     H2 5352   6.750   9.680   7.049
 1704WAT      O 5353   1.745   6.375   7.432
 1704WAT     H1 5354   1.764   6.443   7.361
 1704WAT     H2 5355   1.782   6.406   7.519
 1705WAT      O 5356   5.731   8.140   4.071
 1705WAT     H1 5357   5.805   8.148   4.004
 1705WAT     H2 5358   5.686   8.228   4.082
 1706WAT      O 5359   1.699   9.535   5.101
 1706WAT     H1 5360   1.664   9.614   5.050
 1706WAT     H2 5361   1.776   9.564   5.158
 1707WAT      O 5362   8.144   8.515   4.034
 1707WAT     H1 5363   8.145   8.604   3.988
 1707WAT     H2 5364   8.074   8.457   3.993
 1708WAT      O 5365   7.691   1.800   7.887
 1708WAT     H1 5366   7.709   1.744   7.807
 1708WAT     H2 5367   7.655   1.889   7.858
 1709WAT      O 5368   5.088   5.702   8.833
 1709WAT     H1 5369   5.114   5.608   8.814
 1709WAT     H2 5370   5.004   5.724   8.784
 1710WAT      O 5371   1.443   2.594   4.607
 1710WAT     H1 5372   1.391   2.610   4.691
 1710WAT     H2 5373   1.380   2.574   4.532
 1711WAT      O 5374   7.132   0.105   7.697
 1711WAT     H1 5375   7.110   0.075   7.790
 1711WAT     H2 5376   7.079   0.187   7.674
 1712WAT      O 5377   4.865   4.795   7.995
 1712WAT     H1 5378   4.964   4.809   7.988
 1712WAT     H2 5379   4.845   4.736   8.073
 1713WAT      O 5380   4.619   3.315   8.366
 1713WAT     H1 5381   4.579   3.229   8.335
 1713WAT     H2 5382   4.555   3.390   8.351
 1714WAT      O 5383   5.092   1.125   4.412
 1714WAT     H1 5384   5.119   1.171   4.497
 1714WAT     H2 5385   5.006   1.163   4.378
 1715WAT      O 5386   9.882   9.467   5.624
 1715WAT     H1 5387   9.947   9.537   5.595
 1715WAT     H2 5388   9.789   9.499   5.605
 1716WAT      O 5389   7.889   2.192   7.764
 1716WAT     H1 5390   7.887   2.291   7.778
 1716WAT     H2 5391   7.796   2.159   7.747
 1717WAT      O 5392   0.785   2.382   1.638
 1717WAT     H1 5393   0.686   2.373   1.642
 1717WAT     H2 5394   0.821   2.403   1.728
 1718WAT      O 5395   2.891   5.662   3.553
 1718WAT     H1 5396   2.958   5.607   3.602
 1718WAT     H2 5397   2.799   5.635   3.580
 1719WAT      O 5398   4.992   8.079   4.684
 1719WAT     H1 5399   4.997   8.040   4.592
 1719WAT     H2 5400   5.042   8.020   4.748
 1720WAT      O 5401   6.076   7.045   3.143
 1720WAT     H1 5402   6.019   6.968   3.113
 1720WAT     H2 5403   6.119   7.023   3.230
 1721WAT      O 5404   2.473   8.348   3.186
 1721WAT     H1 5405   2.503   8.388   3.099
 1721WAT     H2 5406   2.485   8.415   3.259
 1722WAT      O 5407   1.257   3.376   4.894
 1722WAT     H1 5408   1.355   3.363   4.881
 1722WAT     H2 5409   1.242   3.429   4.978
 1723WAT      O 5410   7.458   1.949   9.038
 1723WAT     H1 5411   7.380   1.987   9.087
 1723WAT     H2 5412   7.428   1.871   8.983
 1724WAT      O 5413   3.160   3.204   2.891
 1724WAT     H1 5414   3.078   3.231   2.840
 1724WAT     H2 5415   3.241   3.228   2.837
 1725WAT      O 5416   9.524   0.054   6.496
 1725WAT     H1 5417   9.568   0.139   6.525
 1725WAT     H2 5418   9.573   0.016   6.418
 1726WAT      O 5419   7.554   5.557   9.520
 1726WAT     H1 5420   7.646   5.564   9.557
 1726WAT     H2 5421   7.545   5.615   9.439
 1727WAT      O 5422   6.327   0.099   3.967
 1727WAT     H1 5423   6.408   0.053   3.930
 1727WAT     H2 5424   6.316   0.074   4.063
 1728WAT      O 5425   1.179   1.544   1.025
 1728WAT     H1 5426   1.157   1.641   1.019
 1728WAT     H2 5427   1.272   1.533   1.062
 1729WAT      O 5428   3.029   1.904   6.815
 1729WAT     H1 5429   2.949   1.931   6.761
 1729WAT     H2 5430   3.014   1.813   6.854
 1730WAT      O 5431   9.848   9.096   2.352
 1730WAT     H1 5432   9.767   9.099   2.294
 1730WAT     H2 5433   9.874   9.189   2.378
 1731WAT      O 5434   7.773   1.075   1.351
 1731WAT     H1 5435   7.805   1.037   1.264
 1731WAT     H2 5436   7.815   1.164   1.367
 1732WAT      O 5437   1.391   1.124   9.093
 1732WAT     H1 5438   1.453   1.155   9.021
 1732WAT     H2 5439   1.443   1.071   9.161
 1733WAT      O 5440   8.883   2.752   6.674
 1733WAT     H1 5441   8.847   2.795   6.756
 1733WAT     H2 5442   8.975   2.717   6.691
 1734WAT      O 5443   3.889   4.144   4.628
 1734WAT     H1 5444   3.954   4.085   4.675
 1734WAT     H2 5445   3.922   4.162   4.535
 1735WAT      O 5446   9.368   7.854   4.644
 1735WAT     H1 5447   9.386   7.949   4.619
 1735WAT     H2 5448   9.419   7.831   4.727
 1736WAT      O 5449   0.521   2.703   5.208
 1736WAT     H1 5450   0.502   2.626   5.147
 1736WAT     H2 5451   0.611   2.691   5.249
 1737WAT      O 5452   1.661   2.616   6.118
 1737WAT     H1 5453   1.721   2.635   6.040
 1737WAT     H2 5454   1.710   2.638   6.203
 1738WAT      O 5455   2.187   0.514   5.439
 1738WAT     H1 5456   2.143   0.600   5.462
 1738WAT     H2 5457   2.286   0.524   5.446
 1739WAT      O 5458   3.260   5.185   2.951
 1739WAT     H1 5459   3.261   5.249   3.029
 1739WAT     H2 5460   3.266   5.236   2.866
 1740WAT      O 5461   3.043   5.617   8.265
 1740WAT     H1 5462   3.122   5.668   8.232
 1740WAT     H2 5463   3.073   5.552   8.335
 1741WAT      O 5464   4.173   1.426   2.261
 1741WAT     H1 5465   4.097   1.398   2.320
 1741WAT     H2 5466   4.156   1.393   2.168
 1742WAT      O 5467   0.474   4.116   6.512
 1742WAT     H1 5468   0.547   4.181   6.535
 1742WAT     H2 5469   0.448   4.128   6.416
 1743WAT      O 5470   3.112   1.815   2.010
 1743WAT     H1 5471   3.180   1.856   2.072
 1743WAT     H2 5472   3.152   1.800   1.920
 1744WAT      O 5473   4.446   9.666   0.857
 1744WAT     H1 5474   4.466   9.595   0.924
 1744WAT     H2 5475   4.469   9.756   0.895
 1745WAT      O 5476   1.366   1.161   5.662
 1745WAT     H1 5477   1.455   1.180   5.622
 1745WAT     H2 5478   1.311   1.107   5.598
 1746WAT      O 5479   7.506   4.475   6.223
 1746WAT     H1 5480   7.560   4.538   6.280
 1746WAT     H2 5481   7.481   4.521   6.138
 1747WAT      O 5482   2.497   4.136   0.893
 1747WAT     H1 5483   2.466   4.228   0.917
 1747WAT     H2 5484   2.523   4.086   0.976
 1748WAT      O 5485   5.740   7.520   9.303
 1748WAT     H1 5486   5.737   7.432   9.255
 1748WAT     H2 5487   5.704   7.508   9.396
 1749WAT      O 5488   7.317   2.138   5.918
 1749WAT     H1 5489   7.275   2.107   6.003
 1749WAT     H2 5490   7.251   2.192   5.866
 1750WAT      O 5491   2.227   3.993   7.150
 1750WAT     H1 5492   2.283   3.916   7.119
 1750WAT     H2 5493   2.280   4.049   7.213
 1751WAT      O 5494   3.564   4.776   8.956
 1751WAT     H1 5495   3.639   4.752   8.894
 1751WAT     H2 5496   3.518   4.693   8.987
 1752WAT      O 5497   0.820   8.144   7.603
 1752WAT     H1 5498   0.862   8.086   7.533
 1752WAT     H2 5499   0.819   8.094   7.690
 1753WAT      O 5500   7.743   4.758   4.588
 1753WAT     H1 5501   7.685   4.795   4.660
 1753WAT     H2 5502   7.838   4.758   4.619
 1754WAT      O 5503   0.005   3.592   0.557
 1754WAT     H1 5504  -0.033   3.528   0.624
 1754WAT     H2 5505  -0.000   3.552   0.466
 1755WAT      O 5506   6.178   3.508   4.243
 1755WAT     H1 5507   6.112   3.562   4.190
 1755WAT     H2 5508   6.194   3.553   4.330
 1756WAT      O 5509   2.428   5.949   0.268
 1756WAT     H1 5510   2.490   5.872   0.281
 1756WAT     H2 5511   2.481   6.033   0.252
 1757WAT      O 5512   3.983   3.898   1.600
 1757WAT     H1 5513   4.019   3.922   1.691
 1757WAT     H2 5514   3.902   3.841   1.611
 1758WAT      O 5515   2.331   2.352   6.223
 1758WAT     H1 5516   2.337   2.254   6.203
 1758WAT     H2 5517   2.398   2.401   6.167
 1759WAT      O 5518   5.689   7.007   9.244
 1759WAT     H1 5519   5.603   7.042   9.281
 1759WAT     H2 5520   5.671   6.925   9.189
 1760WAT      O 5521   8.718   6.814   6.443
 1760WAT     H1 5522   8.731   6.726   6.398
 1760WAT     H2 5523   8.654   6.804   6.520
 1761WAT      O 5524   0.448   7.695   6.961
 1761WAT     H1 5525   0.490   7.607   6.942
 1761WAT     H2 5526   0.359   7.681   7.003
 1762WAT      O 5527   1.735   0.789   0.804
 1762WAT     H1 5528   1.824   0.777   0.760
 1762WAT     H2 5529   1.686   0.863   0.759
 1763WAT      O 5530   8.118   5.165   8.585
 1763WAT     H1 5531   8.085   5.225   8.512
 1763WAT     H2 5532   8.142   5.075   8.546
 1764WAT      O 5533   3.007   3.111   4.478
 1764WAT     H1 5534   2.959   3.160   4.404
 1764WAT     H2 5535   2.979   3.149   4.566
 1765WAT      O 5536   5.923   1.852   8.903
 1765WAT     H1 5537   5.998   1.904   8.944
 1765WAT     H2 5538   5.952   1.757   8.889
 1766WAT      O 5539   3.108   4.489   7.347
 1766WAT     H1 5540   3.092   4.548   7.268
 1766WAT     H2 5541   3.035   4.421   7.354
 1767WAT      O 5542   2.608   5.783   9.790
 1767WAT     H1 5543   2.643   5.847   9.857
 1767WAT     H2 5544   2.522   5.817   9.752
 1768WAT      O 5545   1.452   3.301   8.773
 1768WAT     H1 5546   1.410   3.320   8.684
 1768WAT     H2 5547   1.543   3.262   8.760
 1769WAT      O 5548   6.605   9.351   0.599
 1769WAT     H1 5549   6.613   9.252   0.612
 1769WAT     H2 5550   6.520   9.371   0.551
 1770WAT      O 5551   0.040   8.425   8.943
 1770WAT     H1 5552   0.136   8.425   8.968
 1770WAT     H2 5553  -0.016   8.399   9.022
 1771WAT      O 5554   5.651   5.295   0.675
 1771WAT     H1 5555   5.660   5.339   0.764
 1771WAT     H2 5556   5.739   5.297   0.628
 1772WAT      O 5557   9.388   7.699   4.130
 1772WAT     H1 5558   9.380   7.708   4.229
 1772WAT     H2 5559   9.328   7.625   4.099
 1773WAT      O 5560   1.708   9.039   9.777
 1773WAT     H1 5561   1.642   9.073   9.844
 1773WAT     H2 5562   1.735   9.113   9.716
 1774WAT      O 5563   4.551   0.225   2.079
 1774WAT     H1 5564   4.590   0.206   2.170
 1774WAT     H2 5565   4.575   0.318   2.052
 1775WAT      O 5566   9.583   7.982   8.054
 1775WAT     H1 5567   9.522   7.969   7.975
 1775WAT     H2 5568   9.668   7.932   8.038
 1776WAT      O 5569   8.175   6.739   1.676
 1776WAT     H1 5570   8.190   6.659   1.733
 1776WAT     H2 5571   8.164   6.820   1.734
 1777WAT      O 5572   2.776   7.330   7.392
 1777WAT     H1 5573   2.703   7.361   7.453
 1777WAT     H2 5574   2.829   7.409   7.361
 1778WAT      O 5575   7.607   0.395   4.755
 1778WAT     H1 5576   7.551   0.477   4.749
 1778WAT     H2 5577   7.572   0.325   4.693
 1779WAT      O 5578   5.624   0.976   1.254
 1779WAT     H1 5579   5.680   0.923   1.190
 1779WAT     H2 5580   5.674   0.990   1.339
 1780WAT      O 5581   0.879   3.109   0.722
 1780WAT     H1 5582   0.824   3.053   0.783
 1780WAT     H2 5583   0.972   3.114   0.756
 1781WAT      O 5584   4.330   4.782   7.334
 1781WAT     H1 5585   4.265   4.827   7.273
 1781WAT     H2 5586   4.415   4.835   7.337
 1782WAT      O 5587   8.605   3.693   3.065
 1782WAT     H1 5588   8.620   3.782   3.022
 1782WAT     H2 5589   8.528   3.700   3.129
 1783WAT      O 5590   6.153   9.591   7.711
 1783WAT     H1 5591   6.187   9.596   7.617
 1783WAT     H2 5592   6.227   9.563   7.771
 1784WAT      O 5593   9.722   6.591   0.319
 1784WAT     H1 5594   9.630   6.625   0.298
 1784WAT     H2 5595   9.759   6.640   0.398
 1785WAT      O 5596   0.226   3.635   8.429
 1785WAT     H1 5597   0.276   3.565   8.481
 1785WAT     H2 5598   0.151   3.670   8.485
 1786WAT      O 5599   7.315   4.257   8.831
 1786WAT     H1 5600   7.295   4.159   8.834
 1786WAT     H2 5601   7.339   4.284   8.738
 1787WAT      O 5602   7.683   7.457   8.994
 1787WAT     H1 5603   7.737   7.471   9.077
 1787WAT     H2 5604   7.691   7.537   8.935
 1788WAT      O 5605   1.260   6.317   4.714
 1788WAT     H1 5606   1.300   6.232   4.748
 1788WAT     H2 5607   1.318   6.394   4.739
 1789WAT      O 5608   8.139   0.573   2.278
 1789WAT     H1 5609   8.140   0.651   2.216
 1789WAT     H2 5610   8.049   0.567   2.323
 1790WAT      O 5611   5.336   0.310   0.241
 1790WAT     H1 5612   5.263   0.354   0.188
 1790WAT     H2 5613   5.335   0.347   0.334
 1791WAT      O 5614   1.836   6.772   9.306
 1791WAT     H1 5615   1.810   6.702   9.373
 1791WAT     H2 5616   1.928   6.805   9.326
 1792WAT      O 5617   0.163   0.858   4.730
 1792WAT     H1 5618   0.159   0.782   4.665
 1792WAT     H2 5619   0.107   0.837   4.809
 1793WAT      O 5620   5.491   5.675   3.508
 1793WAT     H1 5621   5.582   5.660   3.468
 1793WAT     H2 5622   5.450   5.587   3.532
 1794WAT      O 5623   7.576   4.157   7.276
 1794WAT     H1 5624   7.613   4.229   7.218
 1794WAT     H2 5625   7.477   4.166   7.282
 1795WAT      O 5626   0.567   2.011   2.592
 1795WAT     H1 5627   0.555   1.939   2.524
 1795WAT     H2 5628   0.664   2.038   2.595
 1796WAT      O 5629   9.567   6.261   1.665
 1796WAT     H1 5630   9.484   6.296   1.708
 1796WAT     H2 5631   9.597   6.324   1.594
 1797WAT      O 5632   8.522   8.512   6.823
 1797WAT     H1 5633   8.597   8.466   6.871
 1797WAT     H2 5634   8.533   8.500   6.724
 1798WAT      O 5635   4.406   7.140   1.104
 1798WAT     H1 5636   4.411   7.239   1.099
 1798WAT     H2 5637   4.396   7.102   1.011
 1799WAT      O 5638   9.696   5.507   9.461
 1799WAT     H1 5639   9.746   5.536   9.542
 1799WAT     H2 5640   9.696   5.407   9.455
 1800WAT      O 5641   2.154   6.700   8.412
 1800WAT     H1 5642   2.182   6.751   8.494
 1800WAT     H2 5643   2.144   6.603   8.435
 1801WAT      O 5644   8.438   5.177   8.095
 1801WAT     H1 5645   8.520   5.232   8.111
 1801WAT     H2 5646   8.450   5.123   8.012
 1802WAT      O 5647   5.503   4.161   0.454
 1802WAT     H1 5648   5.407   4.172   0.479
 1802WAT     H2 5649   5.509   4.122   0.362
 1803WAT      O 5650   2.123   0.368   5.226
 1803WAT     H1 5651   2.182   0.303   5.178
 1803WAT     H2 5652   2.165   0.394   5.312
 1804WAT      O 5653   3.080   4.684   7.135
 1804WAT     H1 5654   3.016   4.690   7.059
 1804WAT     H2 5655   3.174   4.691   7.100
 1805WAT      O 5656   5.707   0.882   9.083
 1805WAT     H1 5657   5.728   0.851   9.175
 1805WAT     H2 5658   5.785   0.935   9.048
 1806WAT      O 5659   2.420   1.846   4.273
 1806WAT     H1 5660   2.383   1.753   4.267
 1806WAT     H2 5661   2.368   1.897   4.342
 1807WAT      O 5662   6.238   8.332   4.193
 1807WAT     H1 5663   6.230   8.251   4.251
 1807WAT     H2 5664   6.218   8.308   4.099
 1808WAT      O 5665   9.087   2.155   9.614
 1808WAT     H1 5666   9.003   2.118   9.653
 1808WAT     H2 5667   9.136   2.083   9.565
 1809WAT      O 5668   7.877   1.259   3.902
 1809WAT     H1 5669   7.957   1.304   3.862
 1809WAT     H2 5670   7.871   1.165   3.867
 1810WAT      O 5671   3.667   1.312   4.714
 1810WAT     H1 5672   3.690   1.215   4.714
 1810WAT     H2 5673   3.741   1.364   4.672
 1811WAT      O 5674   4.440   3.617   8.070
 1811WAT     H1 5675   4.540   3.610   8.069
 1811WAT     H2 5676   4.405   3.572   8.152
 1812WAT      O 5677   0.496   6.763   8.063
 1812WAT     H1 5678   0.559   6.826   8.018
 1812WAT     H2 5679   0.465   6.804   8.149
 1813WAT      O 5680   6.754   8.631   4.850
 1813WAT     H1 5681   6.792   8.723   4.841
 1813WAT     H2 5682   6.725   8.617   4.945
 1814WAT      O 5683   0.531   5.137   6.284
 1814WAT     H1 5684   0.445   5.178   6.313
 1814WAT     H2 5685   0.534   5.041   6.314
 1815WAT      O 5686   2.762   5.800   4.541
 1815WAT     H1 5687   2.722   5.849   4.618
 1815WAT     H2 5688   2.692   5.742   4.499
 1816WAT      O 5689   8.214   7.662   6.496
 1816WAT     H1 5690   8.275   7.585   6.478
 1816WAT     H2 5691   8.258   7.747   6.467
 1817WAT      O 5692   0.057   8.592   0.491
 1817WAT     H1 5693   0.088   8.643   0.571
 1817WAT     H2 5694   0.041   8.496   0.517
 1818WAT      O 5695   4.388   7.347   9.618
 1818WAT     H1 5696   4.433   7.382   9.701
 1818WAT     H2 5697   4.428   7.391   9.538
 1819WAT      O 5698   0.700   4.208   4.933
 1819WAT     H1 5699   0.658   4.122   4.903
 1819WAT     H2 5700   0.696   4.213   5.033
 1820WAT      O 5701   2.555   0.149   4.061
 1820WAT     H1 5702   2.597   0.119   4.147
 1820WAT     H2 5703   2.625   0.152   3.989
 1821WAT      O 5704   9.078   3.913   0.869
 1821WAT     H1 5705   9.052   3.978   0.799
 1821WAT     H2 5706   9.173   3.929   0.897
 1822WAT      O 5707   9.109   5.244   5.734
 1822WAT     H1 5708   9.047   5.207   5.664
 1822WAT     H2 5709   9.074   5.331   5.768
 1823WAT      O 5710   9.545   5.182   1.592
 1823WAT     H1 5711   9.567   5.199   1.496
 1823WAT     H2 5712   9.630   5.175   1.644
 1824WAT      O 5713   2.962   7.946   6.624
 1824WAT     H1 5714   3.045   7.909   6.581
 1824WAT     H2 5715   2.980   7.964   6.721
 1825WAT      O 5716   3.939   6.672   3.513
 1825WAT     H1 5717   3.923   6.748   3.450
 1825WAT     H2 5718   3.876   6.597   3.491
 1826WAT      O 5719   7.617   5.537   6.333
 1826WAT     H1 5720   7.678   5.541   6.254
 1826WAT     H2 5721   7.538   5.480   6.311
 1827WAT      O 5722   5.476   9.015   7.896
 1827WAT     H1 5723   5.453   9.057   7.808
 1827WAT     H2 5724   5.446   9.075   7.970
 1828WAT      O 5725   4.269   5.155   4.346
 1828WAT     H1 5726   4.210   5.133   4.424
 1828WAT     H2 5727   4.298   5.070   4.301
 1829WAT      O 5728   1.720   7.724   6.771
 1829WAT     H1 5729   1.708   7.637   6.819
 1829WAT     H2 5730   1.745   7.796   6.836
 1830WAT      O 5731   9.406   3.336   6.644
 1830WAT     H1 5732   9.420   3.267   6.573
 1830WAT     H2 5733   9.310   3.334   6.674
 1831WAT      O 5734   2.389   9.431   2.992
 1831WAT     H1 5735   2.368   9.344   2.948
 1831WAT     H2 5736   2.407   9.417   3.089
 1832WAT      O 5737   2.024   6.154   4.729
 1832WAT     H1 5738   2.021   6.245   4.686
 1832WAT     H2 5739   1.936   6.136   4.773
 1833WAT      O 5740   0.556   5.505   7.149
 1833WAT     H1 5741   0.555   5.412   7.185
 1833WAT     H2 5742   0.619   5.561   7.203
 1834WAT      O 5743   7.312   7.079   9.567
 1834WAT     H1 5744   7.306   7.052   9.471
 1834WAT     H2 5745   7.225   7.061   9.613
 1835WAT      O 5746   9.101   9.129   6.454
 1835WAT     H1 5747   9.094   9.045   6.507
 1835WAT     H2 5748   9.077   9.110   6.358
 1836WAT      O 5749   0.444   5.394   0.866
 1836WAT     H1 5750   0.414   5.489   0.860
 1836WAT     H2 5751   0.390   5.345   0.934
 1837WAT      O 5752   2.784   4.265   9.699
 1837WAT     H1 5753   2.817   4.216   9.618
 1837WAT     H2 5754   2.717   4.334   9.671
 1838WAT      O 5755   3.914   4.046   7.651
 1838WAT     H1 5756   3.917   4.023   7.748
 1838WAT     H2 5757   3.907   3.962   7.597
 1839WAT      O 5758   4.648   7.593   8.098
 1839WAT     H1 5759   4.599   7.521   8.048
 1839WAT     H2 5760   4.729   7.620   8.046
 1840WAT      O 5761   2.627   3.303   3.990
 1840WAT     H1 5762   2.589   3.254   4.069
 1840WAT     H2 5763   2.624   3.401   4.007
 1841WAT      O 5764   9.668   8.903   7.965
 1841WAT     H1 5765   9.569   8.913   7.955
 1841WAT     H2 5766   9.710   8.994   7.964
 1842WAT      O 5767   2.703   4.864   0.075
 1842WAT     H1 5768   2.620   4.913   0.102
 1842WAT     H2 5769   2.779   4.893   0.132
 1843WAT      O 5770   0.828   1.572   5.558
 1843WAT     H1 5771   0.892   1.649   5.560
 1843WAT     H2 5772   0.877   1.487   5.539
 1844WAT      O 5773   8.771   1.115   8.478
 1844WAT     H1 5774   8.759   1.119   8.577
 1844WAT     H2 5775   8.681   1.120   8.433
 1845WAT      O 5776   5.374   3.056   8.935
 1845WAT     H1 5777   5.330   3.146   8.941
 1845WAT     H2 5778   5.410   3.043   8.843
 1846WAT      O 5779   0.938   9.681   8.718
 1846WAT     H1 5780   0.857   9.670   8.661
 1846WAT     H2 5781   0.968   9.592   8.751
 1847WAT      O 5782   1.787   8.988   7.154
 1847WAT     H1 5783   1.869   8.933   7.136
 1847WAT     H2 5784   1.804   9.050   7.230
 1848WAT      O 5785   5.535   1.309   2.870
 1848WAT     H1 5786   5.497   1.288   2.780
 1848WAT     H2 5787   5.633   1.324   2.862
 1849WAT      O 5788   1.715   6.372   5.233
 1849WAT     H1 5789   1.775   6.389   5.312
 1849WAT     H2 5790   1.709   6.274   5.216
 1850WAT      O 5791   8.664   4.041   5.278
 1850WAT     H1 5792   8.580   3.988   5.264
 1850WAT     H2 5793   8.708   4.011   5.362
 1851WAT      O 5794   5.205   0.058   2.780
 1851WAT     H1 5795   5.115   0.100   2.796
 1851WAT     H2 5796   5.201  -0.039   2.805
 1852WAT      O 5797   7.188   1.725   8.310
 1852WAT     H1 5798   7.210   1.630   8.287
 1852WAT     H2 5799   7.103   1.751   8.264
 1853WAT      O 5800   1.486   0.642   7.919
 1853WAT     H1 5801   1.409   0.601   7.968
 1853WAT     H2 5802   1.467   0.739   7.902
 1854WAT      O 5803   6.564   3.494   8.155
 1854WAT     H1 5804   6.479   3.446   8.177
 1854WAT     H2 5805   6.544   3.571   8.094
 1855WAT      O 5806   6.121   3.862   5.505
 1855WAT     H1 5807   6.108   3.936   5.570
 1855WAT     H2 5808   6.122   3.899   5.412
 1856WAT      O 5809   8.701   7.511   9.482
 1856WAT     H1 5810   8.646   7.502   9.399
 1856WAT     H2 5811   8.797   7.517   9.458
 1857WAT      O 5812   0.701   0.391   2.530
 1857WAT     H1 5813   0.744   0.442   2.455
 1857WAT     H2 5814   0.639   0.451   2.580
 1858WAT      O 5815   5.239   0.115   8.178
 1858WAT     H1 5816   5.164   0.080   8.235
 1858WAT     H2 5817   5.236   0.215   8.178
 1859WAT      O 5818   2.980   2.441   0.616
 1859WAT     H1 5819   3.013   2.420   0.708
 1859WAT     H2 5820   2.881   2.456   0.618
 1860WAT      O 5821   8.335   2.717   8.111
 1860WAT     H1 5822   8.346   2.796   8.172
 1860WAT     H2 5823   8.246   2.675   8.127
 1861WAT      O 5824   8.032   1.691   6.753
 1861WAT     H1 5825   8.073   1.605   6.723
 1861WAT     H2 5826   7.932   1.682   6.751
 1862WAT      O 5827   8.133   4.279   4.899
 1862WAT     H1 5828   8.142   4.318   4.991
 1862WAT     H2 5829   8.044   4.304   4.861
 1863WAT      O 5830   3.729   6.614   7.676
 1863WAT     H1 5831   3.651   6.663   7.638
 1863WAT     H2 5832   3.722   6.517   7.652
 1864WAT      O 5833   8.507   9.781   9.165
 1864WAT     H1 5834   8.460   9.748   9.247
 1864WAT     H2 5835   8.574   9.851   9.190
 1865WAT      O 5836   5.222   2.101   2.356
 1865WAT     H1 5837   5.255   2.195   2.346
 1865WAT     H2 5838   5.287   2.038   2.314
 1866WAT      O 5839   9.062   5.659   3.570
 1866WAT     H1 5840   9.099   5.747   3.601
 1866WAT     H2 5841   9.003   5.674   3.491
 1867WAT      O 5842   7.682   5.831   3.278
 1867WAT     H1 5843   7.649   5.891   3.206
 1867WAT     H2 5844   7.675   5.877   3.367
 1868WAT      O 5845   8.189   4.443   0.029
 1868WAT     H1 5846   8.162   4.365  -0.028
 1868WAT     H2 5847   8.151   4.527  -0.010
 1869WAT      O 5848   5.008   8.356   1.218
 1869WAT     H1 5849   5.054   8.272   1.248
 1869WAT     H2 5850   4.909   8.345   1.229
 1870WAT      O 5851   6.262   4.448   7.131
 1870WAT     H1 5852   6.164   4.445   7.112
 1870WAT     H2 5853   6.296   4.541   7.115
 1871WAT      O 5854   1.246   3.746   0.620
 1871WAT     H1 5855   1.315   3.756   0.691
 1871WAT     H2 5856   1.189   3.828   0.617
 1872WAT      O 5857   5.442   8.430   1.870
 1872WAT     H1 5858   5.380   8.492   1.919
 1872WAT     H2 5859   5.397   8.343   1.854
 1873WAT      O 5860   0.978   9.011   2.818
 1873WAT     H1 5861   1.036   8.946   2.769
 1873WAT     H2 5862   0.931   9.070   2.753
 1874WAT      O 5863   1.114   4.744   2.437
 1874WAT     H1 5864   1.079   4.818   2.493
 1874WAT     H2 5865   1.210   4.728   2.460
 1875WAT      O 5866   0.585   3.130   9.882
 1875WAT     H1 5867   0.630   3.065   9.942
 1875WAT     H2 5868   0.486   3.111   9.880
 1876WAT      O 5869   1.204   4.958   9.045
 1876WAT     H1 5870   1.204   5.010   8.960
 1876WAT     H2 5871   1.135   4.886   9.040
 1877WAT      O 5872   2.657   2.365   0.499
 1877WAT     H1 5873   2.656   2.440   0.566
 1877WAT     H2 5874   2.620   2.398   0.412
 1878WAT      O 5875   1.378   9.408   0.918
 1878WAT     H1 5876   1.443   9.484   0.921
 1878WAT     H2 5877   1.367   9.370   1.010
 1879WAT      O 5878   6.992   8.388   2.368
 1879WAT     H1 5879   6.976   8.408   2.271
 1879WAT     H2 5880   6.904   8.370   2.413
 1880WAT      O 5881   3.064   3.916   2.111
 1880WAT     H1 5882   3.078   4.003   2.157
 1880WAT     H2 5883   2.975   3.917   2.064
 1881WAT      O 5884   3.645   3.999   2.490
 1881WAT     H1 5885   3.645   4.041   2.581
 1881WAT     H2 5886   3.552   4.000   2.453
 1882WAT      O 5887   8.884   5.504   6.686
 1882WAT     H1 5888   8.838   5.420   6.714
 1882WAT     H2 5889   8.887   5.508   6.586
 1883WAT      O 5890   5.397   5.473   7.260
 1883WAT     H1 5891   5.309   5.474   7.308
 1883WAT     H2 5892   5.392   5.534   7.180
 1884WAT      O 5893   0.604   6.140   8.698
 1884WAT     H1 5894   0.642   6.049   8.713
 1884WAT     H2 5895   0.586   6.153   8.601
 1885WAT      O 5896   5.626   0.117   9.478
 1885WAT     H1 5897   5.649   0.116   9.575
 1885WAT     H2 5898   5.711   0.126   9.424
 1886WAT      O 5899   1.454   3.315   8.070
 1886WAT     H1 5900   1.503   3.359   7.994
 1886WAT     H2 5901   1.498   3.341   8.156
 1887WAT      O 5902   9.511   2.840   1.996
 1887WAT     H1 5903   9.477   2.896   1.921
 1887WAT     H2 5904   9.567   2.766   1.959
 1888WAT      O 5905   6.928   6.382   8.194
 1888WAT     H1 5906   7.027   6.386   8.202
 1888WAT     H2 5907   6.897   6.451   8.129
 1889WAT      O 5908   2.529   8.832   1.325
 1889WAT     H1 5909   2.591   8.864   1.254
 1889WAT     H2 5910   2.437   8.869   1.308
 1890WAT      O 5911   9.476   9.242   9.702
 1890WAT     H1 5912   9.547   9.263   9.634
 1890WAT     H2 5913   9.427   9.159   9.675
 1891WAT      O 5914   7.061   9.165   9.770
 1891WAT     H1 5915   6.986   9.165   9.705
 1891WAT     H2 5916   7.131   9.099   9.742
 1892WAT      O 5917   2.208   4.358   8.248
 1892WAT     H1 5918   2.203   4.406   8.335
 1892WAT     H2 5919   2.205   4.424   8.173
 1893WAT      O 5920   3.245   5.809   2.946
 1893WAT     H1 5921   3.217   5.902   2.967
 1893WAT     H2 5922   3.306   5.775   3.018
 1894WAT      O 5923   6.827   1.525   2.313
 1894WAT     H1 5924   6.919   1.524   2.353
 1894WAT     H2 5925   6.825   1.592   2.238
 1895WAT      O 5926   7.787   7.039   4.385
 1895WAT     H1 5927   7.755   6.950   4.353
 1895WAT     H2 5928   7.788   7.103   4.308
 1896WAT      O 5929   9.647   2.027   7.099
 1896WAT     H1 5930   9.581   2.053   7.170
 1896WAT     H2 5931   9.683   1.936   7.120
 1897WAT      O 5932   7.412   6.317   0.278
 1897WAT     H1 5933   7.380   6.226   0.254
 1897WAT     H2 5934   7.333   6.378   0.290
 1898WAT      O 5935   8.795   7.239   6.506
 1898WAT     H1 5936   8.736   7.309   6.547
 1898WAT     H2 5937   8.752   7.204   6.423
 1899WAT      O 5938   9.311   5.114   8.321
 1899WAT     H1 5939   9.266   5.043   8.266
 1899WAT     H2 5940   9.409   5.095   8.326
 1900WAT      O 5941   5.057   5.637   3.562
 1900WAT     H1 5942   5.072   5.736   3.571
 1900WAT     H2 5943   4.967   5.613   3.600
 1901WAT      O 5944   2.564   6.291   9.597
 1901WAT     H1 5945   2.577   6.353   9.519
 1901WAT     H2 5946   2.472   6.305   9.635
 1902WAT      O 5947   4.888   7.900   1.056
 1902WAT     H1 5948   4.879   7.880   1.154
 1902WAT     H2 5949   4.802   7.938   1.022
 1903WAT      O 5950   0.515   8.203   8.205
 1903WAT     H1 5951   0.586   8.163   8.263
 1903WAT     H2 5952   0.537   8.186   8.109
 1904WAT      O 5953   8.889   0.560   1.878
 1904WAT     H1 5954   8.877   0.539   1.781
 1904WAT     H2 5955   8.845   0.647   1.899
 1905WAT      O 5956   3.759   0.867   3.730
 1905WAT     H1 5957   3.695   0.916   3.789
 1905WAT     H2 5958   3.845   0.852   3.779
 1906WAT      O 5959   1.474   1.705   1.763
 1906WAT     H1 5960   1.557   1.757   1.744
 1906WAT     H2 5961   1.488   1.609   1.737
 1907WAT      O 5962   0.522   6.963   3.089
 1907WAT     H1 5963   0.466   7.040   3.057
 1907WAT     H2 5964   0.516   6.956   3.188
 1908WAT      O 5965   8.375   7.775   6.989
 1908WAT     H1 5966   8.376   7.820   7.079
 1908WAT     H2 5967   8.294   7.804   6.938
 1909WAT      O 5968   6.539   4.578   3.504
 1909WAT     H1 5969   6.514   4.647   3.573
 1909WAT     H2 5970   6.508   4.488   3.534
 1910WAT      O 5971   1.297   1.648   5.329
 1910WAT     H1 5972   1.373   1.710   5.351
 1910WAT     H2 5973   1.224   1.701   5.286
 1911WAT      O 5974   4.755   5.917   3.512
 1911WAT     H1 5975   4.763   5.824   3.548
 1911WAT     H2 5976   4.730   5.913   3.416
 1912WAT      O 5977   3.989   8.762   6.037
 1912WAT     H1 5978   3.911   8.820   6.013
 1912WAT     H2 5979   4.007   8.771   6.135
 1913WAT      O 5980   3.499   5.717   2.694
 1913WAT     H1 5981   3.424   5.768   2.653
 1913WAT     H2 5982   3.547   5.776   2.760
 1914WAT      O 5983   9.869   8.010   2.776
 1914WAT     H1 5984   9.863   8.041   2.681
 1914WAT     H2 5985   9.839   8.083   2.837
 1915WAT      O 5986   6.517   1.498   8.718
 1915WAT     H1 5987   6.608   1.518   8.756
 1915WAT     H2 5988   6.447   1.540   8.775
 1916WAT      O 5989   7.324   6.894   8.961
 1916WAT     H1 5990   7.340   6.985   8.999
 1916WAT     H2 5991   7.405   6.864   8.910
 1917WAT      O 5992   0.817   4.790   3.526
 1917WAT     H1 5993   0.826   4.729   3.447
 1917WAT     H2 5994   0.878   4.759   3.599
 1918WAT      O 5995   9.515   5.577   1.401
 1918WAT     H1 5996   9.489   5.661   1.448
 1918WAT     H2 5997   9.472   5.499   1.447
 1919WAT      O 5998   7.784   0.158   9.291
 1919WAT     H1 5999   7.877   0.124   9.298
 1919WAT     H2 6000   7.779   0.252   9.326
 1920WAT      O 6001   4.655   3.892   8.799
 1920WAT     H1 6002   4.740   3.945   8.796
 1920WAT     H2 6003   4.646   3.840   8.714
 1921WAT      O 6004   2.762   5.566   2.387
 1921WAT     H1 6005   2.812   5.587   2.303
 1921WAT     H2 6006   2.767   5.468   2.406
 1922WAT      O 6007   4.982   2.209   1.635
 1922WAT     H1 6008   4.955   2.113   1.631
 1922WAT     H2 6009   5.080   2.216   1.651
 1923WAT      O 6010   0.587   3.957   4.913
 1923WAT     H1 6011   0.539   3.917   4.990
 1923WAT     H2 6012   0.522   3.980   4.841
 1924WAT      O 6013   3.769   5.902   3.986
 1924WAT     H1 6014   3.740   5.867   3.898
 1924WAT     H2 6015   3.832   5.837   4.029
 1925WAT      O 6016   4.435   7.694   2.125
 1925WAT     H1 6017   4.362   7.653   2.070
 1925WAT     H2 6018   4.460   7.783   2.087
 1926WAT      O 6019   5.196   9.363   7.296
 1926WAT     H1 6020   5.286   9.408   7.300
 1926WAT     H2 6021   5.130   9.415   7.351
 1927WAT      O 6022   6.638   0.136   4.629
 1927WAT     H1 6023   6.713   0.171   4.685
 1927WAT     H2 6024   6.670   0.057   4.577
 1928WAT      O 6025   2.994   2.272   0.430
 1928WAT     H1 6026   2.899   2.242   0.440
 1928WAT     H2 6027   3.014   2.343   0.498
 1929WAT      O 6028   4.418   5.037   8.819
 1929WAT     H1 6029   4.485   5.005   8.886
 1929WAT     H2 6030   4.417   5.137   8.819
 1930WAT      O 6031   1.645   4.127   8.903
 1930WAT     H1 6032   1.621   4.198   8.969
 1930WAT     H2 6033   1.575   4.123   8.832
 1931WAT      O 6034   3.834   7.368   6.963
 1931WAT     H1 6035   3.870   7.303   6.896
 1931WAT     H2 6036   3.907   7.432   6.989
 1932WAT      O 6037   2.256   6.906   4.253
 1932WAT     H1 6038   2.257   6.806   4.255
 1932WAT     H2 6039   2.178   6.939   4.307
 1933WAT      O 6040   4.773   9.163   8.437
 1933WAT     H1 6041   4.824   9.108   8.371
 1933WAT     H2 6042   4.675   9.152   8.420
 1934WAT      O 6043   1.173   3.987   3.418
 1934WAT     H1 6044   1.178   3.964   3.515
 1934WAT     H2 6045   1.236   3.929   3.366
 1935WAT      O 6046   1.388   8.004   1.917
 1935WAT     H1 6047   1.483   8.033   1.923
 1935WAT     H2 6048   1.375   7.923   1.974
 1936WAT      O 6049   8.799   3.758   6.145
 1936WAT     H1 6050   8.712   3.721   6.113
 1936WAT     H2 6051   8.802   3.856   6.129
 1937WAT      O 6052   5.312   1.179   2.148
 1937WAT     H1 6053   5.259   1.115   2.203
 1937WAT     H2 6054   5.298   1.272   2.183
 1938WAT      O 6055   4.633   3.923   8.214
 1938WAT     H1 6056   4.696   3.997   8.238
 1938WAT     H2 6057   4.612   3.928   8.116
 1939WAT      O 6058   2.795   5.429   6.421
 1939WAT     H1 6059   2.775   5.428   6.323
 1939WAT     H2 6060   2.800   5.524   6.453
 1940WAT      O 6061   4.628   4.623   8.311
 1940WAT     H1 6062   4.629   4.551   8.380
 1940WAT     H2 6063   4.718   4.665   8.304
 1941WAT      O 6064   4.201   6.150   7.564
 1941WAT     H1 6065   4.118   6.101   7.536
 1941WAT     H2 6066   4.178   6.216   7.635
 1942WAT      O 6067   2.362   0.817   8.501
 1942WAT     H1 6068   2.424   0.744   8.471
 1942WAT     H2 6069   2.295   0.781   8.566
 1943WAT      O 6070   0.567   9.242   5.848
 1943WAT     H1 6071   0.488   9.254   5.787
 1943WAT     H2 6072   0.633   9.181   5.806
 1944WAT      O 6073   5.907   7.145   4.498
 1944WAT     H1 6074   5.927   7.237   4.533
 1944WAT     H2 6075   5.818   7.115   4.532
 1945WAT      O 6076   8.799   1.119   3.631
 1945WAT     H1 6077   8.701   1.107   3.646
 1945WAT     H2 6078   8.833   1.192   3.689
 1946WAT      O 6079   3.237   0.657   2.684
 1946WAT     H1 6080   3.302   0.656   2.760
 1946WAT     H2 6081   3.185   0.743   2.687
 1947WAT      O 6082   3.163   5.377   2.459
 1947WAT     H1 6083   3.224   5.353   2.383
 1947WAT     H2 6084   3.133   5.471   2.449
 1948WAT      O 6085   7.537   2.857   2.465
 1948WAT     H1 6086   7.589   2.773   2.479
 1948WAT     H2 6087   7.468   2.866   2.538
 1949WAT      O 6088   0.686   3.097   9.624
 1949WAT     H1 6089   0.659   3.019   9.568
 1949WAT     H2 6090   0.652   3.085   9.718
 1950WAT      O 6091   7.430   9.702   1.286
 1950WAT     H1 6092   7.452   9.672   1.193
 1950WAT     H2 6093   7.365   9.778   1.281
 1951WAT      O 6094   0.336   3.663   2.062
 1951WAT     H1 6095   0.237   3.647   2.063
 1951WAT     H2 6096   0.368   3.666   1.967
 1952WAT      O 6097   8.071   7.654   5.090
 1952WAT     H1 6098   8.064   7.607   5.001
 1952WAT     H2 6099   8.008   7.732   5.091
 1953WAT      O 6100   9.519   6.681   2.272
 1953WAT     H1 6101   9.569   6.703   2.189
 1953WAT     H2 6102   9.582   6.645   2.341
 1954WAT      O 6103   9.784   1.183   0.239
 1954WAT     H1 6104   9.763   1.162   0.334
 1954WAT     H2 6105   9.797   1.098   0.188
 1955WAT      O 6106   4.386   2.327   2.835
 1955WAT     H1 6107   4.365   2.380   2.753
 1955WAT     H2 6108   4.475   2.281   2.823
 1956WAT      O 6109   2.436   3.071   5.496
 1956WAT     H1 6110   2.437   3.103   5.402
 1956WAT     H2 6111   2.397   3.142   5.555
 1957WAT      O 6112   5.067   7.715   7.293
 1957WAT     H1 6113   5.151   7.685   7.249
 1957WAT     H2 6114   5.080   7.718   7.392
 1958WAT      O 6115   2.810   8.791   8.197
 1958WAT     H1 6116   2.747   8.725   8.156
 1958WAT     H2 6117   2.797   8.791   8.296
 1959WAT      O 6118   6.690   6.276   1.654
 1959WAT     H1 6119   6.691   6.202   1.722
 1959WAT     H2 6120   6.775   6.273   1.601
 1960WAT      O 6121   4.032   2.366   2.140
 1960WAT     H1 6122   4.107   2.345   2.203
 1960WAT     H2 6123   4.049   2.455   2.097
 1961WAT      O 6124   0.722   8.309   5.682
 1961WAT     H1 6125   0.803   8.250   5.678
 1961WAT     H2 6126   0.733   8.376   5.755
 1962WAT      O 6127   4.161   9.333   5.176
 1962WAT     H1 6128   4.114   9.365   5.094
 1962WAT     H2 6129   4.097   9.284   5.235
 1963WAT      O 6130   5.048   2.815   5.438
 1963WAT     H1 6131   5.021   2.780   5.348
 1963WAT     H2 6132   5.117   2.886   5.426
 1964WAT      O 6133   7.082   7.758   1.472
 1964WAT     H1 6134   7.123   7.830   1.528
 1964WAT     H2 6135   6.996   7.729   1.514
 1965WAT      O 6136   9.556   9.558   1.224
 1965WAT     H1 6137   9.624   9.574   1.152
 1965WAT     H2 6138   9.532   9.646   1.265
 1966WAT      O 6139   1.912   7.055   1.117
 1966WAT     H1 6140   1.831   7.052   1.058
 1966WAT     H2 6141   1.992   7.080   1.061
 1967WAT      O 6142   8.436   6.896   7.406
 1967WAT     H1 6143   8.346   6.903   7.450
 1967WAT     H2 6144   8.496   6.837   7.461
 1968WAT      O 6145   1.277   0.239   8.304
 1968WAT     H1 6146   1.195   0.200   8.262
 1968WAT     H2 6147   1.326   0.294   8.235
 1969WAT      O 6148   7.277   2.034   2.422
 1969WAT     H1 6149   7.319   2.116   2.461
 1969WAT     H2 6150   7.271   2.043   2.323
 1970WAT      O 6151   9.720   8.683   0.334
 1970WAT     H1 6152   9.699   8.744   0.410
 1970WAT     H2 6153   9.781   8.610   0.367
 1971WAT      O 6154   7.558   6.998   3.084
 1971WAT     H1 6155   7.489   6.962   3.147
 1971WAT     H2 6156   7.629   6.930   3.071
 1972WAT      O 6157   9.456   4.024   1.257
 1972WAT     H1 6158   9.411   4.007   1.345
 1972WAT     H2 6159   9.535   3.963   1.249
 1973WAT      O 6160   9.543   5.842   4.255
 1973WAT     H1 6161   9.582   5.931   4.276
 1973WAT     H2 6162   9.560   5.779   4.331
 1974WAT      O 6163   6.165   7.967   9.298
 1974WAT     H1 6164   6.187   7.891   9.238
 1974WAT     H2 6165   6.079   7.948   9.347
 1975WAT      O 6166   3.385   1.433   5.363
 1975WAT     H1 6167   3.454   1.502   5.384
 1975WAT     H2 6168   3.403   1.394   5.273
 1976WAT      O 6169   4.222   8.904   0.177
 1976WAT     H1 6170   4.250   8.999   0.163
 1976WAT     H2 6171   4.204   8.888   0.274
 1977WAT      O 6172   2.994   9.492   8.215
 1977WAT     H1 6173   2.999   9.405   8.166
 1977WAT     H2 6174   2.915   9.545   8.184
 1978WAT      O 6175   8.686   1.281   5.399
 1978WAT     H1 6176   8.631   1.201   5.375
 1978WAT     H2 6177   8.744   1.306   5.322
 1979WAT      O 6178   9.190   9.057   2.115
 1979WAT     H1 6179   9.148   9.123   2.177
 1979WAT     H2 6180   9.269   9.098   2.071
 1980WAT      O 6181   4.638   1.309   6.632
 1980WAT     H1 6182   4.730   1.346   6.647
 1980WAT     H2 6183   4.637   1.257   6.547
 1981WAT      O 6184   2.463   0.570   8.197
 1981WAT     H1 6185   2.496   0.577   8.291
 1981WAT     H2 6186   2.418   0.656   8.170
 1982WAT      O 6187   4.360   6.916   0.216
 1982WAT     H1 6188   4.307   6.978   0.274
 1982WAT     H2 6189   4.362   6.951   0.122
 1983WAT      O 6190   0.331   2.230   9.468
 1983WAT     H1 6191   0.290   2.279   9.545
 1983WAT     H2 6192   0.261   2.211   9.399
 1984WAT      O 6193   2.767   5.488   4.161
 1984WAT     H1 6194   2.801   5.414   4.218
 1984WAT     H2 6195   2.687   5.457   4.110
 1985WAT      O 6196   7.323   4.760   9.718
 1985WAT     H1 6197   7.285   4.814   9.793
 1985WAT     H2 6198   7.421   4.746   9.732
 1986WAT      O 6199   0.296   8.366   3.549
 1986WAT     H1 6200   0.344   8.412   3.475
 1986WAT     H2 6201   0.261   8.278   3.517
 1987WAT      O 6202   0.267   4.842   8.313
 1987WAT     H1 6203   0.250   4.745   8.296
 1987WAT     H2 6204   0.226   4.897   8.240
 1988WAT      O 6205   4.854   5.989   2.731
 1988WAT     H1 6206   4.771   5.965   2.679
 1988WAT     H2 6207   4.828   6.017   2.823
 1989WAT      O 6208   5.698   3.486   0.691
 1989WAT     H1 6209   5.788   3.456   0.663
 1989WAT     H2 6210   5.640   3.499   0.611
 1990WAT      O 6211   8.443   0.700   8.321
 1990WAT     H1 6212   8.496   0.725   8.402
 1990WAT     H2 6213   8.362   0.649   8.349
 1991WAT      O 6214   3.499   0.721   0.342
 1991WAT     H1 6215   3.537   0.777   0.268
 1991WAT     H2 6216   3.421   0.669   0.307
 1992WAT      O 6217   9.831   0.184   3.121
 1992WAT     H1 6218   9.909   0.163   3.181
 1992WAT     H2 6219   9.772   0.104   3.113
 1993WAT      O 6220   1.580   4.823   6.655
 1993WAT     H1 6221   1.627   4.738   6.632
 1993WAT     H2 6222   1.550   4.820   6.751
 1994WAT      O 6223   9.738   9.194   7.982
 1994WAT     H1 6224   9.749   9.201   8.081
 1994WAT     H2 6225   9.799   9.259   7.936
 1995WAT      O 6226   0.823   1.536   1.523
 1995WAT     H1 6227   0.883   1.564   1.448
 1995WAT     H2 6228   0.765   1.461   1.493
 1996WAT      O 6229   6.462   9.713   6.425
 1996WAT     H1 6230   6.433   9.806   6.448
 1996WAT     H2 6231   6.560   9.703   6.442
 1997WAT      O 6232   6.199   4.631   3.879
 1997WAT     H1 6233   6.211   4.717   3.830
 1997WAT     H2 6234   6.286   4.602   3.918
 1998WAT      O 6235   7.068   2.032   0.194
 1998WAT     H1 6236   7.155   2.048   0.240
 1998WAT     H2 6237   7.020   1.956   0.237
 1999WAT      O 6238   7.352   1.720   0.231
 1999WAT     H1 6239   7.332   1.815   0.257
 1999WAT     H2 6240   7.343   1.711   0.132
 2000WAT      O 6241   2.123   7.274   4.222
 2000WAT     H1 6242   2.125   7.267   4.321
 2000WAT     H2 6243   2.203   7.326   4.191
 2001WAT      O 6244   5.690   0.120   2.435
 2001WAT     H1 6245   5.740   0.074   2.508
 2001WAT     H2 6246   5.600   0.077   2.424
 2002WAT      O 6247   0.932   8.535   5.463
 2002WAT     H1 6248   0.856   8.472   5.447
 2002WAT     H2 6249   1.018   8.486   5.449
 2003WAT      O 6250   7.221   1.563   8.707
 2003WAT     H1 6251   7.170   1.485   8.743
 2003WAT     H2 6252   7.304   1.531   8.661
 2004WAT      O 6253   7.573   7.696   0.979
 2004WAT     H1 6254   7.491   7.642   0.999
 2004WAT     H2 6255   7.612   7.730   1.065
 2005WAT      O 6256   7.809   9.458   6.876
 2005WAT     H1 6257   7.739   9.418   6.935
 2005WAT     H2 6258   7.879   9.390   6.856
 2006WAT      O 6259   8.417   5.970   3.559
 2006WAT     H1 6260   8.444   5.968   3.655
 2006WAT     H2 6261   8.440   6.060   3.519
 2007WAT      O 6262   0.222   4.688   6.312
 2007WAT     H1 6263   0.197   4.782   6.289
 2007WAT     H2 6264   0.166   4.657   6.389
 2008WAT      O 6265   3.819   1.680   3.142
 2008WAT     H1 6266   3.809   1.581   3.140
 2008WAT     H2 6267   3.914   1.703   3.161
 2009WAT      O 6268   4.156   1.355   5.634
 2009WAT     H1 6269   4.169   1.329   5.729
 2009WAT     H2 6270   4.066   1.397   5.623
 2010WAT      O 6271   6.571   4.863   4.645
 2010WAT     H1 6272   6.567   4.927   4.568
 2010WAT     H2 6273   6.606   4.910   4.726
 2011WAT      O 6274   7.140   7.101   0.445
 2011WAT     H1 6275   7.115   7.185   0.493
 2011WAT     H2 6276   7.091   7.097   0.358
 2012WAT      O 6277   3.438   6.470   2.587
 2012WAT     H1 6278   3.479   6.434   2.503
 2012WAT     H2 6279   3.509   6.487   2.655
 2013WAT      O 6280   6.267   8.436   9.430
 2013WAT     H1 6281   6.296   8.348   9.468
 2013WAT     H2 6282   6.230   8.493   9.504
 2014WAT      O 6283   0.988   5.962   1.272
 2014WAT     H1 6284   0.982   5.967   1.172
 2014WAT     H2 6285   1.037   6.042   1.306
 2015WAT      O 6286   5.036   2.072   0.391
 2015WAT     H1 6287   5.093   2.005   0.342
 2015WAT     H2 6288   5.038   2.052   0.489
 2016WAT      O 6289   5.991   4.508   4.120
 2016WAT     H1 6290   5.944   4.497   4.032
 2016WAT     H2 6291   6.089   4.499   4.107
 2017WAT      O 6292   1.439   1.640   7.700
 2017WAT     H1 6293   1.498   1.614   7.777
 2017WAT     H2 6294   1.496   1.673   7.625
 2018WAT      O 6295   9.143   9.816   5.935
 2018WAT     H1 6296   9.142   9.912   5.963
 2018WAT     H2 6297   9.064   9.798   5.876
 2019WAT      O 6298   6.949   3.929   0.817
 2019WAT     H1 6299   6.850   3.928   0.833
 2019WAT     H2 6300   6.993   3.861   0.876
 2020WAT      O 6301   6.913   8.840   4.148
 2020WAT     H1 6302   6.950   8.929   4.122
 2020WAT     H2 6303   6.977   8.793   4.209
 2021WAT      O 6304   9.202   6.603   7.292
 2021WAT     H1 6305   9.188   6.699   7.317
 2021WAT     H2 6306   9.263   6.598   7.214
 2022WAT      O 6307   8.849   0.790   3.824
 2022WAT     H1 6308   8.871   0.803   3.728
 2022WAT     H2 6309   8.871   0.873   3.875
 2023WAT      O 6310   3.618   8.513   3.716
 2023WAT     H1 6311   3.641   8.473   3.627
 2023WAT     H2 6312   3.690   8.492   3.782
 2024WAT      O 6313   8.431   0.058   4.168
 2024WAT     H1 6314   8.440   0.119   4.090
 2024WAT     H2 6315   8.476  -0.029   4.148
 2025WAT      O 6316   9.244   6.679   1.923
 2025WAT     H1 6317   9.178   6.751   1.945
 2025WAT     H2 6318   9.258   6.621   2.002
 2026WAT      O 6319   7.921   5.198   7.579
 2026WAT     H1 6320   7.990   5.149   7.526
 2026WAT     H2 6321   7.831   5.160   7.559
 2027WAT      O 6322   0.561   5.074   9.207
 2027WAT     H1 6323   0.508   5.065   9.291
 2027WAT     H2 6324   0.645   5.022   9.215
 2028WAT      O 6325   4.466   8.577   3.429
 2028WAT     H1 6326   4.481   8.605   3.334
 2028WAT     H2 6327   4.528   8.627   3.489
 2029WAT      O 6328   9.763   2.218   4.745
 2029WAT     H1 6329   9.772   2.124   4.778
 2029WAT     H2 6330   9.828   2.277   4.795
 2030WAT      O 6331   5.021   5.524   8.006
 2030WAT     H1 6332   5.022   5.498   7.909
 2030WAT     H2 6333   5.113   5.512   8.044
 2031WAT      O 6334   6.963   9.093   6.990
 2031WAT     H1 6335   6.887   9.129   7.043
 2031WAT     H2 6336   6.941   9.001   6.957
 2032WAT      O 6337   1.098   3.205   4.440
 2032WAT     H1 6338   1.133   3.269   4.371
 2032WAT     H2 6339   1.101   3.249   4.530
 2033WAT      O 6340   7.001   4.898   8.248
 2033WAT     H1 6341   6.919   4.842   8.246
 2033WAT     H2 6342   7.023   4.930   8.155
 2034WAT      O 6343   0.066   0.005   5.836
 2034WAT     H1 6344  -0.011  -0.056   5.851
 2034WAT     H2 6345   0.108   0.029   5.923
 2035WAT      O 6346   5.768   2.947   1.909
 2035WAT     H1 6347   5.776   3.003   1.827
 2035WAT     H2 6348   5.843   2.968   1.972
 2036WAT      O 6349   5.612   7.395   0.034
 2036WAT     H1 6350   5.585   7.309  -0.008
 2036WAT     H2 6351   5.531   7.452   0.048
 2037WAT      O 6352   1.308   5.771   8.999
 2037WAT     H1 6353   1.217   5.805   9.021
 2037WAT     H2 6354   1.330   5.694   9.060
 2038WAT      O 6355   1.751   4.731   2.324
 2038WAT     H1 6356   1.839   4.760   2.286
 2038WAT     H2 6357   1.685   4.718   2.249
 2039WAT      O 6358   9.121   4.043   5.604
 2039WAT     H1 6359   9.080   4.039   5.513
 2039WAT     H2 6360   9.059   4.001   5.670
 2040WAT      O 6361   2.534   5.321   6.602
 2040WAT     H1 6362   2.435   5.332   6.599
 2040WAT     H2 6363   2.576   5.409   6.622
 2041WAT      O 6364   8.940   2.555   1.468
 2041WAT     H1 6365   8.971   2.497   1.392
 2041WAT     H2 6366   8.892   2.635   1.432
 2042WAT      O 6367   6.550   4.798   2.385
 2042WAT     H1 6368   6.532   4.766   2.478
 2042WAT     H2 6369   6.471   4.849   2.351
 2043WAT      O 6370   7.533   1.730   1.926
 2043WAT     H1 6371   7.607   1.700   1.866
 2043WAT     H2 6372   7.450   1.745   1.871
 2044WAT      O 6373   3.709   8.236   1.877
 2044WAT     H1 6374   3.796   8.203   1.842
 2044WAT     H2 6375   3.685   8.322   1.832
 2045WAT      O 6376   1.957   5.395   4.267
 2045WAT     H1 6377   1.943   5.377   4.364
 2045WAT     H2 6378   2.049   5.369   4.240
 2046WAT      O 6379   1.158   1.386   4.650
 2046WAT     H1 6380   1.234   1.397   4.714
 2046WAT     H2 6381   1.191   1.402   4.557
 2047WAT      O 6382   4.006   1.744   4.745
 2047WAT     H1 6383   4.051   1.660   4.776
 2047WAT     H2 6384   4.029   1.819   4.807
 2048WAT      O 6385   9.545   8.227   4.332
 2048WAT     H1 6386   9.600   8.292   4.279
 2048WAT     H2 6387   9.559   8.135   4.297
 2049WAT      O 6388   0.609   6.282   4.988
 2049WAT     H1 6389   0.660   6.308   4.906
 2049WAT     H2 6390   0.566   6.363   5.028
 2050WAT      O 6391   0.549   6.326   5.717
 2050WAT     H1 6392   0.634   6.275   5.704
 2050WAT     H2 6393   0.471   6.266   5.697
 2051WAT      O 6394   0.296   2.001   3.211
 2051WAT     H1 6395   0.383   2.003   3.161
 2051WAT     H2 6396   0.230   1.946   3.160
 2052WAT      O 6397   1.870   1.186   8.324
 2052WAT     H1 6398   1.771   1.176   8.325
 2052WAT     H2 6399   1.905   1.179   8.418
 2053WAT      O 6400   7.810   8.498   9.101
 2053WAT     H1 6401   7.729   8.545   9.134
 2053WAT     H2 6402   7.837   8.427   9.166
 2054WAT      O 6403   4.132   4.992   8.853
 2054WAT     H1 6404   4.150   4.994   8.755
 2054WAT     H2 6405   4.218   5.000   8.903
 2055WAT      O 6406   8.469   6.857   9.217
 2055WAT     H1 6407   8.499   6.771   9.259
 2055WAT     H2 6408   8.493   6.934   9.276
 2056WAT      O 6409   8.944   2.303   5.441
 2056WAT     H1 6410   8.938   2.238   5.517
 2056WAT     H2 6411   9.024   2.361   5.454
 2057WAT      O 6412   7.392   2.260   3.341
 2057WAT     H1 6413   7.300   2.222   3.348
 2057WAT     H2 6414   7.395   2.349   3.386
 2058WAT      O 6415   0.584   3.482   8.326
 2058WAT     H1 6416   0.573   3.408   8.260
 2058WAT     H2 6417   0.576   3.446   8.419
 2059WAT      O 6418   6.266   9.803   4.468
 2059WAT     H1 6419   6.195   9.732   4.458
 2059WAT     H2 6420   6.224   9.887   4.501
 2060WAT      O 6421   1.323   5.946   8.168
 2060WAT     H1 6422   1.388   6.023   8.170
 2060WAT     H2 6423   1.254   5.962   8.098
 2061WAT      O 6424   4.438   9.740   3.130
 2061WAT     H1 6425   4.458   9.770   3.223
 2061WAT     H2 6426   4.357   9.682   3.130
 2062WAT      O 6427   6.200   0.350   3.583
 2062WAT     H1 6428   6.194   0.287   3.661
 2062WAT     H2 6429   6.246   0.304   3.507
 2063WAT      O 6430   6.674   6.680   9.332
 2063WAT     H1 6431   6.692   6.598   9.277
 2063WAT     H2 6432   6.760   6.729   9.347
 2064WAT      O 6433   1.601   9.111   6.984
 2064WAT     H1 6434   1.515   9.080   7.024
 2064WAT     H2 6435   1.678   9.067   7.031
 2065WAT      O 6436   8.699   9.257   1.983
 2065WAT     H1 6437   8.672   9.184   1.921
 2065WAT     H2 6438   8.728   9.337   1.930
 2066WAT      O 6439   4.091   7.493   4.664
 2066WAT     H1 6440   4.140   7.406   4.658
 2066WAT     H2 6441   4.068   7.525   4.572
 2067WAT      O 6442   5.446   5.639   8.282
 2067WAT     H1 6443   5.497   5.686   8.354
 2067WAT     H2 6444   5.409   5.554   8.319
 2068WAT      O 6445   9.326   1.580   9.890
 2068WAT     H1 6446   9.402   1.533   9.845
 2068WAT     H2 6447   9.354   1.672   9.916
 2069WAT      O 6448   8.291   1.929   4.753
 2069WAT     H1 6449   8.199   1.963   4.773
 2069WAT     H2 6450   8.327   1.976   4.673
 2070WAT      O 6451   6.728   2.578   7.997
 2070WAT     H1 6452   6.776   2.646   7.942
 2070WAT     H2 6453   6.764   2.487   7.975
 2071WAT      O 6454   4.103   5.217   2.701
 2071WAT     H1 6455   4.085   5.166   2.785
 2071WAT     H2 6456   4.178   5.281   2.716
 2072WAT      O 6457   1.596   7.831   2.046
 2072WAT     H1 6458   1.650   7.840   2.130
 2072WAT     H2 6459   1.555   7.740   2.043
 2073WAT      O 6460   3.138   8.242   5.291
 2073WAT     H1 6461   3.161   8.328   5.246
 2073WAT     H2 6462   3.218   8.208   5.340
 2074WAT      O 6463   6.865   5.811   0.760
 2074WAT     H1 6464   6.852   5.903   0.797
 2074WAT     H2 6465   6.827   5.744   0.823
 2075WAT      O 6466   8.626   9.108   7.923
 2075WAT     H1 6467   8.651   9.157   7.839
 2075WAT     H2 6468   8.628   9.171   8.000
 2076WAT      O 6469   9.434   1.613   0.456
 2076WAT     H1 6470   9.406   1.562   0.375
 2076WAT     H2 6471   9.517   1.665   0.437
 2077WAT      O 6472   6.896   4.290   7.527
 2077WAT     H1 6473   6.913   4.195   7.502
 2077WAT     H2 6474   6.872   4.295   7.624
 2078WAT      O 6475   5.124   6.665   2.221
 2078WAT     H1 6476   5.049   6.664   2.287
 2078WAT     H2 6477   5.176   6.579   2.229
 2079WAT      O 6478   3.583   5.936   7.570
 2079WAT     H1 6479   3.488   5.915   7.593
 2079WAT     H2 6480   3.635   5.949   7.655
 2080WAT      O 6481   8.849   3.940   7.222
 2080WAT     H1 6482   8.783   3.938   7.147
 2080WAT     H2 6483   8.840   3.857   7.276
 2081WAT      O 6484   9.333   8.082   2.358
 2081WAT     H1 6485   9.386   8.167   2.368
 2081WAT     H2 6486   9.392   8.010   2.321
 2082WAT      O 6487   0.938   6.805   2.347
 2082WAT     H1 6488   0.999   6.773   2.420
 2082WAT     H2 6489   0.934   6.905   2.349
 2083WAT      O 6490   7.485   1.672   4.590
 2083WAT     H1 6491   7.550   1.648   4.518
 2083WAT     H2 6492   7.427   1.747   4.558
 2084WAT      O 6493   7.677   1.647   8.587
 2084WAT     H1 6494   7.600   1.693   8.631
 2084WAT     H2 6495   7.646   1.600   8.505
 2085WAT      O 6496   0.877   0.747   1.328
 2085WAT     H1 6497   0.909   0.729   1.421
 2085WAT     H2 6498   0.955   0.767   1.269
 2086WAT      O 6499   1.091   8.175   0.243
 2086WAT     H1 6500   0.997   8.190   0.271
 2086WAT     H2 6501   1.144   8.139   0.319
 2087WAT      O 6502   1.136   2.979   4.309
 2087WAT     H1 6503   1.109   3.056   4.367
 2087WAT     H2 6504   1.193   3.013   4.234
 2088WAT      O 6505   7.943   5.949   7.706
 2088WAT     H1 6506   7.938   6.040   7.665
 2088WAT     H2 6507   8.013   5.948   7.777
 2089WAT      O 6508   1.524   7.819   9.648
 2089WAT     H1 6509   1.467   7.739   9.665
 2089WAT     H2 6510   1.500   7.860   9.561
 2090WAT      O 6511   5.030   6.316   9.010
 2090WAT     H1 6512   5.087   6.243   8.973
 2090WAT     H2 6513   5.082   6.401   9.013
 2091WAT      O 6514   2.245   0.772   6.429
 2091WAT     H1 6515   2.273   0.855   6.382
 2091WAT     H2 6516   2.312   0.700   6.412
 2092WAT      O 6517   6.560   1.833   6.200
 2092WAT     H1 6518   6.514   1.917   6.169
 2092WAT     H2 6519   6.653   1.830   6.162
 2093WAT      O 6520   1.629   0.692   1.020
 2093WAT     H1 6521   1.669   0.613   1.065
 2093WAT     H2 6522   1.698   0.735   0.961
 2094WAT      O 6523   0.768   2.225   7.260
 2094WAT     H1 6524   0.797   2.215   7.164
 2094WAT     H2 6525   0.849   2.223   7.319
 2095WAT      O 6526   0.434   6.870   8.592
 2095WAT     H1 6527   0.441   6.966   8.619
 2095WAT     H2 6528   0.520   6.823   8.611
 2096WAT      O 6529   5.611   2.333   0.474
 2096WAT     H1 6530   5.677   2.318   0.548
 2096WAT     H2 6531   5.615   2.256   0.409
 2097WAT      O 6532   8.102   4.218   7.176
 2097WAT     H1 6533   8.097   4.217   7.276
 2097WAT     H2 6534   8.193   4.250   7.148
 2098WAT      O 6535   3.285   0.013   4.722
 2098WAT     H1 6536   3.186   0.023   4.712
 2098WAT     H2 6537   3.306  -0.080   4.752
 2099WAT      O 6538   3.653   8.924   5.467
 2099WAT     H1 6539   3.642   8.953   5.372
 2099WAT     H2 6540   3.740   8.875   5.476
 2100WAT      O 6541   7.572   2.661   4.969
 2100WAT     H1 6542   7.619   2.605   4.901
 2100WAT     H2 6543   7.561   2.754   4.934
 2101WAT      O 6544   6.328   0.652   7.169
 2101WAT     H1 6545   6.264   0.621   7.100
 2101WAT     H2 6546   6.422   0.632   7.139
 2102WAT      O 6547   8.523   1.360   9.035
 2102WAT     H1 6548   8.485   1.269   9.050
 2102WAT     H2 6549   8.600   1.375   9.097
 2103WAT      O 6550   5.196   1.366   1.097
 2103WAT     H1 6551   5.169   1.419   1.016
 2103WAT     H2 6552   5.136   1.286   1.106
 2104WAT      O 6553   6.208   5.736   7.393
 2104WAT     H1 6554   6.151   5.656   7.375
 2104WAT     H2 6555   6.258   5.761   7.310
 2105WAT      O 6556   7.968   4.185   7.497
 2105WAT     H1 6557   7.921   4.132   7.568
 2105WAT     H2 6558   7.902   4.243   7.450
 2106WAT      O 6559   2.549   4.129   4.367
 2106WAT     H1 6560   2.610   4.053   4.346
 2106WAT     H2 6561   2.474   4.131   4.300
 2107WAT      O 6562   8.916   1.389   3.858
 2107WAT     H1 6563   8.891   1.321   3.926
 2107WAT     H2 6564   9.007   1.368   3.822
 2108WAT      O 6565   0.631   8.204   4.205
 2108WAT     H1 6566   0.607   8.166   4.294
 2108WAT     H2 6567   0.549   8.218   4.151
 2109WAT      O 6568   0.749   3.276   5.651
 2109WAT     H1 6569   0.723   3.320   5.737
 2109WAT     H2 6570   0.672   3.222   5.616
 2110WAT      O 6571   0.094   4.331   1.970
 2110WAT     H1 6572   0.062   4.249   2.017
 2110WAT     H2 6573   0.194   4.331   1.968
 2111WAT      O 6574   5.870   5.833   1.446
 2111WAT     H1 6575   5.878   5.763   1.517
 2111WAT     H2 6576   5.891   5.922   1.486
 2112WAT      O 6577   7.975   3.494   1.160
 2112WAT     H1 6578   8.037   3.539   1.224
 2112WAT     H2 6579   7.977   3.395   1.175
 2113WAT      O 6580   0.143   0.199   0.243
 2113WAT     H1 6581   0.059   0.231   0.287
 2113WAT     H2 6582   0.208   0.275   0.238
 2114WAT      O 6583   6.753   5.319   6.853
 2114WAT     H1 6584   6.675   5.307   6.913
 2114WAT     H2 6585   6.838   5.302   6.903
 2115WAT      O 6586   5.262   9.057   3.163
 2115WAT     H1 6587   5.172   9.082   3.199
 2115WAT     H2 6588   5.331   9.064   3.235
 2116WAT      O 6589   7.665   4.814   8.876
 2116WAT     H1 6590   7.629   4.859   8.958
 2116WAT     H2 6591   7.694   4.884   8.810
 2117WAT      O 6592   6.733   4.962   6.837
 2117WAT     H1 6593   6.771   4.970   6.930
 2117WAT     H2 6594   6.637   4.990   6.838
 2118WAT      O 6595   9.110   1.189   0.866
 2118WAT     H1 6596   9.116   1.095   0.834
 2118WAT     H2 6597   9.134   1.193   0.963
 2119WAT      O 6598   8.882   8.412   5.990
 2119WAT     H1 6599   8.916   8.435   6.081
 2119WAT     H2 6600   8.858   8.316   5.986
 2120WAT      O 6601   5.413   3.928   8.662
 2120WAT     H1 6602   5.326   3.931   8.712
 2120WAT     H2 6603   5.401   3.973   8.573
 2121WAT      O 6604   2.708   3.495   6.453
 2121WAT     H1 6605   2.791   3.502   6.509
 2121WAT     H2 6606   2.681   3.399   6.445
 2122WAT      O 6607   2.133   0.624   8.368
 2122WAT     H1 6608   2.165   0.706   8.319
 2122WAT     H2 6609   2.100   0.651   8.459
 2123WAT      O 6610   0.444   9.583   6.732
 2123WAT     H1 6611   0.450   9.662   6.793
 2123WAT     H2 6612   0.535   9.548   6.713
 2124WAT      O 6613   9.280   9.659   4.989
 2124WAT     H1 6614   9.290   9.750   4.947
 2124WAT     H2 6615   9.371   9.621   5.006
 2125WAT      O 6616   8.461   8.379   0.287
 2125WAT     H1 6617   8.469   8.437   0.368
 2125WAT     H2 6618   8.551   8.349   0.258
 2126WAT      O 6619   3.962   9.154   6.659
 2126WAT     H1 6620   4.054   9.120   6.636
 2126WAT     H2 6621   3.929   9.108   6.742
 2127WAT      O 6622   5.403   6.763   7.881
 2127WAT     H1 6623   5.435   6.850   7.845
 2127WAT     H2 6624   5.388   6.770   7.979
 2128WAT      O 6625   2.432   3.367   6.748
 2128WAT     H1 6626   2.366   3.379   6.674
 2128WAT     H2 6627   2.482   3.281   6.735
 2129WAT      O 6628   5.056   4.763   0.700
 2129WAT     H1 6629   5.023   4.701   0.628
 2129WAT     H2 6630   4.993   4.840   0.709
 2130WAT      O 6631   4.291   5.507   7.941
 2130WAT     H1 6632   4.353   5.455   7.883
 2130WAT     H2 6633   4.234   5.445   7.994
 2131WAT      O 6634   8.127   5.162   2.008
 2131WAT     H1 6635   8.040   5.204   2.033
 2131WAT     H2 6636   8.118   5.116   1.919
 2132WAT      O 6637   3.710   3.691   5.663
 2132WAT     H1 6638   3.744   3.692   5.569
 2132WAT     H2 6639   3.786   3.689   5.727
 2133WAT      O 6640   4.518   2.677   1.435
 2133WAT     H1 6641   4.577   2.687   1.355
 2133WAT     H2 6642   4.572   2.694   1.518
 2134WAT      O 6643   5.163   5.247   2.048
 2134WAT     H1 6644   5.129   5.340   2.055
 2134WAT     H2 6645   5.087   5.182   2.055
 2135WAT      O 6646   5.031   8.802   4.326
 2135WAT     H1 6647   5.087   8.829   4.405
 2135WAT     H2 6648   5.061   8.852   4.245
 2136WAT      O 6649   3.548   2.629   6.064
 2136WAT     H1 6650   3.601   2.568   6.123
 2136WAT     H2 6651   3.578   2.723   6.079
 2137WAT      O 6652   0.298   6.643   4.236
 2137WAT     H1 6653   0.255   6.729   4.261
 2137WAT     H2 6654   0.242   6.596   4.167
 2138WAT      O 6655   2.914   7.208   1.341
 2138WAT     H1 6656   2.975   7.202   1.420
 2138WAT     H2 6657   2.915   7.121   1.291
 2139WAT      O 6658   0.118   5.456   6.647
 2139WAT     H1 6659   0.193   5.520   6.661
 2139WAT     H2 6660   0.125   5.417   6.555
 2140WAT      O 6661   8.897   6.445   4.816
 2140WAT     H1 6662   8.961   6.409   4.883
 2140WAT     H2 6663   8.859   6.369   4.763
 2141WAT      O 6664   5.005   2.627   1.605
 2141WAT     H1 6665   4.982   2.709   1.658
 2141WAT     H2 6666   5.020   2.652   1.509
 2142WAT      O 6667   6.185   7.738   0.704
 2142WAT     H1 6668   6.253   7.777   0.766
 2142WAT     H2 6669   6.228   7.717   0.616
 2143WAT      O 6670   5.844   3.303   4.157
 2143WAT     H1 6671   5.893   3.288   4.071
 2143WAT     H2 6672   5.879   3.240   4.226
 2144WAT      O 6673   0.753   1.213   4.801
 2144WAT     H1 6674   0.705   1.267   4.733
 2144WAT     H2 6675   0.852   1.218   4.785
 2145WAT      O 6676   2.473   7.135   1.860
 2145WAT     H1 6677   2.444   7.051   1.815
 2145WAT     H2 6678   2.528   7.190   1.797
 2146WAT      O 6679   2.926   1.788   8.926
 2146WAT     H1 6680   2.944   1.855   8.998
 2146WAT     H2 6681   2.832   1.754   8.936
 2147WAT      O 6682   8.020   8.824   5.096
 2147WAT     H1 6683   8.001   8.918   5.066
 2147WAT     H2 6684   8.098   8.788   5.044
 2148WAT      O 6685   3.901   4.196   6.936
 2148WAT     H1 6686   3.942   4.108   6.911
 2148WAT     H2 6687   3.972   4.267   6.935
 2149WAT      O 6688   1.501   1.403   2.303
 2149WAT     H1 6689   1.425   1.412   2.368
 2149WAT     H2 6690   1.553   1.488   2.300
 2150WAT      O 6691   0.286   4.649   1.065
 2150WAT     H1 6692   0.286   4.585   0.988
 2150WAT     H2 6693   0.379   4.676   1.087
 2151WAT      O 6694   9.787   9.490   8.177
 2151WAT     H1 6695   9.806   9.479   8.079
 2151WAT     H2 6696   9.872   9.477   8.229
 2152WAT      O 6697   3.965   5.769   5.891
 2152WAT     H1 6698   3.891   5.705   5.871
 2152WAT     H2 6699   4.053   5.724   5.877
 2153WAT      O 6700   8.751   0.441   9.736
 2153WAT     H1 6701   8.767   0.424   9.833
 2153WAT     H2 6702   8.669   0.497   9.725
 2154WAT      O 6703   4.391   8.327   3.336
 2154WAT     H1 6704   4.299   8.296   3.311
 2154WAT     H2 6705   4.386   8.421   3.370
 2155WAT      O 6706   8.918   6.711   2.132
 2155WAT     H1 6707   8.967   6.726   2.218
 2155WAT     H2 6708   8.969   6.752   2.057
 2156WAT      O 6709   8.621   0.804   6.286
 2156WAT     H1 6710   8.625   0.708   6.311
 2156WAT     H2 6711   8.555   0.852   6.344
 2157WAT      O 6712   3.614   0.467   0.839
 2157WAT     H1 6713   3.620   0.485   0.740
 2157WAT     H2 6714   3.520   0.448   0.864
 2158WAT      O 6715   5.595   3.851   3.307
 2158WAT     H1 6716   5.571   3.908   3.386
 2158WAT     H2 6717   5.671   3.791   3.331
 2159WAT      O 6718   0.950   9.358   2.560
 2159WAT     H1 6719   0.921   9.421   2.632
 2159WAT     H2 6720   0.967   9.409   2.476
 2160WAT      O 6721   7.491   8.044   5.006
 2160WAT     H1 6722   7.562   8.064   4.938
 2160WAT     H2 6723   7.425   7.980   4.967
 2161WAT      O 6724   2.144   4.771   2.766
 2161WAT     H1 6725   2.142   4.749   2.668
 2161WAT     H2 6726   2.136   4.870   2.778
 2162WAT      O 6727   2.015   4.720   3.750
 2162WAT     H1 6728   2.075   4.687   3.823
 2162WAT     H2 6729   2.064   4.719   3.663
 2163WAT      O 6730   8.789   2.813   0.017
 2163WAT     H1 6731   8.862   2.861   0.067
 2163WAT     H2 6732   8.700   2.844   0.050
 2164WAT      O 6733   9.653   7.046   9.420
 2164WAT     H1 6734   9.639   7.080   9.513
 2164WAT     H2 6735   9.741   7.000   9.414
 2165WAT      O 6736   7.705   2.856   4.092
 2165WAT     H1 6737   7.621   2.831   4.140
 2165WAT     H2 6738   7.683   2.880   3.997
 2166WAT      O 6739   3.321   6.432   3.573
 2166WAT     H1 6740   3.399   6.387   3.615
 2166WAT     H2 6741   3.239   6.375   3.583
 2167WAT      O 6742   4.389   1.778   4.145
 2167WAT     H1 6743   4.408   1.831   4.063
 2167WAT     H2 6744   4.305   1.724   4.132
 2168WAT      O 6745   9.331   9.187   6.603
 2168WAT     H1 6746   9.250   9.157   6.554
 2168WAT     H2 6747   9.351   9.282   6.582
 2169WAT      O 6748   1.449   2.877   2.647
 2169WAT     H1 6749   1.466   2.931   2.729
 2169WAT     H2 6750   1.382   2.923   2.589
 2170WAT      O 6751   9.679   5.768   4.836
 2170WAT     H1 6752   9.659   5.676   4.871
 2170WAT     H2 6753   9.767   5.768   4.790
 2171WAT      O 6754   0.668   7.203   3.760
 2171WAT     H1 6755   0.610   7.263   3.815
 2171WAT     H2 6756   0.674   7.113   3.803
 2172WAT      O 6757   7.061   6.030   5.423
 2172WAT     H1 6758   7.105   6.105   5.472
 2172WAT     H2 6759   7.053   5.951   5.483
 2173WAT      O 6760   3.884   3.704   8.312
 2173WAT     H1 6761   3.959   3.692   8.246
 2173WAT     H2 6762   3.872   3.620   8.365
 2174WAT      O 6763   6.229   4.740   4.419
 2174WAT     H1 6764   6.240   4.704   4.511
 2174WAT     H2 6765   6.142   4.790   4.413
 2175WAT      O 6766   1.315   6.970   6.861
 2175WAT     H1 6767   1.334   6.879   6.825
 2175WAT     H2 6768   1.234   6.968   6.919
 2176WAT      O 6769   5.485   1.963   3.623
 2176WAT     H1 6770   5.542   1.996   3.698
 2176WAT     H2 6771   5.542   1.912   3.558
 2177WAT      O 6772   4.163   1.242   6.952
 2177WAT     H1 6773   4.074   1.281   6.928
 2177WAT     H2 6774   4.150   1.156   7.000
 2178WAT      O 6775   4.200   9.301   3.739
 2178WAT     H1 6776   4.114   9.280   3.786
 2178WAT     H2 6777   4.274   9.307   3.805
 2179WAT      O 6778   9.613   3.507   4.689
 2179WAT     H1 6779   9.612   3.598   4.647
 2179WAT     H2 6780   9.569   3.511   4.778
 2180WAT      O 6781   2.771   2.581   5.616
 2180WAT     H1 6782   2.835   2.568   5.692
 2180WAT     H2 6783   2.756   2.679   5.602
 2181WAT      O 6784   0.729   6.629   0.448
 2181WAT     H1 6785   0.803   6.662   0.507
 2181WAT     H2 6786   0.768   6.588   0.366
 2182WAT      O 6787   9.517   1.420   9.258
 2182WAT     H1 6788   9.572   1.430   9.341
 2182WAT     H2 6789   9.449   1.349   9.272
 2183WAT      O 6790   1.367   0.017   6.809
 2183WAT     H1 6791   1.457   0.059   6.821
 2183WAT     H2 6792   1.296   0.086   6.823
 2184WAT      O 6793   5.943   6.100   7.759
 2184WAT     H1 6794   6.036   6.133   7.776
 2184WAT     H2 6795   5.941   6.000   7.767
 2185WAT      O 6796   9.123   4.103   8.547
 2185WAT     H1 6797   9.039   4.150   8.519
 2185WAT     H2 6798   9.103   4.008   8.569
 2186WAT      O 6799   5.965   9.482   5.369
 2186WAT     H1 6800   5.889   9.546   5.383
 2186WAT     H2 6801   5.952   9.433   5.283
 2187WAT      O 6802   0.267   0.636   3.636
 2187WAT     H1 6803   0.238   0.695   3.561
 2187WAT     H2 6804   0.303   0.692   3.711
 2188WAT      O 6805   1.602   4.718   5.231
 2188WAT     H1 6806   1.567   4.705   5.323
 2188WAT     H2 6807   1.609   4.816   5.211
 2189WAT      O 6808   8.952   8.853   2.277
 2189WAT     H1 6809   8.956   8.768   2.329
 2189WAT     H2 6810   8.875   8.850   2.213
 2190WAT      O 6811   9.845   7.824   6.592
 2190WAT     H1 6812   9.814   7.770   6.671
 2190WAT     H2 6813   9.802   7.914   6.595
 2191WAT      O 6814   0.934   8.639   9.170
 2191WAT     H1 6815   0.931   8.560   9.109
 2191WAT     H2 6816   0.896   8.719   9.124
 2192WAT      O 6817   2.152   0.115   0.946
 2192WAT     H1 6818   2.055   0.112   0.972
 2192WAT     H2 6819   2.181   0.024   0.917
 2193WAT      O 6820   0.841   0.434   9.467
 2193WAT     H1 6821   0.872   0.527   9.449
 2193WAT     H2 6822   0.899   0.393   9.538
 2194WAT      O 6823   0.990   7.320   9.476
 2194WAT     H1 6824   0.926   7.370   9.417
 2194WAT     H2 6825   1.078   7.367   9.477
 2195WAT      O 6826   6.908   9.415   8.030
 2195WAT     H1 6827   6.913   9.403   7.931
 2195WAT     H2 6828   6.962   9.495   8.056
 2196WAT      O 6829   6.315   1.833   8.780
 2196WAT     H1 6830   6.243   1.876   8.834
 2196WAT     H2 6831   6.377   1.903   8.745
 2197WAT      O 6832   6.107   8.291   5.911
 2197WAT     H1 6833   6.102   8.242   5.998
 2197WAT     H2 6834   6.038   8.254   5.849
 2198WAT      O 6835   5.170   3.191   6.021
 2198WAT     H1 6836   5.140   3.253   5.948
 2198WAT     H2 6837   5.254   3.227   6.063
 2199WAT      O 6838   1.841   3.404   6.605
 2199WAT     H1 6839   1.841   3.472   6.532
 2199WAT     H2 6840   1.747   3.376   6.624
 2200WAT      O 6841   9.755   1.660   8.403
 2200WAT     H1 6842   9.786   1.567   8.384
 2200WAT     H2 6843   9.823   1.725   8.369
 2201WAT      O 6844   0.943   9.415   5.264
 2201WAT     H1 6845   0.872   9.401   5.334
 2201WAT     H2 6846   1.027   9.370   5.294
 2202WAT      O 6847   4.195   8.948   8.011
 2202WAT     H1 6848   4.168   8.897   7.930
 2202WAT     H2 6849   4.294   8.964   8.008
 2203WAT      O 6850   6.669   0.344   7.625
 2203WAT     H1 6851   6.671   0.279   7.549
 2203WAT     H2 6852   6.622   0.428   7.596
 2204WAT      O 6853   0.984   8.521   5.876
 2204WAT     H1 6854   1.039   8.437   5.868
 2204WAT     H2 6855   1.035   8.597   5.835
 2205WAT      O 6856   6.583   1.444   2.224
 2205WAT     H1 6857   6.662   1.467   2.281
 2205WAT     H2 6858   6.548   1.528   2.181
 2206WAT      O 6859   5.096   0.913   1.270
 2206WAT     H1 6860   5.092   0.970   1.188
 2206WAT     H2 6861   5.111   0.970   1.351
 2207WAT      O 6862   5.902   0.192   4.754
 2207WAT     H1 6863   5.811   0.209   4.717
 2207WAT     H2 6864   5.909   0.233   4.845
 2208WAT      O 6865   9.529   4.260   6.373
 2208WAT     H1 6866   9.499   4.203   6.449
 2208WAT     H2 6867   9.464   4.252   6.297
 2209WAT      O 6868   3.279   7.785   6.234
 2209WAT     H1 6869   3.304   7.711   6.171
 2209WAT     H2 6870   3.357   7.806   6.293
 2210WAT      O 6871   8.778   8.474   0.781
 2210WAT     H1 6872   8.705   8.531   0.818
 2210WAT     H2 6873   8.857   8.530   0.757
 2211WAT      O 6874   5.855   0.558   1.612
 2211WAT     H1 6875   5.875   0.496   1.537
 2211WAT     H2 6876   5.797   0.512   1.679
 2212WAT      O 6877   6.465   9.424   8.876
 2212WAT     H1 6878   6.488   9.360   8.802
 2212WAT     H2 6879   6.414   9.501   8.838
 2213WAT      O 6880   4.607   8.016   4.199
 2213WAT     H1 6881   4.605   8.029   4.100
 2213WAT     H2 6882   4.701   7.997   4.228
 2214WAT      O 6883   9.441   5.259   8.085
 2214WAT     H1 6884   9.520   5.220   8.132
 2214WAT     H2 6885   9.388   5.185   8.043
 2215WAT      O 6886   0.666   5.280   4.579
 2215WAT     H1 6887   0.751   5.246   4.537
 2215WAT     H2 6888   0.686   5.310   4.672
 2216WAT      O 6889   6.637   5.948   7.983
 2216WAT     H1 6890   6.579   6.011   8.034
 2216WAT     H2 6891   6.582   5.872   7.949
 2217WAT      O 6892   5.067   9.259   9.389
 2217WAT     H1 6893   5.130   9.326   9.429
 2217WAT     H2 6894   5.089   9.168   9.425
 2218WAT      O 6895   5.700   1.070   3.693
 2218WAT     H1 6896   5.684   1.018   3.777
 2218WAT     H2 6897   5.798   1.082   3.679
 2219WAT      O 6898   3.498   2.108   1.333
 2219WAT     H1 6899   3.409   2.071   1.361
 2219WAT     H2 6900   3.496   2.131   1.236
 2220WAT      O 6901   8.080   1.993   4.181
 2220WAT     H1 6902   8.089   1.934   4.261
 2220WAT     H2 6903   8.164   1.990   4.127
 2221WAT      O 6904   9.018   9.836   9.865
 2221WAT     H1 6905   8.971   9.853   9.952
 2221WAT     H2 6906   8.967   9.877   9.790
 2222WAT      O 6907   3.529   1.491   4.836
 2222WAT     H1 6908   3.579   1.417   4.793
 2222WAT     H2 6909   3.490   1.551   4.766
 2223WAT      O 6910   4.462   8.127   3.531
 2223WAT     H1 6911   4.451   8.202   3.465
 2223WAT     H2 6912   4.486   8.166   3.621
 2224WAT      O 6913   8.725   5.924   6.717
 2224WAT     H1 6914   8.725   5.887   6.810
 2224WAT     H2 6915   8.814   5.965   6.697
 2225WAT      O 6916   7.316   6.214   7.058
 2225WAT     H1 6917   7.265   6.248   6.979
 2225WAT     H2 6918   7.302   6.274   7.136
 2226WAT      O 6919   1.585   3.755   9.637
 2226WAT     H1 6920   1.681   3.737   9.656
 2226WAT     H2 6921   1.566   3.733   9.541
 2227WAT      O 6922   6.280   8.132   7.038
 2227WAT     H1 6923   6.243   8.083   7.117
 2227WAT     H2 6924   6.366   8.175   7.064
 2228WAT      O 6925   6.119   6.445   7.130
 2228WAT     H1 6926   6.111   6.352   7.096
 2228WAT     H2 6927   6.158   6.504   7.059
 2229WAT      O 6928   3.441   6.804   2.096
 2229WAT     H1 6929   3.356   6.856   2.105
 2229WAT     H2 6930   3.518   6.867   2.082
 2230WAT      O 6931   8.273   8.781   3.258
 2230WAT     H1 6932   8.316   8.862   3.300
 2230WAT     H2 6933   8.308   8.699   3.303
 2231WAT      O 6934   2.003   3.154   9.032
 2231WAT     H1 6935   1.938   3.230   9.032
 2231WAT     H2 6936   1.988   3.097   8.951
 2232WAT      O 6937   5.370   5.793   4.536
 2232WAT     H1 6938   5.305   5.867   4.523
 2232WAT     H2 6939   5.324   5.705   4.522
 2233WAT      O 6940   5.158   2.841   4.168
 2233WAT     H1 6941   5.070   2.799   4.146
 2233WAT     H2 6942   5.210   2.857   4.084
 2234WAT      O 6943   6.608   9.198   4.675
 2234WAT     H1 6944   6.560   9.168   4.758
 2234WAT     H2 6945   6.563   9.160   4.595
 2235WAT      O 6946   2.573   4.457   0.732
 2235WAT     H1 6947   2.548   4.400   0.810
 2235WAT     H2 6948   2.672   4.470   0.731
 2236WAT      O 6949   0.609   5.372   6.034
 2236WAT     H1 6950   0.566   5.409   5.951
 2236WAT     H2 6951   0.556   5.293   6.066
 2237WAT      O 6952   8.666   4.090   9.706
 2237WAT     H1 6953   8.619   4.030   9.641
 2237WAT     H2 6954   8.599   4.151   9.749
 2238WAT      O 6955   2.393   9.285   7.567
 2238WAT     H1 6956   2.377   9.372   7.612
 2238WAT     H2 6957   2.308   9.232   7.566
 2239WAT      O 6958   7.730   6.159   5.159
 2239WAT     H1 6959   7.691   6.191   5.245
 2239WAT     H2 6960   7.779   6.074   5.174
 2240WAT      O 6961   2.035   6.279   0.195
 2240WAT     H1 6962   1.963   6.211   0.206
 2240WAT     H2 6963   2.039   6.338   0.276
 2241WAT      O 6964   5.823   4.279   2.974
 2241WAT     H1 6965   5.836   4.345   2.900
 2241WAT     H2 6966   5.750   4.310   3.035
 2242WAT      O 6967   9.705   0.207   7.611
 2242WAT     H1 6968   9.656   0.208   7.524
 2242WAT     H2 6969   9.677   0.126   7.664
 2243WAT      O 6970   7.883   9.832   3.611
 2243WAT     H1 6971   7.906   9.864   3.703
 2243WAT     H2 6972   7.953   9.769   3.579
 2244WAT      O 6973   8.961   1.364   2.384
 2244WAT     H1 6974   8.900   1.334   2.457
 2244WAT     H2 6975   9.005   1.285   2.342
 2245WAT      O 6976   1.771   5.513   2.367
 2245WAT     H1 6977   1.839   5.497   2.296
 2245WAT     H2 6978   1.692   5.453   2.353
 2246WAT      O 6979   7.989   4.153   2.189
 2246WAT     H1 6980   7.955   4.095   2.115
 2246WAT     H2 6981   8.088   4.162   2.182
 2247WAT      O 6982   2.554   2.094   3.693
 2247WAT     H1 6983   2.552   2.187   3.729
 2247WAT     H2 6984   2.645   2.055   3.704
 2248WAT      O 6985   3.097   7.132   7.481
 2248WAT     H1 6986   3.026   7.161   7.417
 2248WAT     H2 6987   3.181   7.181   7.461
 2249WAT      O 6988   4.737   7.875   4.488
 2249WAT     H1 6989   4.791   7.829   4.559
 2249WAT     H2 6990   4.792   7.881   4.404
 2250WAT      O 6991   3.419   9.196   1.396
 2250WAT     H1 6992   3.324   9.180   1.369
 2250WAT     H2 6993   3.426   9.197   1.496
 2251WAT      O 6994   8.757   9.119   2.757
 2251WAT     H1 6995   8.835   9.127   2.819
 2251WAT     H2 6996   8.711   9.032   2.772
 2252WAT      O 6997   7.504   0.764   1.083
 2252WAT     H1 6998   7.428   0.700   1.072
 2252WAT     H2 6999   7.582   0.716   1.123
 2253WAT      O 7000   3.600   3.808   1.282
 2253WAT     H1 7001   3.547   3.742   1.335
 2253WAT     H2 7002   3.560   3.818   1.191
 2254WAT      O 7003   2.085   9.317   8.634
 2254WAT     H1 7004   1.994   9.290   8.601
 2254WAT     H2 7005   2.155   9.281   8.573
 2255WAT      O 7006   7.375   8.416   5.705
 2255WAT     H1 7007   7.367   8.333   5.651
 2255WAT     H2 7008   7.444   8.404   5.776
 2256WAT      O 7009   2.411   0.587   4.180
 2256WAT     H1 7010   2.417   0.653   4.254
 2256WAT     H2 7011   2.496   0.586   4.128
 2257WAT      O 7012   2.817   1.741   2.734
 2257WAT     H1 7013   2.890   1.691   2.686
 2257WAT     H2 7014   2.770   1.801   2.670
 2258WAT      O 7015   1.253   1.112   8.488
 2258WAT     H1 7016   1.162   1.151   8.478
 2258WAT     H2 7017   1.257   1.057   8.572
 2259WAT      O 7018   0.575   5.984   5.362
 2259WAT     H1 7019   0.616   5.909   5.414
 2259WAT     H2 7020   0.600   5.976   5.265
 2260WAT      O 7021   4.093   0.719   4.807
 2260WAT     H1 7022   4.106   0.802   4.752
 2260WAT     H2 7023   4.005   0.677   4.784
 2261WAT      O 7024   3.242   9.368   1.779
 2261WAT     H1 7025   3.296   9.308   1.718
 2261WAT     H2 7026   3.247   9.462   1.745
 2262WAT      O 7027   4.612   6.346   8.021
 2262WAT     H1 7028   4.559   6.264   8.042
 2262WAT     H2 7029   4.708   6.323   8.013
 2263WAT      O 7030   4.558   3.325   0.202
 2263WAT     H1 7031   4.560   3.225   0.210
 2263WAT     H2 7032   4.611   3.365   0.277
 2264WAT      O 7033   8.247   0.193   7.093
 2264WAT     H1 7034   8.263   0.203   6.995
 2264WAT     H2 7035   8.182   0.120   7.109
 2265WAT      O 7036   3.394   4.167   7.598
 2265WAT     H1 7037   3.396   4.267   7.601
 2265WAT     H2 7038   3.321   4.134   7.658
 2266WAT      O 7039   2.922   2.557   1.123
 2266WAT     H1 7040   2.928   2.636   1.061
 2266WAT     H2 7041   2.899   2.589   1.215
 2267WAT      O 7042   7.196   6.993   0.125
 2267WAT     H1 7043   7.105   7.010   0.163
 2267WAT     H2 7044   7.255   7.071   0.144
 2268WAT      O 7045   8.984   3.933   5.809
 2268WAT     H1 7046   8.929   4.015   5.828
 2268WAT     H2 7047   9.005   3.886   5.894
 2269WAT      O 7048   4.252   9.645   1.174
 2269WAT     H1 7049   4.233   9.559   1.126
 2269WAT     H2 7050   4.224   9.637   1.269
 2270WAT      O 7051   0.525   4.058   3.550
 2270WAT     H1 7052   0.519   3.963   3.581
 2270WAT     H2 7053   0.620   4.088   3.552
 2271WAT      O 7054   7.488   9.699   5.113
 2271WAT     H1 7055   7.508   9.607   5.081
 2271WAT     H2 7056   7.435   9.748   5.043
 2272WAT      O 7057   1.883   2.953   2.130
 2272WAT     H1 7058   1.918   3.015   2.201
 2272WAT     H2 7059   1.956   2.892   2.101
 2273WAT      O 7060   3.502   5.550   9.024
 2273WAT     H1 7061   3.550   5.490   8.960
 2273WAT     H2 7062   3.409   5.567   8.991
 2274WAT      O 7063   3.061   0.580   8.460
 2274WAT     H1 7064   3.020   0.671   8.460
 2274WAT     H2 7065   3.121   0.571   8.540
 2275WAT      O 7066   0.857   1.537   7.604
 2275WAT     H1 7067   0.902   1.573   7.686
 2275WAT     H2 7068   0.896   1.447   7.582
 2276WAT      O 7069   1.085   6.541   6.929
 2276WAT     H1 7070   0.985   6.551   6.931
 2276WAT     H2 7071   1.116   6.539   6.834
 2277WAT      O 7072   0.872   2.791   7.479
 2277WAT     H1 7073   0.856   2.837   7.566
 2277WAT     H2 7074   0.922   2.852   7.418
 2278WAT      O 7075   5.867   2.384   6.878
 2278WAT     H1 7076   5.958   2.361   6.845
 2278WAT     H2 7077   5.868   2.387   6.978
 2279WAT      O 7078   2.312   1.503   2.385
 2279WAT     H1 7079   2.256   1.447   2.445
 2279WAT     H2 7080   2.408   1.496   2.413
 2280WAT      O 7081   0.429   4.239   1.589
 2280WAT     H1 7082   0.357   4.243   1.519
 2280WAT     H2 7083   0.518   4.235   1.544
 2281WAT      O 7084   5.976   8.508   2.966
 2281WAT     H1 7085   5.954   8.445   3.040
 2281WAT     H2 7086   6.073   8.533   2.971
 2282WAT      O 7087   7.155   0.859   9.646
 2282WAT     H1 7088   7.162   0.950   9.687
 2282WAT     H2 7089   7.222   0.798   9.688
 2283WAT      O 7090   0.470   8.988   2.378
 2283WAT     H1 7091   0.372   8.971   2.365
 2283WAT     H2 7092   0.519   8.901   2.382
 2284WAT      O 7093   0.065   8.228   1.140
 2284WAT     H1 7094   0.122   8.167   1.196
 2284WAT     H2 7095  -0.004   8.173   1.091
 2285WAT      O 7096   3.242   0.273   6.341
 2285WAT     H1 7097   3.289   0.249   6.425
 2285WAT     H2 7098   3.308   0.275   6.265
 2286WAT      O 7099   6.121   3.943   2.904
 2286WAT     H1 7100   6.118   3.996   2.819
 2286WAT     H2 7101   6.043   3.967   2.961
 2287WAT      O 7102   8.162   6.661   3.851
 2287WAT     H1 7103   8.151   6.655   3.752
 2287WAT     H2 7104   8.089   6.719   3.889
 2288WAT      O 7105   1.649   5.692   4.383
 2288WAT     H1 7106   1.667   5.783   4.420
 2288WAT     H2 7107   1.550   5.674   4.384
 2289WAT      O 7108   3.825   0.796   5.189
 2289WAT     H1 7109   3.749   0.791   5.253
 2289WAT     H2 7110   3.903   0.745   5.225
 2290WAT      O 7111   5.205   1.985   5.423
 2290WAT     H1 7112   5.233   2.068   5.373
 2290WAT     H2 7113   5.129   2.007   5.484
 2291WAT      O 7114   3.051   2.428   6.510
 2291WAT     H1 7115   3.065   2.503   6.574
 2291WAT     H2 7116   3.081   2.456   6.419
 2292WAT      O 7117   1.831   0.489   7.032
 2292WAT     H1 7118   1.742   0.474   7.076
 2292WAT     H2 7119   1.832   0.580   6.990
 2293WAT      O 7120   9.289   5.530   9.201
 2293WAT     H1 7121   9.329   5.590   9.131
 2293WAT     H2 7122   9.339   5.541   9.287
 2294WAT      O 7123   7.318   5.920   1.141
 2294WAT     H1 7124   7.266   6.005   1.126
 2294WAT     H2 7125   7.256   5.848   1.172
 2295WAT      O 7126   9.501   2.123   7.292
 2295WAT     H1 7127   9.581   2.140   7.348
 2295WAT     H2 7128   9.429   2.188   7.315
 2296WAT      O 7129   3.955   2.210   5.333
 2296WAT     H1 7130   3.870   2.260   5.345
 2296WAT     H2 7131   3.971   2.151   5.412
 2297WAT      O 7132   2.604   5.273   5.087
 2297WAT     H1 7133   2.641   5.322   5.165
 2297WAT     H2 7134   2.646   5.308   5.003
 2298WAT      O 7135   7.528   2.736   5.651
 2298WAT     H1 7136   7.593   2.713   5.579
 2298WAT     H2 7137   7.447   2.677   5.643
 2299WAT      O 7138   8.864   6.039   0.082
 2299WAT     H1 7139   8.894   5.963   0.024
 2299WAT     H2 7140   8.926   6.048   0.160
 2300WAT      O 7141   2.393   4.526   6.189
 2300WAT     H1 7142   2.487   4.554   6.210
 2300WAT     H2 7143   2.350   4.488   6.271
 2301WAT      O 7144   7.395   7.673   6.187
 2301WAT     H1 7145   7.466   7.705   6.250
 2301WAT     H2 7146   7.407   7.575   6.171
 2302WAT      O 7147   5.571   7.857   0.474
 2302WAT     H1 7148   5.610   7.765   0.465
 2302WAT     H2 7149   5.639   7.919   0.513
 2303WAT      O 7150   0.139   5.843   3.887
 2303WAT     H1 7151   0.082   5.917   3.923
 2303WAT     H2 7152   0.234   5.874   3.879
 2304WAT      O 7153   4.640   5.961   4.493
 2304WAT     H1 7154   4.592   6.036   4.447
 2304WAT     H2 7155   4.670   5.991   4.583
 2305WAT      O 7156   2.042   5.642   0.196
 2305WAT     H1 7157   1.989   5.648   0.280
 2305WAT     H2 7158   1.984   5.665   0.117
 2306WAT      O 7159   4.682   0.163   7.168
 2306WAT     H1 7160   4.780   0.176   7.150
 2306WAT     H2 7161   4.638   0.253   7.177
 2307WAT      O 7162   5.990   0.552   4.458
 2307WAT     H1 7163   5.988   0.573   4.556
 2307WAT     H2 7164   5.957   0.458   4.443
 2308WAT      O 7165   7.641   0.434   8.346
 2308WAT     H1 7166   7.552   0.429   8.391
 2308WAT     H2 7167   7.675   0.527   8.349
 2309WAT      O 7168   3.748   6.340   7.314
 2309WAT     H1 7169   3.840   6.346   7.275
 2309WAT     H2 7170   3.697   6.267   7.270
 2310WAT      O 7171   9.793   1.685   9.468
 2310WAT     H1 7172   9.752   1.595   9.481
 2310WAT     H2 7173   9.729   1.745   9.420
 2311WAT      O 7174   1.565   7.718   0.631
 2311WAT     H1 7175   1.619   7.748   0.552
 2311WAT     H2 7176   1.626   7.706   0.710
 2312WAT      O 7177   8.713   6.996   5.594
 2312WAT     H1 7178   8.768   7.061   5.542
 2312WAT     H2 7179   8.727   7.012   5.692
 2313WAT      O 7180   6.011   3.029   5.364
 2313WAT     H1 7181   6.003   2.946   5.420
 2313WAT     H2 7182   6.045   3.005   5.273
 2314WAT      O 7183   7.477   5.585   4.167
 2314WAT     H1 7184   7.500   5.496   4.207
 2314WAT     H2 7185   7.517   5.593   4.076
 2315WAT      O 7186   5.735   9.006   1.362
 2315WAT     H1 7187   5.747   8.995   1.460
 2315WAT     H2 7188   5.659   8.948   1.331
 2316WAT      O 7189   0.760   0.745   8.098
 2316WAT     H1 7190   0.816   0.790   8.167
 2316WAT     H2 7191   0.758   0.800   8.015
 2317WAT      O 7192   1.585   8.457   1.338
 2317WAT     H1 7193   1.646   8.435   1.262
 2317WAT     H2 7194   1.640   8.488   1.416
 2318WAT      O 7195   1.531   5.707   5.000
 2318WAT     H1 7196   1.483   5.759   4.929
 2318WAT     H2 7197   1.536   5.611   4.972
 2319WAT      O 7198   6.700   7.018   1.537
 2319WAT     H1 7199   6.634   7.009   1.463
 2319WAT     H2 7200   6.792   7.024   1.499
 2320WAT      O 7201   3.710   1.183   0.865
 2320WAT     H1 7202   3.724   1.166   0.962
 2320WAT     H2 7203   3.684   1.279   0.851
 2321WAT      O 7204   4.776   5.200   4.128
 2321WAT     H1 7205   4.766   5.184   4.029
 2321WAT     H2 7206   4.686   5.214   4.169
 2322WAT      O 7207   2.569   3.598   1.109
 2322WAT     H1 7208   2.530   3.621   1.198
 2322WAT     H2 7209   2.667   3.618   1.110
 2323WAT      O 7210   9.446   5.644   0.864
 2323WAT     H1 7211   9.422   5.592   0.946
 2323WAT     H2 7212   9.387   5.616   0.789
 2324WAT      O 7213   0.080   2.511   2.444
 2324WAT     H1 7214   0.114   2.552   2.529
 2324WAT     H2 7215  -0.018   2.525   2.437
 2325WAT      O 7216   6.408   3.000   7.492
 2325WAT     H1 7217   6.494   3.012   7.442
 2325WAT     H2 7218   6.339   3.062   7.454
 2326WAT      O 7219   7.810   9.162   4.445
 2326WAT     H1 7220   7.755   9.091   4.401
 2326WAT     H2 7221   7.868   9.121   4.515
 2327WAT      O 7222   8.406   2.692   7.148
 2327WAT     H1 7223   8.355   2.756   7.090
 2327WAT     H2 7224   8.429   2.737   7.235
 2328WAT      O 7225   4.469   8.011   5.753
 2328WAT     H1 7226   4.557   8.055   5.731
 2328WAT     H2 7227   4.403   8.081   5.779
 2329WAT      O 7228   3.141   1.039   8.511
 2329WAT     H1 7229   3.150   1.107   8.439
 2329WAT     H2 7230   3.230   1.024   8.555
 2330WAT      O 7231   6.817   6.122   7.026
 2330WAT     H1 7232   6.873   6.071   7.091
 2330WAT     H2 7233   6.723   6.124   7.058
 2331WAT      O 7234   9.814   5.865   9.572
 2331WAT     H1 7235   9.840   5.777   9.613
 2331WAT     H2 7236   9.895   5.910   9.536
 2332WAT      O 7237   9.816   4.975   8.294
 2332WAT     H1 7238   9.831   5.023   8.380
 2332WAT     H2 7239   9.902   4.970   8.243
 2333WAT      O 7240   9.343   9.635   5.921
 2333WAT     H1 7241   9.427   9.666   5.879
 2333WAT     H2 7242   9.287   9.714   5.948
 2334WAT      O 7243   5.956   7.934   8.116
 2334WAT     H1 7244   5.911   8.007   8.167
 2334WAT     H2 7245   5.899   7.852   8.116
 2335WAT      O 7246   6.618   1.289   9.755
 2335WAT     H1 7247   6.536   1.322   9.802
 2335WAT     H2 7248   6.690   1.270   9.822
 2336WAT      O 7249   6.550   6.019   5.711
 2336WAT     H1 7250   6.511   5.927   5.707
 2336WAT     H2 7251   6.554   6.049   5.806
 2337WAT      O 7252   3.991   2.505   5.407
 2337WAT     H1 7253   4.057   2.457   5.464
 2337WAT     H2 7254   3.932   2.438   5.360
 2338WAT      O 7255   2.056   9.098   4.247
 2338WAT     H1 7256   2.001   9.116   4.328
 2338WAT     H2 7257   2.123   9.172   4.234
 2339WAT      O 7258   8.673   0.739   1.848
 2339WAT     H1 7259   8.610   0.668   1.881
 2339WAT     H2 7260   8.624   0.825   1.837
 2340WAT      O 7261   4.893   7.121   1.250
 2340WAT     H1 7262   4.902   7.051   1.320
 2340WAT     H2 7263   4.898   7.211   1.292
 2341WAT      O 7264   1.260   3.905   6.229
 2341WAT     H1 7265   1.251   3.811   6.194
 2341WAT     H2 7266   1.333   3.952   6.178
 2342WAT      O 7267   0.030   3.435   3.300
 2342WAT     H1 7268  -0.045   3.493   3.332
 2342WAT     H2 7269   0.033   3.435   3.200
 2343WAT      O 7270   9.016   4.947   5.264
 2343WAT     H1 7271   9.032   5.043   5.241
 2343WAT     H2 7272   9.093   4.892   5.233
 2344WAT      O 7273   1.253   5.810   4.523
 2344WAT     H1 7274   1.270   5.767   4.434
 2344WAT     H2 7275   1.318   5.884   4.537
 2345WAT      O 7276   5.966   5.662   7.996
 2345WAT     H1 7277   5.992   5.747   8.041
 2345WAT     H2 7278   6.035   5.637   7.929
 2346WAT      O 7279   9.834   4.851   3.648
 2346WAT     H1 7280   9.859   4.909   3.726
 2346WAT     H2 7281   9.735   4.856   3.634
 2347WAT      O 7282   5.924   8.629   2.405
 2347WAT     H1 7283   5.838   8.678   2.396
 2347WAT     H2 7284   5.919   8.541   2.356
 2348WAT      O 7285   8.120   6.604   4.865
 2348WAT     H1 7286   8.181   6.675   4.830
 2348WAT     H2 7287   8.130   6.597   4.964
 2349WAT      O 7288   0.771   5.338   5.592
 2349WAT     H1 7289   0.774   5.305   5.498
 2349WAT     H2 7290   0.700   5.288   5.642
 2350WAT      O 7291   5.053   0.325   4.990
 2350WAT     H1 7292   4.984   0.290   5.053
 2350WAT     H2 7293   5.132   0.358   5.043
 2351WAT      O 7294   5.156   2.694   9.842
 2351WAT     H1 7295   5.228   2.761   9.827
 2351WAT     H2 7296   5.078   2.714   9.782
 2352WAT      O 7297   9.761   9.478   4.062
 2352WAT     H1 7298   9.848   9.463   4.015
 2352WAT     H2 7299   9.774   9.538   4.140
 2353WAT      O 7300   9.348   8.896   2.288
 2353WAT     H1 7301   9.302   8.975   2.248
 2353WAT     H2 7302   9.302   8.869   2.372
 2354WAT      O 7303   0.728   1.794   9.326
 2354WAT     H1 7304   0.720   1.854   9.247
 2354WAT     H2 7305   0.771   1.844   9.401
 2355WAT      O 7306   1.326   0.017   3.850
 2355WAT     H1 7307   1.237   0.038   3.890
 2355WAT     H2 7308   1.396   0.020   3.921
 2356WAT      O 7309   2.227   6.302   3.619
 2356WAT     H1 7310   2.284   6.247   3.681
 2356WAT     H2 7311   2.271   6.306   3.529
 2357WAT      O 7312   9.291   6.096   2.603
 2357WAT     H1 7313   9.255   6.126   2.691
 2357WAT     H2 7314   9.350   6.167   2.565
 2358WAT      O 7315   9.804   2.826   0.528
 2358WAT     H1 7316   9.802   2.756   0.599
 2358WAT     H2 7317   9.781   2.915   0.567
 2359WAT      O 7318   3.657   2.270   4.786
 2359WAT     H1 7319   3.606   2.355   4.774
 2359WAT     H2 7320   3.736   2.270   4.724
 2360WAT      O 7321   9.384   2.168   3.674
 2360WAT     H1 7322   9.291   2.188   3.706
 2360WAT     H2 7323   9.421   2.090   3.726
 2361WAT      O 7324   5.843   0.437   2.858
 2361WAT     H1 7325   5.760   0.472   2.902
 2361WAT     H2 7326   5.827   0.429   2.759
 2362WAT      O 7327   9.525   2.847   3.700
 2362WAT     H1 7328   9.537   2.885   3.608
 2362WAT     H2 7329   9.560   2.753   3.701
 2363WAT      O 7330   7.045   0.265   6.264
 2363WAT     H1 7331   7.054   0.349   6.212
 2363WAT     H2 7332   7.011   0.192   6.205
 2364WAT      O 7333   7.311   3.649   5.260
 2364WAT     H1 7334   7.336   3.555   5.285
 2364WAT     H2 7335   7.216   3.650   5.228
 2365WAT      O 7336   9.837   3.932   7.191
 2365WAT     H1 7337   9.888   3.902   7.110
 2365WAT     H2 7338   9.789   3.854   7.230
 2366WAT      O 7339   2.925   7.968   9.664
 2366WAT     H1 7340   2.935   7.990   9.567
 2366WAT     H2 7341   2.933   7.869   9.676
 2367WAT      O 7342   4.468   4.734   0.751
 2367WAT     H1 7343   4.497   4.639   0.737
 2367WAT     H2 7344   4.450   4.777   0.663
 2368WAT      O 7345   6.247   4.317   5.746
 2368WAT     H1 7346   6.161   4.367   5.762
 2368WAT     H2 7347   6.316   4.349   5.811
 2369WAT      O 7348   6.300   7.044   0.245
 2369WAT     H1 7349   6.232   7.001   0.304
 2369WAT     H2 7350   6.276   7.141   0.233
 2370WAT      O 7351   1.045   1.285   6.601
 2370WAT     H1 7352   0.985   1.292   6.680
 2370WAT     H2 7353   1.007   1.220   6.535
 2371WAT      O 7354   3.691   0.986   9.549
 2371WAT     H1 7355   3.734   0.897   9.562
 2371WAT     H2 7356   3.690   1.036   9.636
 2372WAT      O 7357   2.741   5.481   4.584
 2372WAT     H1 7358   2.703   5.541   4.513
 2372WAT     H2 7359   2.839   5.497   4.591
 2373WAT      O 7360   2.520   7.275   4.875
 2373WAT     H1 7361   2.572   7.261   4.792
 2373WAT     H2 7362   2.568   7.235   4.953
 2374WAT      O 7363   0.237   0.704   9.342
 2374WAT     H1 7364   0.324   0.659   9.365
 2374WAT     H2 7365   0.161   0.645   9.370
 2375WAT      O 7366   0.080   3.336   1.360
 2375WAT     H1 7367   0.158   3.378   1.314
 2375WAT     H2 7368  -0.005   3.369   1.319
 2376WAT      O 7369   3.255   2.016   7.601
 2376WAT     H1 7370   3.339   2.057   7.564
 2376WAT     H2 7371   3.189   2.004   7.527
 2377WAT      O 7372   4.763   9.743   7.667
 2377WAT     H1 7373   4.784   9.784   7.756
 2377WAT     H2 7374   4.803   9.652   7.661
 2378WAT      O 7375   0.602   1.075   9.389
 2378WAT     H1 7376   0.517   1.117   9.422
 2378WAT     H2 7377   0.623   1.111   9.298
 2379WAT      O 7378   2.320   1.440   9.459
 2379WAT     H1 7379   2.411   1.412   9.489
 2379WAT     H2 7380   2.323   1.469   9.364
 2380WAT      O 7381   1.732   6.656   4.871
 2380WAT     H1 7382   1.804   6.606   4.919
 2380WAT     H2 7383   1.747   6.754   4.882
 2381WAT      O 7384   8.745   5.934   6.426
 2381WAT     H1 7385   8.721   5.935   6.523
 2381WAT     H2 7386   8.715   5.848   6.385
 2382WAT      O 7387   9.052   9.249   1.461
 2382WAT     H1 7388   9.058   9.249   1.560
 2382WAT     H2 7389   8.956   9.247   1.433
 2383WAT      O 7390   6.496   2.675   9.445
 2383WAT     H1 7391   6.501   2.579   9.418
 2383WAT     H2 7392   6.402   2.698   9.470
 2384WAT      O 7393   9.368   4.070   0.375
 2384WAT     H1 7394   9.406   3.979   0.363
 2384WAT     H2 7395   9.270   4.068   0.354
 2385WAT      O 7396   3.627   2.660   6.599
 2385WAT     H1 7397   3.571   2.582   6.574
 2385WAT     H2 7398   3.715   2.629   6.635
 2386WAT      O 7399   2.489   0.781   9.706
 2386WAT     H1 7400   2.495   0.855   9.639
 2386WAT     H2 7401   2.578   0.767   9.748
 2387WAT      O 7402   3.872   0.604   4.683
 2387WAT     H1 7403   3.791   0.552   4.712
 2387WAT     H2 7404   3.939   0.541   4.644
 2388WAT      O 7405   4.452   3.727   9.745
 2388WAT     H1 7406   4.528   3.689   9.798
 2388WAT     H2 7407   4.470   3.715   9.648
 2389WAT      O 7408   0.762   5.974   5.979
 2389WAT     H1 7409   0.832   6.045   5.988
 2389WAT     H2 7410   0.800   5.886   6.006
 2390WAT      O 7411   5.130   3.976   0.742
 2390WAT     H1 7412   5.151   3.959   0.838
 2390WAT     H2 7413   5.209   3.954   0.685
 2391WAT      O 7414   1.775   5.069   9.687
 2391WAT     H1 7415   1.828   5.007   9.745
 2391WAT     H2 7416   1.702   5.110   9.741
 2392WAT      O 7417   6.076   7.979   0.434
 2392WAT     H1 7418   6.109   8.056   0.487
 2392WAT     H2 7419   6.145   7.906   0.434
 2393WAT      O 7420   1.865   3.094   9.476
 2393WAT     H1 7421   1.817   3.006   9.477
 2393WAT     H2 7422   1.948   3.086   9.421
 2394WAT      O 7423   2.154   0.271   0.150
 2394WAT     H1 7424   2.147   0.187   0.203
 2394WAT     H2 7425   2.182   0.250   0.056
 2395WAT      O 7426   7.260   1.805   4.138
 2395WAT     H1 7427   7.208   1.887   4.113
 2395WAT     H2 7428   7.303   1.818   4.227
 2396WAT      O 7429   2.150   4.727   4.069
 2396WAT     H1 7430   2.191   4.759   4.155
 2396WAT     H2 7431   2.071   4.785   4.047
 2397WAT      O 7432   1.758   9.091   3.860
 2397WAT     H1 7433   1.801   9.048   3.940
 2397WAT     H2 7434   1.753   9.190   3.873
 2398WAT      O 7435   9.178   2.477   8.044
 2398WAT     H1 7436   9.160   2.471   8.142
 2398WAT     H2 7437   9.105   2.530   8.000
 2399WAT      O 7438   8.852   9.811   9.022
 2399WAT     H1 7439   8.895   9.850   8.940
 2399WAT     H2 7440   8.924   9.788   9.088
 2400WAT      O 7441   6.869   2.745   0.683
 2400WAT     H1 7442   6.932   2.691   0.739
 2400WAT     H2 7443   6.855   2.698   0.596
 2401WAT      O 7444   9.457   6.562   9.652
 2401WAT     H1 7445   9.391   6.599   9.718
 2401WAT     H2 7446   9.408   6.523   9.574
 2402WAT      O 7447   5.462   2.373   3.286
 2402WAT     H1 7448   5.496   2.353   3.194
 2402WAT     H2 7449   5.374   2.420   3.280
 2403WAT      O 7450   1.440   7.292   5.870
 2403WAT     H1 7451   1.378   7.366   5.843
 2403WAT     H2 7452   1.516   7.331   5.923
 2404WAT      O 7453   3.864   6.383   5.583
 2404WAT     H1 7454   3.870   6.361   5.486
 2404WAT     H2 7455   3.768   6.387   5.611
 2405WAT      O 7456   6.569   1.290   6.478
 2405WAT     H1 7457   6.540   1.202   6.440
 2405WAT     H2 7458   6.592   1.352   6.404
 2406WAT      O 7459   0.848   3.566   3.790
 2406WAT     H1 7460   0.899   3.626   3.728
 2406WAT     H2 7461   0.830   3.614   3.876
 2407WAT      O 7462   6.246   1.795   0.764
 2407WAT     H1 7463   6.328   1.827   0.716
 2407WAT     H2 7464   6.263   1.706   0.805
 2408WAT      O 7465   2.557   5.911   0.678
 2408WAT     H1 7466   2.458   5.923   0.686
 2408WAT     H2 7467   2.586   5.834   0.736
 2409WAT      O 7468   0.059   9.184   1.416
 2409WAT     H1 7469  -0.013   9.142   1.360
 2409WAT     H2 7470   0.057   9.283   1.403
 2410WAT      O 7471   1.170   9.194   1.355
 2410WAT     H1 7472   1.104   9.130   1.315
 2410WAT     H2 7473   1.122   9.277   1.385
 2411WAT      O 7474   0.735   5.048   9.726
 2411WAT     H1 7475   0.684   4.986   9.786
 2411WAT     H2 7476   0.803   4.997   9.674
 2412WAT      O 7477   7.667   5.304   4.403
 2412WAT     H1 7478   7.687   5.207   4.415
 2412WAT     H2 7479   7.744   5.358   4.437
 2413WAT      O 7480   4.539   4.084   7.487
 2413WAT     H1 7481   4.570   4.106   7.394
 2413WAT     H2 7482   4.486   4.000   7.485
 2414WAT      O 7483   4.582   8.510   2.939
 2414WAT     H1 7484   4.669   8.462   2.953
 2414WAT     H2 7485   4.600   8.599   2.899
 2415WAT      O 7486   1.341   8.134   6.388
 2415WAT     H1 7487   1.440   8.147   6.386
 2415WAT     H2 7488   1.310   8.129   6.483
 2416WAT      O 7489   6.595   8.521   7.611
 2416WAT     H1 7490   6.606   8.617   7.638
 2416WAT     H2 7491   6.624   8.510   7.516
 2417WAT      O 7492   8.092   2.852   3.080
 2417WAT     H1 7493   8.092   2.773   3.141
 2417WAT     H2 7494   8.174   2.850   3.022
 2418WAT      O 7495   4.882   9.093   8.125
 2418WAT     H1 7496   4.817   9.099   8.050
 2418WAT     H2 7497   4.875   9.003   8.168
 2419WAT      O 7498   1.723   9.783   2.173
 2419WAT     H1 7499   1.664   9.765   2.094
 2419WAT     H2 7500   1.759   9.876   2.167
 2420WAT      O 7501   8.645   3.313   6.110
 2420WAT     H1 7502   8.670   3.224   6.072
 2420WAT     H2 7503   8.685   3.323   6.201
 2421WAT      O 7504   2.683   0.889   3.967
 2421WAT     H1 7505   2.769   0.929   3.999
 2421WAT     H2 7506   2.700   0.796   3.932
 2422WAT      O 7507   3.134   6.044   9.554
 2422WAT     H1 7508   3.143   6.142   9.572
 2422WAT     H2 7509   3.179   5.992   9.626
 2423WAT      O 7510   0.610   9.496   7.042
 2423WAT     H1 7511   0.690   9.540   7.082
 2423WAT     H2 7512   0.527   9.536   7.080
 2424WAT      O 7513   1.633   3.836   6.612
 2424WAT     H1 7514   1.582   3.828   6.698
 2424WAT     H2 7515   1.722   3.792   6.622
 2425WAT      O 7516   5.044   1.806   4.177
 2425WAT     H1 7517   4.970   1.824   4.241
 2425WAT     H2 7518   5.071   1.710   4.183
 2426WAT      O 7519   1.349   1.432   4.831
 2426WAT     H1 7520   1.296   1.444   4.915
 2426WAT     H2 7521   1.446   1.449   4.850
 2427WAT      O 7522   6.430   4.346   3.721
 2427WAT     H1 7523   6.401   4.309   3.809
 2427WAT     H2 7524   6.371   4.311   3.649
 2428WAT      O 7525   8.907   4.185   1.536
 2428WAT     H1 7526   8.879   4.129   1.614
 2428WAT     H2 7527   8.870   4.147   1.452
 2429WAT      O 7528   2.105   8.279   4.525
 2429WAT     H1 7529   2.122   8.281   4.426
 2429WAT     H2 7530   2.009   8.303   4.542
 2430WAT      O 7531   4.572   4.437   6.566
 2430WAT     H1 7532   4.625   4.522   6.571
 2430WAT     H2 7533   4.587   4.393   6.477
 2431WAT      O 7534   9.710   2.923   1.213
 2431WAT     H1 7535   9.621   2.932   1.257
 2431WAT     H2 7536   9.744   3.014   1.187
 2432WAT      O 7537   0.419   6.781   5.168
 2432WAT     H1 7538   0.519   6.788   5.180
 2432WAT     H2 7539   0.380   6.873   5.162
 2433WAT      O 7540   1.238   2.571   3.320
 2433WAT     H1 7541   1.158   2.533   3.367
 2433WAT     H2 7542   1.279   2.501   3.262
 2434WAT      O 7543   6.429   1.092   3.839
 2434WAT     H1 7544   6.388   1.002   3.852
 2434WAT     H2 7545   6.522   1.092   3.876
 2435WAT      O 7546   4.119   3.406   8.607
 2435WAT     H1 7547   4.152   3.312   8.616
 2435WAT     H2 7548   4.026   3.412   8.644
 2436WAT      O 7549   2.123   3.043   6.293
 2436WAT     H1 7550   2.141   3.132   6.251
 2436WAT     H2 7551   2.101   3.055   6.390
 2437WAT      O 7552   5.865   3.230   3.899
 2437WAT     H1 7553   5.782   3.176   3.883
 2437WAT     H2 7554   5.939   3.196   3.841
 2438WAT      O 7555   2.760   4.359   8.041
 2438WAT     H1 7556   2.828   4.344   8.113
 2438WAT     H2 7557   2.701   4.436   8.066
 2439WAT      O 7558   5.060   9.057   2.365
 2439WAT     H1 7559   5.030   8.976   2.315
 2439WAT     H2 7560   5.029   9.051   2.460
 2440WAT      O 7561   4.164   4.816   8.234
 2440WAT     H1 7562   4.139   4.912   8.225
 2440WAT     H2 7563   4.117   4.763   8.163
 2441WAT      O 7564   5.230   6.003   0.739
 2441WAT     H1 7565   5.273   5.926   0.785
 2441WAT     H2 7566   5.196   5.974   0.649
 2442WAT      O 7567   6.224   7.333   7.646
 2442WAT     H1 7568   6.283   7.338   7.566
 2442WAT     H2 7569   6.186   7.241   7.655
 2443WAT      O 7570   5.815   4.100   3.638
 2443WAT     H1 7571   5.887   4.132   3.700
 2443WAT     H2 7572   5.839   4.011   3.601
 2444WAT      O 7573   8.746   4.993   0.970
 2444WAT     H1 7574   8.646   4.991   0.977
 2444WAT     H2 7575   8.772   5.025   0.879
 2445WAT      O 7576   8.823   8.116   0.129
 2445WAT     H1 7577   8.817   8.206   0.085
 2445WAT     H2 7578   8.765   8.114   0.210
 2446WAT      O 7579   9.081   1.414   0.741
 2446WAT     H1 7580   9.100   1.327   0.786
 2446WAT     H2 7581   9.100   1.405   0.643
 2447WAT      O 7582   6.444   1.712   5.343
 2447WAT     H1 7583   6.388   1.795   5.344
 2447WAT     H2 7584   6.385   1.632   5.332
 2448WAT      O 7585   9.241   2.422   6.396
 2448WAT     H1 7586   9.340   2.425   6.385
 2448WAT     H2 7587   9.206   2.514   6.413
 2449WAT      O 7588   9.526   8.362   0.459
 2449WAT     H1 7589   9.497   8.434   0.395
 2449WAT     H2 7590   9.592   8.400   0.524
 2450WAT      O 7591   7.623   2.001   8.325
 2450WAT     H1 7592   7.638   1.922   8.266
 2450WAT     H2 7593   7.666   1.986   8.414
 2451WAT      O 7594   3.243   1.989   4.772
 2451WAT     H1 7595   3.225   2.085   4.751
 2451WAT     H2 7596   3.157   1.944   4.795
 2452WAT      O 7597   7.467   5.322   5.690
 2452WAT     H1 7598   7.453   5.421   5.681
 2452WAT     H2 7599   7.403   5.287   5.758
 2453WAT      O 7600   5.920   6.687   1.887
 2453WAT     H1 7601   5.965   6.774   1.865
 2453WAT     H2 7602   5.844   6.705   1.949
 2454WAT      O 7603   2.878   6.239   6.131
 2454WAT     H1 7604   2.906   6.172   6.062
 2454WAT     H2 7605   2.780   6.231   6.147
 2455WAT      O 7606   2.961   8.703   3.428
 2455WAT     H1 7607   2.868   8.707   3.465
 2455WAT     H2 7608   3.013   8.633   3.476
 2456WAT      O 7609   6.504   2.496   4.478
 2456WAT     H1 7610   6.560   2.441   4.539
 2456WAT     H2 7611   6.513   2.593   4.502
 2457WAT      O 7612   5.868   5.216   1.125
 2457WAT     H1 7613   5.918   5.277   1.064
 2457WAT     H2 7614   5.929   5.144   1.158
 2458WAT      O 7615   7.956   3.817   4.262
 2458WAT     H1 7616   7.909   3.805   4.174
 2458WAT     H2 7617   8.023   3.744   4.274
 2459WAT      O 7618   1.164   2.457   4.622
 2459WAT     H1 7619   1.207   2.511   4.694
 2459WAT     H2 7620   1.171   2.360   4.645
 2460WAT      O 7621   0.883   0.185   6.542
 2460WAT     H1 7622   0.983   0.187   6.546
 2460WAT     H2 7623   0.846   0.221   6.628
 2461WAT      O 7624   8.610   0.153   1.145
 2461WAT     H1 7625   8.599   0.064   1.189
 2461WAT     H2 7626   8.610   0.142   1.046
 2462WAT      O 7627   0.190   5.017   3.101
 2462WAT     H1 7628   0.112   5.067   3.064
 2462WAT     H2 7629   0.269   5.077   3.105
 2463WAT      O 7630   6.378   3.947   3.028
 2463WAT     H1 7631   6.383   4.030   3.084
 2463WAT     H2 7632   6.288   3.941   2.986
 2464WAT      O 7633   2.798   2.204   9.542
 2464WAT     H1 7634   2.820   2.279   9.604
 2464WAT     H2 7635   2.714   2.159   9.572
 2465WAT      O 7636   0.034   1.100   2.657
 2465WAT     H1 7637   0.109   1.127   2.596
 2465WAT     H2 7638   0.061   1.022   2.712
 2466WAT      O 7639   1.029   1.044   1.670
 2466WAT     H1 7640   1.113   1.025   1.722
 2466WAT     H2 7641   0.958   1.077   1.732
 2467WAT      O 7642   9.086   5.715   1.812
 2467WAT     H1 7643   9.072   5.776   1.734
 2467WAT     H2 7644   9.172   5.667   1.803
 2468WAT      O 7645   2.164   5.584   5.594
 2468WAT     H1 7646   2.165   5.654   5.665
 2468WAT     H2 7647   2.241   5.521   5.608
 2469WAT      O 7648   2.933   5.878   7.838
 2469WAT     H1 7649   2.931   5.790   7.791
 2469WAT     H2 7650   2.930   5.863   7.936
 2470WAT      O 7651   3.570   7.032   6.085
 2470WAT     H1 7652   3.645   6.966   6.075
 2470WAT     H2 7653   3.594   7.116   6.037
 2471WAT      O 7654   3.158   5.792   0.557
 2471WAT     H1 7655   3.160   5.719   0.625
 2471WAT     H2 7656   3.131   5.754   0.468
 2472WAT      O 7657   7.078   0.456   1.200
 2472WAT     H1 7658   7.031   0.381   1.246
 2472WAT     H2 7659   7.013   0.531   1.183
 2473WAT      O 7660   3.937   4.579   3.382
 2473WAT     H1 7661   3.980   4.528   3.308
 2473WAT     H2 7662   3.965   4.675   3.378
 2474WAT      O 7663   7.297   3.288   5.071
 2474WAT     H1 7664   7.242   3.204   5.071
 2474WAT     H2 7665   7.292   3.331   4.981
 2475WAT      O 7666   9.105   0.398   4.008
 2475WAT     H1 7667   9.115   0.339   3.929
 2475WAT     H2 7668   9.108   0.343   4.092
 2476WAT      O 7669   2.429   4.461   8.544
 2476WAT     H1 7670   2.444   4.363   8.556
 2476WAT     H2 7671   2.495   4.512   8.600
 2477WAT      O 7672   9.844   5.066   5.034
 2477WAT     H1 7673   9.888   5.110   5.113
 2477WAT     H2 7674   9.913   5.019   4.980
 2478WAT      O 7675   8.037   3.085   5.722
 2478WAT     H1 7676   7.958   3.132   5.763
 2478WAT     H2 7677   8.009   3.044   5.636
 2479WAT      O 7678   4.392   8.211   6.314
 2479WAT     H1 7679   4.399   8.233   6.217
 2479WAT     H2 7680   4.296   8.203   6.340
 2480WAT      O 7681   5.808   7.841   0.762
 2480WAT     H1 7682   5.780   7.746   0.746
 2480WAT     H2 7683   5.789   7.896   0.680
 2481WAT      O 7684   7.481   7.281   1.705
 2481WAT     H1 7685   7.419   7.360   1.703
 2481WAT     H2 7686   7.432   7.199   1.675
 2482WAT      O 7687   5.619   7.356   6.382
 2482WAT     H1 7688   5.519   7.346   6.382
 2482WAT     H2 7689   5.655   7.325   6.470
 2483WAT      O 7690   4.299   1.117   3.342
 2483WAT     H1 7691   4.252   1.057   3.276
 2483WAT     H2 7692   4.284   1.082   3.434
 2484WAT      O 7693   4.659   7.166   9.787
 2484WAT     H1 7694   4.677   7.192   9.692
 2484WAT     H2 7695   4.660   7.066   9.795
 2485WAT      O 7696   4.944   8.228   0.959
 2485WAT     H1 7697   4.928   8.210   1.056
 2485WAT     H2 7698   5.040   8.210   0.937
 2486WAT      O 7699   2.981   3.614   9.766
 2486WAT     H1 7700   2.932   3.546   9.710
 2486WAT     H2 7701   3.079   3.607   9.748
 2487WAT      O 7702   8.178   9.230   2.508
 2487WAT     H1 7703   8.133   9.315   2.482
 2487WAT     H2 7704   8.115   9.175   2.563
 2488WAT      O 7705   0.986   7.322   6.966
 2488WAT     H1 7706   1.022   7.357   6.879
 2488WAT     H2 7707   0.888   7.304   6.957
 2489WAT      O 7708   1.844   4.924   5.756
 2489WAT     H1 7709   1.837   4.829   5.787
 2489WAT     H2 7710   1.863   4.925   5.658
 2490WAT      O 7711   0.543   4.422   4.617
 2490WAT     H1 7712   0.560   4.455   4.710
 2490WAT     H2 7713   0.628   4.426   4.564
 2491WAT      O 7714   8.860   5.402   6.417
 2491WAT     H1 7715   8.923   5.398   6.339
 2491WAT     H2 7716   8.835   5.310   6.445
 2492WAT      O 7717   2.824   0.889   5.978
 2492WAT     H1 7718   2.914   0.916   6.013
 2492WAT     H2 7719   2.765   0.970   5.972
 2493WAT      O 7720   8.505   7.083   0.155
 2493WAT     H1 7721   8.489   7.122   0.246
 2493WAT     H2 7722   8.539   7.154   0.094
 2494WAT      O 7723   7.627   2.704   6.676
 2494WAT     H1 7724   7.679   2.623   6.651
 2494WAT     H2 7725   7.668   2.785   6.634
 2495WAT      O 7726   3.934   6.435   1.609
 2495WAT     H1 7727   3.979   6.359   1.562
 2495WAT     H2 7728   3.868   6.399   1.676
 2496WAT      O 7729   6.424   0.336   9.035
 2496WAT     H1 7730   6.444   0.407   9.102
 2496WAT     H2 7731   6.337   0.355   8.990
 2497WAT      O 7732   5.501   2.362   8.793
 2497WAT     H1 7733   5.411   2.326   8.768
 2497WAT     H2 7734   5.555   2.377   8.710
 2498WAT      O 7735   7.514   2.308   4.347
 2498WAT     H1 7736   7.571   2.316   4.429
 2498WAT     H2 7737   7.572   2.298   4.267
 2499WAT      O 7738   5.470   2.516   2.321
 2499WAT     H1 7739   5.517   2.468   2.395
 2499WAT     H2 7740   5.379   2.544   2.351
 2500WAT      O 7741   7.258   7.791   7.537
 2500WAT     H1 7742   7.193   7.726   7.578
 2500WAT     H2 7743   7.227   7.884   7.554
 2501WAT      O 7744   8.785   6.911   2.783
 2501WAT     H1 7745   8.783   6.865   2.872
 2501WAT     H2 7746   8.855   6.868   2.726
 2502WAT      O 7747   7.969   8.875   6.522
 2502WAT     H1 7748   8.026   8.915   6.450
 2502WAT     H2 7749   7.962   8.938   6.599
 2503WAT      O 7750   4.939   0.225   7.142
 2503WAT     H1 7751   4.950   0.313   7.186
 2503WAT     H2 7752   4.959   0.234   7.044
 2504WAT      O 7753   4.289   8.233   5.876
 2504WAT     H1 7754   4.225   8.157   5.879
 2504WAT     H2 7755   4.245   8.311   5.832
 2505WAT      O 7756   3.129   4.412   1.300
 2505WAT     H1 7757   3.196   4.475   1.338
 2505WAT     H2 7758   3.095   4.448   1.213
 2506WAT      O 7759   9.712   1.866   6.586
 2506WAT     H1 7760   9.643   1.933   6.615
 2506WAT     H2 7761   9.667   1.783   6.555
 2507WAT      O 7762   5.863   4.674   7.137
 2507WAT     H1 7763   5.785   4.709   7.188
 2507WAT     H2 7764   5.948   4.715   7.172
 2508WAT      O 7765   5.070   0.513   2.044
 2508WAT     H1 7766   5.103   0.575   1.972
 2508WAT     H2 7767   4.994   0.556   2.093
 2509WAT      O 7768   8.196   0.511   0.758
 2509WAT     H1 7769   8.176   0.414   0.773
 2509WAT     H2 7770   8.147   0.543   0.677
 2510WAT      O 7771   9.637   6.084   4.340
 2510WAT     H1 7772   9.719   6.071   4.283
 2510WAT     H2 7773   9.605   6.178   4.331
 2511WAT      O 7774   3.272   8.748   2.581
 2511WAT     H1 7775   3.193   8.719   2.634
 2511WAT     H2 7776   3.290   8.683   2.507
 2512WAT      O 7777   1.911   4.943   7.481
 2512WAT     H1 7778   1.825   4.922   7.434
 2512WAT     H2 7779   1.946   5.031   7.447
 2513WAT      O 7780   5.640   9.494   7.044
 2513WAT     H1 7781   5.585   9.557   6.989
 2513WAT     H2 7782   5.727   9.538   7.067
 2514WAT      O 7783   3.146   8.979   8.060
 2514WAT     H1 7784   3.125   8.957   8.156
 2514WAT     H2 7785   3.219   8.919   8.027
 2515WAT      O 7786   9.652   0.910   0.776
 2515WAT     H1 7787   9.747   0.944   0.778
 2515WAT     H2 7788   9.651   0.815   0.805
 2516WAT      O 7789   5.970   9.247   7.557
 2516WAT     H1 7790   5.993   9.342   7.538
 2516WAT     H2 7791   5.900   9.243   7.629
 2517WAT      O 7792   5.098   0.063   5.799
 2517WAT     H1 7793   5.009   0.027   5.828
 2517WAT     H2 7794   5.161   0.063   5.877
 2518WAT      O 7795   3.832   5.697   9.346
 2518WAT     H1 7796   3.907   5.713   9.282
 2518WAT     H2 7797   3.825   5.773   9.410
 2519WAT      O 7798   0.110   4.605   2.006
 2519WAT     H1 7799   0.094   4.511   1.974
 2519WAT     H2 7800   0.062   4.620   2.092
 2520WAT      O 7801   2.211   0.495   6.292
 2520WAT     H1 7802   2.148   0.420   6.274
 2520WAT     H2 7803   2.188   0.573   6.233
 2521WAT      O 7804   4.187   8.415   8.865
 2521WAT     H1 7805   4.108   8.452   8.915
 2521WAT     H2 7806   4.182   8.315   8.865
 2522WAT      O 7807   3.033   8.087   4.906
 2522WAT     H1 7808   2.971   8.021   4.950
 2522WAT     H2 7809   2.978   8.157   4.859
 2523WAT      O 7810   4.982   2.166   4.158
 2523WAT     H1 7811   4.909   2.168   4.226
 2523WAT     H2 7812   5.064   2.124   4.198
 2524WAT      O 7813   8.624   5.096   9.845
 2524WAT     H1 7814   8.616   5.024   9.776
 2524WAT     H2 7815   8.720   5.120   9.857
 2525WAT      O 7816   7.847   6.276   1.646
 2525WAT     H1 7817   7.928   6.325   1.614
 2525WAT     H2 7818   7.796   6.334   1.709
 2526WAT      O 7819   0.314   0.614   7.753
 2526WAT     H1 7820   0.263   0.599   7.668
 2526WAT     H2 7821   0.372   0.536   7.772
 2527WAT      O 7822   1.087   3.268   7.316
 2527WAT     H1 7823   1.182   3.295   7.333
 2527WAT     H2 7824   1.070   3.266   7.218
 2528WAT      O 7825   2.125   4.936   7.280
 2528WAT     H1 7826   2.094   5.012   7.337
 2528WAT     H2 7827   2.120   4.963   7.184
 2529WAT      O 7828   0.083   4.924   5.464
 2529WAT     H1 7829   0.152   4.852   5.459
 2529WAT     H2 7830   0.022   4.916   5.384
 2530WAT      O 7831   1.822   0.981   2.104
 2530WAT     H1 7832   1.762   1.019   2.175
 2530WAT     H2 7833   1.895   0.929   2.148
 2531WAT      O 7834   9.519   6.378   6.292
 2531WAT     H1 7835   9.522   6.445   6.218
 2531WAT     H2 7836   9.467   6.416   6.369
 2532WAT      O 7837   6.223   6.859   0.918
 2532WAT     H1 7838   6.132   6.885   0.950
 2532WAT     H2 7839   6.234   6.885   0.822
 2533WAT      O 7840   0.468   1.936   0.842
 2533WAT     H1 7841   0.560   1.940   0.803
 2533WAT     H2 7842   0.429   1.845   0.826
 2534WAT      O 7843   7.546   6.380   0.531
 2534WAT     H1 7844   7.639   6.344   0.538
 2534WAT     H2 7845   7.508   6.358   0.442
 2535WAT      O 7846   5.660   9.773   6.162
 2535WAT     H1 7847   5.736   9.788   6.225
 2535WAT     H2 7848   5.686   9.803   6.070
 2536WAT      O 7849   3.327   8.638   1.462
 2536WAT     H1 7850   3.294   8.549   1.428
 2536WAT     H2 7851   3.289   8.711   1.405
 2537WAT      O 7852   4.903   9.789   0.664
 2537WAT     H1 7853   4.980   9.724   0.654
 2537WAT     H2 7854   4.835   9.769   0.593
 2538WAT      O 7855   2.228   1.760   2.441
 2538WAT     H1 7856   2.227   1.678   2.384
 2538WAT     H2 7857   2.274   1.741   2.527
 2539WAT      O 7858   6.592   8.267   2.307
 2539WAT     H1 7859   6.667   8.312   2.354
 2539WAT     H2 7860   6.548   8.201   2.368
 2540WAT      O 7861   8.304   1.140   2.402
 2540WAT     H1 7862   8.336   1.057   2.449
 2540WAT     H2 7863   8.226   1.116   2.343
 2541WAT      O 7864   9.293   1.167   8.152
 2541WAT     H1 7865   9.325   1.252   8.194
 2541WAT     H2 7866   9.371   1.116   8.117
 2542WAT      O 7867   6.737   9.601   8.435
 2542WAT     H1 7868   6.822   9.638   8.473
 2542WAT     H2 7869   6.713   9.652   8.352
 2543WAT      O 7870   6.327   3.209   8.441
 2543WAT     H1 7871   6.384   3.234   8.520
 2543WAT     H2 7872   6.369   3.133   8.392
 2544WAT      O 7873   9.457   2.528   1.433
 2544WAT     H1 7874   9.372   2.577   1.414
 2544WAT     H2 7875   9.514   2.529   1.351
 2545WAT      O 7876   6.729   1.225   0.963
 2545WAT     H1 7877   6.642   1.175   0.964
 2545WAT     H2 7878   6.735   1.279   0.879
 2546WAT      O 7879   0.468   9.713   8.882
 2546WAT     H1 7880   0.471   9.799   8.830
 2546WAT     H2 7881   0.388   9.713   8.942
 2547WAT      O 7882   9.098   1.218   5.502
 2547WAT     H1 7883   9.191   1.233   5.470
 2547WAT     H2 7884   9.038   1.289   5.466
 2548WAT      O 7885   0.859   6.083   3.820
 2548WAT     H1 7886   0.795   6.149   3.860
 2548WAT     H2 7887   0.810   5.999   3.796
 2549WAT      O 7888   2.789   8.143   6.017
 2549WAT     H1 7889   2.695   8.134   6.051
 2549WAT     H2 7890   2.795   8.221   5.955
 2550WAT      O 7891   3.548   1.032   5.549
 2550WAT     H1 7892   3.533   0.934   5.543
 2550WAT     H2 7893   3.462   1.080   5.530
 2551WAT      O 7894   8.636   8.731   9.149
 2551WAT     H1 7895   8.729   8.698   9.161
 2551WAT     H2 7896   8.616   8.801   9.217
 2552WAT      O 7897   1.802   3.066   1.883
 2552WAT     H1 7898   1.832   3.003   1.955
 2552WAT     H2 7899   1.827   3.159   1.907
 2553WAT      O 7900   5.527   9.425   1.711
 2553WAT     H1 7901   5.521   9.325   1.704
 2553WAT     H2 7902   5.477   9.466   1.635
 2554WAT      O 7903   0.179   6.477   5.768
 2554WAT     H1 7904   0.199   6.480   5.670
 2554WAT     H2 7905   0.224   6.554   5.814
 2555WAT      O 7906   4.942   5.974   6.230
 2555WAT     H1 7907   4.874   5.979   6.303
 2555WAT     H2 7908   4.900   5.935   6.148
 2556WAT      O 7909   5.770   2.951   7.440
 2556WAT     H1 7910   5.753   3.014   7.365
 2556WAT     H2 7911   5.686   2.935   7.491
 2557WAT      O 7912   9.609   5.454   5.748
 2557WAT     H1 7913   9.522   5.421   5.710
 2557WAT     H2 7914   9.634   5.540   5.704
 2558WAT      O 7915   2.639   0.390   7.531
 2558WAT     H1 7916   2.724   0.345   7.504
 2558WAT     H2 7917   2.587   0.330   7.591
 2559WAT      O 7918   9.371   7.350   6.467
 2559WAT     H1 7919   9.332   7.392   6.385
 2559WAT     H2 7920   9.447   7.406   6.500
 2560WAT      O 7921   5.869   7.922   1.486
 2560WAT     H1 7922   5.820   7.922   1.399
 2560WAT     H2 7923   5.929   8.002   1.490
 2561WAT      O 7924   3.582   5.074   7.953
 2561WAT     H1 7925   3.546   4.981   7.943
 2561WAT     H2 7926   3.680   5.074   7.931
 2562WAT      O 7927   9.727   1.729   0.207
 2562WAT     H1 7928   9.671   1.794   0.156
 2562WAT     H2 7929   9.712   1.742   0.306
 2563WAT      O 7930   6.913   5.148   8.388
 2563WAT     H1 7931   6.927   5.055   8.355
 2563WAT     H2 7932   6.997   5.201   8.373
 2564WAT      O 7933   1.413   4.016   5.947
 2564WAT     H1 7934   1.314   4.025   5.939
 2564WAT     H2 7935   1.450   3.978   5.863
 2565WAT      O 7936   7.354   3.107   0.969
 2565WAT     H1 7937   7.277   3.167   0.947
 2565WAT     H2 7938   7.330   3.047   1.045
 2566WAT      O 7939   1.917   6.255   2.703
 2566WAT     H1 7940   1.856   6.197   2.756
 2566WAT     H2 7941   1.865   6.305   2.634
 2567WAT      O 7942   2.178   3.750   1.175
 2567WAT     H1 7943   2.210   3.753   1.080
 2567WAT     H2 7944   2.132   3.663   1.192
 2568WAT      O 7945   4.876   7.639   7.963
 2568WAT     H1 7946   4.926   7.578   7.902
 2568WAT     H2 7947   4.935   7.714   7.992
 2569WAT      O 7948   4.721   0.973   6.181
 2569WAT     H1 7949   4.646   0.934   6.128
 2569WAT     H2 7950   4.802   0.982   6.122
 2570WAT      O 7951   6.902   2.581   2.532
 2570WAT     H1 7952   6.919   2.622   2.621
 2570WAT     H2 7953   6.829   2.630   2.486
 2571WAT      O 7954   2.184   4.960   5.363
 2571WAT     H1 7955   2.129   4.896   5.309
 2571WAT     H2 7956   2.124   5.026   5.408
 2572WAT      O 7957   3.952   1.148   1.779
 2572WAT     H1 7958   3.913   1.224   1.831
 2572WAT     H2 7959   4.049   1.137   1.802
 2573WAT      O 7960   8.565   4.222   2.686
 2573WAT     H1 7961   8.563   4.308   2.636
 2573WAT     H2 7962   8.478   4.174   2.672
 2574WAT      O 7963   5.482   0.625   7.970
 2574WAT     H1 7964   5.420   0.678   8.027
 2574WAT     H2 7965   5.498   0.535   8.011
 2575WAT      O 7966   0.811   1.540   2.715
 2575WAT     H1 7967   0.714   1.564   2.707
 2575WAT     H2 7968   0.832   1.465   2.652
 2576WAT      O 7969   9.632   0.150   2.688
 2576WAT     H1 7970   9.551   0.181   2.638
 2576WAT     H2 7971   9.675   0.228   2.734
 2577WAT      O 7972   5.578   5.948   7.753
 2577WAT     H1 7973   5.645   5.995   7.811
 2577WAT     H2 7974   5.550   6.008   7.678
 2578WAT      O 7975   4.552   8.224   4.905
 2578WAT     H1 7976   4.630   8.189   4.853
 2578WAT     H2 7977   4.581   8.305   4.957
 2579WAT      O 7978   2.139   0.085   1.494
 2579WAT     H1 7979   2.207   0.094   1.421
 2579WAT     H2 7980   2.169   0.135   1.575
 2580WAT      O 7981   7.721   3.352   2.656
 2580WAT     H1 7982   7.645   3.416   2.648
 2580WAT     H2 7983   7.786   3.367   2.581
 2581WAT      O 7984   4.655   7.946   3.415
 2581WAT     H1 7985   4.640   7.971   3.319
 2581WAT     H2 7986   4.580   7.982   3.471
 2582WAT      O 7987   3.705   6.333   4.289
 2582WAT     H1 7988   3.685   6.345   4.191
 2582WAT     H2 7989   3.622   6.304   4.337
 2583WAT      O 7990   8.117   5.553   8.237
 2583WAT     H1 7991   8.142   5.493   8.161
 2583WAT     H2 7992   8.078   5.638   8.200
 2584WAT      O 7993   4.050   5.127   9.291
 2584WAT     H1 7994   3.981   5.120   9.218
 2584WAT     H2 7995   4.065   5.036   9.331
 2585WAT      O 7996   3.018   8.755   6.218
 2585WAT     H1 7997   3.051   8.702   6.296
 2585WAT     H2 7998   3.049   8.714   6.133
 2586WAT      O 7999   2.973   7.180   4.805
 2586WAT     H1 8000   3.004   7.273   4.790
 2586WAT     H2 8001   2.894   7.161   4.748
 2587WAT      O 8002   7.821   4.996   0.267
 2587WAT     H1 8003   7.766   4.945   0.333
 2587WAT     H2 8004   7.899   5.037   0.313
 2588WAT      O 8005   3.861   4.103   0.521
 2588WAT     H1 8006   3.812   4.107   0.609
 2588WAT     H2 8007   3.807   4.051   0.455
 2589WAT      O 8008   0.440   8.212   4.948
 2589WAT     H1 8009   0.419   8.130   4.895
 2589WAT     H2 8010   0.452   8.289   4.885
 2590WAT      O 8011   4.393   3.032   9.104
 2590WAT     H1 8012   4.490   3.045   9.122
 2590WAT     H2 8013   4.368   2.937   9.123
 2591WAT      O 8014   6.043   6.734   6.630
 2591WAT     H1 8015   5.953   6.768   6.606
 2591WAT     H2 8016   6.079   6.678   6.555
 2592WAT      O 8017   4.544   0.702   1.258
 2592WAT     H1 8018   4.596   0.619   1.279
 2592WAT     H2 8019   4.603   0.766   1.209
 2593WAT      O 8020   0.616   0.787   7.423
 2593WAT     H1 8021   0.692   0.732   7.457
 2593WAT     H2 8022   0.651   0.869   7.379
 2594WAT      O 8023   0.292   3.624   0.549
 2594WAT     H1 8024   0.296   3.723   0.534
 2594WAT     H2 8025   0.198   3.592   0.536
 2595WAT      O 8026   6.808   4.133   2.878
 2595WAT     H1 8027   6.884   4.198   2.873
 2595WAT     H2 8028   6.762   4.142   2.966
 2596WAT      O 8029   5.707   9.716   8.712
 2596WAT     H1 8030   5.624   9.686   8.665
 2596WAT     H2 8031   5.719   9.663   8.795
 2597WAT      O 8032   8.346   0.916   4.424
 2597WAT     H1 8033   8.352   0.977   4.503
 2597WAT     H2 8034   8.359   0.968   4.340
 2598WAT      O 8035   7.309   0.706   5.702
 2598WAT     H1 8036   7.378   0.636   5.682
 2598WAT     H2 8037   7.292   0.709   5.801
 2599WAT      O 8038   9.836   3.513   3.030
 2599WAT     H1 8039   9.877   3.467   2.951
 2599WAT     H2 8040   9.747   3.550   3.005
 2600WAT      O 8041   2.090   7.102   2.879
 2600WAT     H1 8042   2.087   7.186   2.825
 2600WAT     H2 8043   2.130   7.029   2.824
 2601WAT      O 8044   4.569   2.769   8.782
 2601WAT     H1 8045   4.554   2.696   8.715
 2601WAT     H2 8046   4.496   2.837   8.773
 2602WAT      O 8047   4.998   6.593   4.249
 2602WAT     H1 8048   4.998   6.606   4.150
 2602WAT     H2 8049   4.907   6.560   4.278
 2603WAT      O 8050   5.154   4.237   8.843
 2603WAT     H1 8051   5.165   4.138   8.836
 2603WAT     H2 8052   5.241   4.279   8.870
 2604WAT      O 8053   8.033   3.534   7.956
 2604WAT     H1 8054   7.973   3.614   7.961
 2604WAT     H2 8055   8.021   3.479   8.038
 2605WAT      O 8056   9.666   5.332   0.521
 2605WAT     H1 8057   9.700   5.415   0.477
 2605WAT     H2 8058   9.642   5.352   0.616
 2606WAT      O 8059   0.435   8.486   4.457
 2606WAT     H1 8060   0.388   8.572   4.479
 2606WAT     H2 8061   0.533   8.497   4.472
 2607WAT      O 8062   2.645   0.018   5.556
 2607WAT     H1 8063   2.732   0.019   5.605
 2607WAT     H2 8064   2.662   0.030   5.458
 2608WAT      O 8065   8.172   6.232   3.168
 2608WAT     H1 8066   8.205   6.227   3.262
 2608WAT     H2 8067   8.135   6.323   3.150
 2609WAT      O 8068   3.978   6.641   2.177
 2609WAT     H1 8069   4.070   6.675   2.159
 2609WAT     H2 8070   3.969   6.548   2.141
 2610WAT      O 8071   7.619   7.134   2.163
 2610WAT     H1 8072   7.698   7.148   2.223
 2610WAT     H2 8073   7.644   7.156   2.069
 2611WAT      O 8074   6.993   3.473   0.235
 2611WAT     H1 8075   6.989   3.384   0.281
 2611WAT     H2 8076   6.904   3.492   0.192
 2612WAT      O 8077   5.126   0.422   6.067
 2612WAT     H1 8078   5.109   0.456   6.159
 2612WAT     H2 8079   5.042   0.426   6.013
 2613WAT      O 8080   8.766   5.142   1.926
 2613WAT     H1 8081   8.695   5.196   1.969
 2613WAT     H2 8082   8.725   5.064   1.879
 2614WAT      O 8083   2.499   9.345   4.902
 2614WAT     H1 8084   2.589   9.356   4.942
 2614WAT     H2 8085   2.490   9.254   4.862
 2615WAT      O 8086   5.463   5.207   5.898
 2615WAT     H1 8087   5.464   5.126   5.956
 2615WAT     H2 8088   5.369   5.225   5.868
 2616WAT      O 8089   0.738   5.054   5.149
 2616WAT     H1 8090   0.807   4.991   5.112
 2616WAT     H2 8091   0.669   5.001   5.198
 2617WAT      O 8092   9.834   8.069   5.775
 2617WAT     H1 8093   9.764   8.064   5.704
 2617WAT     H2 8094   9.896   8.145   5.755
 2618WAT      O 8095   4.236   2.011   1.371
 2618WAT     H1 8096   4.251   1.934   1.434
 2618WAT     H2 8097   4.180   1.981   1.294
 2619WAT      O 8098   5.535   7.691   5.327
 2619WAT     H1 8099   5.537   7.787   5.355
 2619WAT     H2 8100   5.463   7.643   5.377
 2620WAT      O 8101   9.612   5.522   5.261
 2620WAT     H1 8102   9.520   5.513   5.223
 2620WAT     H2 8103   9.624   5.458   5.337
 2621WAT      O 8104   4.778   0.756   9.687
 2621WAT     H1 8105   4.827   0.804   9.614
 2621WAT     H2 8106   4.683   0.743   9.660
 2622WAT      O 8107   9.858   4.157   9.377
 2622WAT     H1 8108   9.888   4.077   9.325
 2622WAT     H2 8109   9.873   4.141   9.475
 2623WAT      O 8110   8.850   4.188   5.801
 2623WAT     H1 8111   8.756   4.157   5.806
 2623WAT     H2 8112   8.881   4.218   5.891
 2624WAT      O 8113   8.330   7.713   4.705
 2624WAT     H1 8114   8.234   7.738   4.691
 2624WAT     H2 8115   8.351   7.632   4.649
 2625WAT      O 8116   4.317   2.785   9.160
 2625WAT     H1 8117   4.226   2.798   9.120
 2625WAT     H2 8118   4.309   2.781   9.260
 2626WAT      O 8119   6.317   4.277   7.406
 2626WAT     H1 8120   6.338   4.323   7.320
 2626WAT     H2 8121   6.359   4.187   7.407
 2627WAT      O 8122   0.054   0.179   7.829
 2627WAT     H1 8123   0.021   0.086   7.843
 2627WAT     H2 8124  -0.015   0.231   7.778
 2628WAT      O 8125   1.546   7.163   2.742
 2628WAT     H1 8126   1.581   7.256   2.755
 2628WAT     H2 8127   1.453   7.156   2.780
 2629WAT      O 8128   3.820   9.579   2.250
 2629WAT     H1 8129   3.806   9.640   2.172
 2629WAT     H2 8130   3.857   9.492   2.218
 2630WAT      O 8131   4.366   1.726   6.694
 2630WAT     H1 8132   4.410   1.731   6.783
 2630WAT     H2 8133   4.348   1.631   6.671
 2631WAT      O 8134   7.159   8.700   2.105
 2631WAT     H1 8135   7.167   8.602   2.089
 2631WAT     H2 8136   7.243   8.734   2.146
 2632WAT      O 8137   9.437   5.973   8.005
 2632WAT     H1 8138   9.528   5.946   7.972
 2632WAT     H2 8139   9.381   6.003   7.927
 2633WAT      O 8140   9.471   0.280   1.495
 2633WAT     H1 8141   9.556   0.313   1.453
 2633WAT     H2 8142   9.435   0.350   1.557
 2634WAT      O 8143   7.156   8.029   7.388
 2634WAT     H1 8144   7.172   8.102   7.322
 2634WAT     H2 8145   7.075   7.977   7.362
 2635WAT      O 8146   0.856   3.404   4.460
 2635WAT     H1 8147   0.889   3.332   4.399
 2635WAT     H2 8148   0.923   3.478   4.464
 2636WAT      O 8149   8.571   7.905   1.625
 2636WAT     H1 8150   8.572   8.003   1.604
 2636WAT     H2 8151   8.665   7.870   1.623
 2637WAT      O 8152   0.928   6.173   5.964
 2637WAT     H1 8153   1.027   6.160   5.956
 2637WAT     H2 8154   0.892   6.203   5.876
 2638WAT      O 8155   6.550   6.222   4.563
 2638WAT     H1 8156   6.601   6.191   4.483
 2638WAT     H2 8157   6.474   6.160   4.581
 2639WAT      O 8158   0.347   6.312   3.259
 2639WAT     H1 8159   0.426   6.320   3.318
 2639WAT     H2 8160   0.269   6.276   3.311
 2640WAT      O 8161   7.599   0.772   8.836
 2640WAT     H1 8162   7.691   0.733   8.842
 2640WAT     H2 8163   7.587   0.840   8.908
 2641WAT      O 8164   6.355   7.482   1.748
 2641WAT     H1 8165   6.338   7.506   1.653
 2641WAT     H2 8166   6.280   7.517   1.805
 2642WAT      O 8167   1.635   9.627   1.795
 2642WAT     H1 8168   1.569   9.699   1.776
 2642WAT     H2 8169   1.609   9.544   1.746
 2643WAT      O 8170   8.026   0.198   6.402
 2643WAT     H1 8171   8.031   0.114   6.348
 2643WAT     H2 8172   7.953   0.256   6.366
 2644WAT      O 8173   8.574   6.433   3.007
 2644WAT     H1 8174   8.535   6.363   2.948
 2644WAT     H2 8175   8.596   6.393   3.096
 2645WAT      O 8176   3.195   1.784   6.475
 2645WAT     H1 8177   3.144   1.720   6.533
 2645WAT     H2 8178   3.281   1.742   6.447
 2646WAT      O 8179   3.111   7.645   2.411
 2646WAT     H1 8180   3.023   7.682   2.381
 2646WAT     H2 8181   3.118   7.652   2.511
 2647WAT      O 8182   4.457   6.085   0.685
 2647WAT     H1 8183   4.359   6.070   0.698
 2647WAT     H2 8184   4.477   6.099   0.588
 2648WAT      O 8185   9.716   5.088   5.971
 2648WAT     H1 8186   9.728   5.178   6.013
 2648WAT     H2 8187   9.746   5.091   5.876
 2649WAT      O 8188   7.953   7.122   9.091
 2649WAT     H1 8189   8.052   7.134   9.100
 2649WAT     H2 8190   7.933   7.032   9.054
 2650WAT      O 8191   2.945   8.211   7.737
 2650WAT     H1 8192   2.909   8.265   7.813
 2650WAT     H2 8193   2.905   8.119   7.739
 2651WAT      O 8194   4.908   5.896   5.491
 2651WAT     H1 8195   4.923   5.881   5.393
 2651WAT     H2 8196   4.965   5.834   5.544
 2652WAT      O 8197   4.947   8.503   9.101
 2652WAT     H1 8198   4.874   8.506   9.169
 2652WAT     H2 8199   4.937   8.421   9.045
 2653WAT      O 8200   7.100   4.638   2.610
 2653WAT     H1 8201   7.013   4.619   2.564
 2653WAT     H2 8202   7.153   4.702   2.554
 2654WAT      O 8203   1.540   0.237   5.118
 2654WAT     H1 8204   1.636   0.227   5.090
 2654WAT     H2 8205   1.506   0.326   5.088
 2655WAT      O 8206   4.436   9.591   0.211
 2655WAT     H1 8207   4.492   9.543   0.280
 2655WAT     H2 8208   4.429   9.534   0.129
 2656WAT      O 8209   7.828   5.659   3.983
 2656WAT     H1 8210   7.876   5.744   3.961
 2656WAT     H2 8211   7.730   5.676   3.989
 2657WAT      O 8212   3.015   1.299   2.582
 2657WAT     H1 8213   3.086   1.277   2.650
 2657WAT     H2 8214   2.932   1.247   2.603
 2658WAT      O 8215   9.774   8.976   5.080
 2658WAT     H1 8216   9.734   8.887   5.060
 2658WAT     H2 8217   9.734   9.045   5.020
 2659WAT      O 8218   2.135   9.041   2.065
 2659WAT     H1 8219   2.122   9.053   1.966
 2659WAT     H2 8220   2.232   9.053   2.087
 2660WAT      O 8221   3.578   4.175   8.856
 2660WAT     H1 8222   3.499   4.149   8.800
 2660WAT     H2 8223   3.553   4.251   8.916
 2661WAT      O 8224   1.247   8.922   0.628
 2661WAT     H1 8225   1.257   8.931   0.727
 2661WAT     H2 8226   1.259   9.011   0.585
 2662WAT      O 8227   9.140   1.811   2.327
 2662WAT     H1 8228   9.058   1.754   2.327
 2662WAT     H2 8229   9.215   1.762   2.284
 2663WAT      O 8230   4.293   2.601   8.014
 2663WAT     H1 8231   4.206   2.570   7.976
 2663WAT     H2 8232   4.362   2.602   7.943
 2664WAT      O 8233   8.063   8.947   7.921
 2664WAT     H1 8234   8.053   8.956   7.822
 2664WAT     H2 8235   8.120   9.023   7.955
 2665WAT      O 8236   5.397   1.502   5.009
 2665WAT     H1 8237   5.495   1.508   4.993
 2665WAT     H2 8238   5.373   1.410   5.038
 2666WAT      O 8239   5.936   1.222   3.226
 2666WAT     H1 8240   5.851   1.235   3.276
 2666WAT     H2 8241   5.989   1.149   3.269
 2667WAT      O 8242   8.072   4.938   9.845
 2667WAT     H1 8243   7.998   4.931   9.777
 2667WAT     H2 8244   8.067   5.028   9.889
 2668WAT      O 8245   5.013   5.766   2.496
 2668WAT     H1 8246   5.035   5.675   2.462
 2668WAT     H2 8247   4.922   5.793   2.466
 2669WAT      O 8248   8.397   2.622   4.672
 2669WAT     H1 8249   8.444   2.675   4.602
 2669WAT     H2 8250   8.339   2.682   4.727
 2670WAT      O 8251   4.172   3.711   9.669
 2670WAT     H1 8252   4.178   3.781   9.597
 2670WAT     H2 8253   4.264   3.688   9.701
 2671WAT      O 8254   2.401   4.667   0.413
 2671WAT     H1 8255   2.492   4.625   0.414
 2671WAT     H2 8256   2.331   4.596   0.420
 2672WAT      O 8257   3.386   3.933   2.134
 2672WAT     H1 8258   3.338   3.848   2.115
 2672WAT     H2 8259   3.406   3.939   2.232
 2673WAT      O 8260   6.309   9.459   3.445
 2673WAT     H1 8261   6.229   9.439   3.502
 2673WAT     H2 8262   6.390   9.463   3.503
 2674WAT      O 8263   1.043   4.366   0.470
 2674WAT     H1 8264   1.058   4.271   0.496
 2674WAT     H2 8265   0.957   4.375   0.421
 2675WAT      O 8266   9.875   5.266   3.366
 2675WAT     H1 8267   9.954   5.289   3.423
 2675WAT     H2 8268   9.791   5.279   3.419
 2676WAT      O 8269   8.054   1.640   9.820
 2676WAT     H1 8270   8.017   1.627   9.912
 2676WAT     H2 8271   8.152   1.618   9.819
 2677WAT      O 8272   4.478   6.149   9.731
 2677WAT     H1 8273   4.389   6.154   9.776
 2677WAT     H2 8274   4.465   6.129   9.633
 2678WAT      O 8275   8.694   8.864   0.867
 2678WAT     H1 8276   8.685   8.963   0.855
 2678WAT     H2 8277   8.743   8.845   0.952
 2679WAT      O 8278   0.624   6.826   6.801
 2679WAT     H1 8279   0.643   6.911   6.753
 2679WAT     H2 8280   0.706   6.797   6.851
 2680WAT      O 8281   2.236   8.796   2.758
 2680WAT     H1 8282   2.145   8.836   2.749
 2680WAT     H2 8283   2.294   8.826   2.682
 2681WAT      O 8284   3.703   0.893   9.207
 2681WAT     H1 8285   3.705   0.820   9.138
 2681WAT     H2 8286   3.796   0.925   9.224
 2682WAT      O 8287   5.295   8.875   2.945
 2682WAT     H1 8288   5.360   8.921   2.885
 2682WAT     H2 8289   5.282   8.930   3.028
 2683WAT      O 8290   1.344   3.826   9.770
 2683WAT     H1 8291   1.391   3.833   9.858
 2683WAT     H2 8292   1.410   3.798   9.700
 2684WAT      O 8293   0.763   9.379   0.528
 2684WAT     H1 8294   0.691   9.388   0.596
 2684WAT     H2 8295   0.722   9.369   0.437
 2685WAT      O 8296   7.502   4.351   9.487
 2685WAT     H1 8297   7.520   4.287   9.412
 2685WAT     H2 8298   7.519   4.307   9.574
 2686WAT      O 8299   5.298   6.355   5.903
 2686WAT     H1 8300   5.249   6.330   5.820
 2686WAT     H2 8301   5.300   6.455   5.912
 2687WAT      O 8302   6.683   2.419   5.206
 2687WAT     H1 8303   6.605   2.373   5.166
 2687WAT     H2 8304   6.757   2.426   5.139
 2688WAT      O 8305   1.421   8.365   6.679
 2688WAT     H1 8306   1.365   8.385   6.599
 2688WAT     H2 8307   1.505   8.320   6.650
 2689WAT      O 8308   4.495   2.771   0.260
 2689WAT     H1 8309   4.406   2.786   0.303
 2689WAT     H2 8310   4.482   2.746   0.164
 2690WAT      O 8311   1.309   0.651   9.161
 2690WAT     H1 8312   1.289   0.639   9.064
 2690WAT     H2 8313   1.336   0.746   9.178
 2691WAT      O 8314   4.516   1.561   0.405
 2691WAT     H1 8315   4.551   1.531   0.493
 2691WAT     H2 8316   4.547   1.654   0.386
 2692WAT      O 8317   4.059   2.426   4.489
 2692WAT     H1 8318   4.132   2.361   4.507
 2692WAT     H2 8319   4.089   2.518   4.514
 2693WAT      O 8320   2.418   8.405   0.176
 2693WAT     H1 8321   2.503   8.456   0.182
 2693WAT     H2 8322   2.394   8.391   0.080
 2694WAT      O 8323   2.167   9.154   7.574
 2694WAT     H1 8324   2.081   9.199   7.598
 2694WAT     H2 8325   2.148   9.069   7.524
 2695WAT      O 8326   5.462   4.533   1.334
 2695WAT     H1 8327   5.559   4.528   1.359
 2695WAT     H2 8328   5.453   4.586   1.250
 2696WAT      O 8329   8.854   4.413   6.792
 2696WAT     H1 8330   8.946   4.436   6.761
 2696WAT     H2 8331   8.794   4.492   6.783
 2697WAT      O 8332   9.372   9.008   7.348
 2697WAT     H1 8333   9.457   8.982   7.392
 2697WAT     H2 8334   9.372   9.106   7.329
 2698WAT      O 8335   8.723   0.212   4.169
 2698WAT     H1 8336   8.623   0.215   4.168
 2698WAT     H2 8337   8.756   0.209   4.263
 2699WAT      O 8338   0.309   2.402   6.818
 2699WAT     H1 8339   0.215   2.398   6.851
 2699WAT     H2 8340   0.336   2.498   6.808
 2700WAT      O 8341   4.453   8.001   6.489
 2700WAT     H1 8342   4.413   7.911   6.473
 2700WAT     H2 8343   4.448   8.055   6.405
 2701WAT      O 8344   5.203   3.614   0.515
 2701WAT     H1 8345   5.262   3.553   0.567
 2701WAT     H2 8346   5.256   3.693   0.483
 2702WAT      O 8347   8.344   1.173   7.947
 2702WAT     H1 8348   8.351   1.234   7.868
 2702WAT     H2 8349   8.400   1.091   7.931
 2703WAT      O 8350   9.457   8.036   1.244
 2703WAT     H1 8351   9.428   7.958   1.298
 2703WAT     H2 8352   9.543   8.072   1.281
 2704WAT      O 8353   8.222   7.723   5.446
 2704WAT     H1 8354   8.241   7.818   5.468
 2704WAT     H2 8355   8.308   7.673   5.434
 2705WAT      O 8356   6.875   5.559   4.355
 2705WAT     H1 8357   6.909   5.570   4.261
 2705WAT     H2 8358   6.811   5.483   4.358
 2706WAT      O 8359   3.497   7.917   8.655
 2706WAT     H1 8360   3.435   7.869   8.592
 2706WAT     H2 8361   3.467   8.011   8.666
 2707WAT      O 8362   3.588   7.959   2.830
 2707WAT     H1 8363   3.552   7.978   2.739
 2707WAT     H2 8364   3.650   7.881   2.826
 2708WAT      O 8365   4.449   8.197   9.445
 2708WAT     H1 8366   4.423   8.278   9.392
 2708WAT     H2 8367   4.416   8.206   9.539
 2709WAT      O 8368   6.309   3.339   8.194
 2709WAT     H1 8369   6.293   3.270   8.265
 2709WAT     H2 8370   6.260   3.313   8.111
 2710WAT      O 8371   2.369   9.779   3.723
 2710WAT     H1 8372   2.304   9.782   3.799
 2710WAT     H2 8373   2.340   9.708   3.657
 2711WAT      O 8374   0.371   8.066   7.869
 2711WAT     H1 8375   0.451   8.123   7.887
 2711WAT     H2 8376   0.401   7.977   7.833
 2712WAT      O 8377   8.995   9.037   0.243
 2712WAT     H1 8378   8.989   8.942   0.210
 2712WAT     H2 8379   8.975   9.099   0.167
 2713WAT      O 8380   8.278   5.569   8.487
 2713WAT     H1 8381   8.273   5.660   8.528
 2713WAT     H2 8382   8.212   5.562   8.413
 2714WAT      O 8383   5.717   3.684   4.272
 2714WAT     H1 8384   5.639   3.739   4.301
 2714WAT     H2 8385   5.686   3.594   4.242
 2715WAT      O 8386   5.638   7.193   8.584
 2715WAT     H1 8387   5.580   7.122   8.543
 2715WAT     H2 8388   5.651   7.267   8.518
 2716WAT      O 8389   2.597   7.001   3.585
 2716WAT     H1 8390   2.659   6.997   3.664
 2716WAT     H2 8391   2.550   7.088   3.584
 2717WAT      O 8392   0.804   0.087   2.656
 2717WAT     H1 8393   0.836   0.042   2.740
 2717WAT     H2 8394   0.800   0.185   2.671
 2718WAT      O 8395   1.698   2.612   7.334
 2718WAT     H1 8396   1.602   2.624   7.310
 2718WAT     H2 8397   1.755   2.627   7.253
 2719WAT      O 8398   5.887   0.802   2.081
 2719WAT     H1 8399   5.920   0.769   1.992
 2719WAT     H2 8400   5.913   0.737   2.152
 2720WAT      O 8401   6.606   8.841   6.922
 2720WAT     H1 8402   6.651   8.917   6.877
 2720WAT     H2 8403   6.616   8.758   6.866
 2721WAT      O 8404   0.283   4.141   1.789
 2721WAT     H1 8405   0.240   4.057   1.755
 2721WAT     H2 8406   0.332   4.186   1.714
 2722WAT      O 8407   5.028   7.153   0.903
 2722WAT     H1 8408   5.046   7.154   0.805
 2722WAT     H2 8409   5.066   7.236   0.945
 2723WAT      O 8410   0.985   9.172   6.311
 2723WAT     H1 8411   0.996   9.267   6.339
 2723WAT     H2 8412   1.074   9.127   6.308
 2724WAT      O 8413   7.922   2.474   7.726
 2724WAT     H1 8414   7.876   2.511   7.645
 2724WAT     H2 8415   8.019   2.499   7.725
 2725WAT      O 8416   1.289   9.363   4.269
 2725WAT     H1 8417   1.346   9.436   4.307
 2725WAT     H2 8418   1.194   9.380   4.294
 2726WAT      O 8419   6.929   0.599   9.759
 2726WAT     H1 8420   6.998   0.669   9.745
 2726WAT     H2 8421   6.910   0.554   9.671
 2727WAT      O 8422   8.998   5.304   3.886
 2727WAT     H1 8423   8.911   5.318   3.840
 2727WAT     H2 8424   9.028   5.209   3.874
 2728WAT      O 8425   6.309   9.567   3.179
 2728WAT     H1 8426   6.228   9.625   3.175
 2728WAT     H2 8427   6.317   9.527   3.270
 2729WAT      O 8428   0.602   3.714   1.580
 2729WAT     H1 8429   0.554   3.800   1.566
 2729WAT     H2 8430   0.700   3.728   1.563
 2730WAT      O 8431   6.149   8.093   5.214
 2730WAT     H1 8432   6.155   8.017   5.279
 2730WAT     H2 8433   6.214   8.078   5.140
 2731WAT      O 8434   3.498   1.606   0.738
 2731WAT     H1 8435   3.445   1.576   0.659
 2731WAT     H2 8436   3.513   1.529   0.800
 2732WAT      O 8437   8.841   8.076   1.325
 2732WAT     H1 8438   8.829   8.000   1.262
 2732WAT     H2 8439   8.937   8.081   1.354
 2733WAT      O 8440   6.309   8.437   5.095
 2733WAT     H1 8441   6.318   8.387   5.009
 2733WAT     H2 8442   6.221   8.416   5.137
 2734WAT      O 8443   6.051   0.861   6.227
 2734WAT     H1 8444   6.131   0.915   6.200
 2734WAT     H2 8445   6.000   0.910   6.298
 2735WAT      O 8446   8.923   5.824   8.566
 2735WAT     H1 8447   8.940   5.922   8.577
 2735WAT     H2 8448   8.846   5.797   8.624
 2736WAT      O 8449   6.155   4.083   2.662
 2736WAT     H1 8450   6.095   4.162   2.647
 2736WAT     H2 8451   6.240   4.097   2.612
 2737WAT      O 8452   7.373   5.251   2.691
 2737WAT     H1 8453   7.424   5.216   2.770
 2737WAT     H2 8454   7.282   5.281   2.721
 2738WAT      O 8455   2.883   9.489   0.673
 2738WAT     H1 8456   2.833   9.420   0.726
 2738WAT     H2 8457   2.886   9.462   0.577
 2739WAT      O 8458   5.661   3.023   6.576
 2739WAT     H1 8459   5.571   2.986   6.554
 2739WAT     H2 8460   5.732   2.957   6.551
 2740WAT      O 8461   1.216   1.746   0.062
 2740WAT     H1 8462   1.193   1.773  -0.031
 2740WAT     H2 8463   1.132   1.729   0.114
 2741WAT      O 8464   4.615   2.923   2.140
 2741WAT     H1 8465   4.541   2.985   2.112
 2741WAT     H2 8466   4.576   2.844   2.188
 2742WAT      O 8467   1.502   4.980   3.895
 2742WAT     H1 8468   1.521   5.014   3.803
 2742WAT     H2 8469   1.411   5.009   3.923
 2743WAT      O 8470   4.368   3.922   8.840
 2743WAT     H1 8471   4.465   3.924   8.815
 2743WAT     H2 8472   4.337   3.827   8.846
 2744WAT      O 8473   3.855   7.881   3.079
 2744WAT     H1 8474   3.854   7.786   3.048
 2744WAT     H2 8475   3.766   7.923   3.058
 2745WAT      O 8476   1.023   9.669   6.004
 2745WAT     H1 8477   0.979   9.647   5.917
 2745WAT     H2 8478   1.077   9.752   5.994
 2746WAT      O 8479   3.201   3.374   9.085
 2746WAT     H1 8480   3.292   3.414   9.092
 2746WAT     H2 8481   3.146   3.402   9.163
 2747WAT      O 8482   9.116   0.422   7.176
 2747WAT     H1 8483   9.073   0.509   7.151
 2747WAT     H2 8484   9.118   0.414   7.275
 2748WAT      O 8485   3.731   1.998   9.419
 2748WAT     H1 8486   3.722   2.005   9.519
 2748WAT     H2 8487   3.660   2.054   9.376
 2749WAT      O 8488   5.115   7.099   9.528
 2749WAT     H1 8489   5.112   7.048   9.614
 2749WAT     H2 8490   5.092   7.195   9.545
 2750WAT      O 8491   8.369   2.940   6.622
 2750WAT     H1 8492   8.351   2.856   6.674
 2750WAT     H2 8493   8.357   2.921   6.524
 2751WAT      O 8494   7.492   4.227   5.072
 2751WAT     H1 8495   7.468   4.175   5.154
 2751WAT     H2 8496   7.436   4.310   5.067
 2752WAT      O 8497   9.271   3.063   4.656
 2752WAT     H1 8498   9.338   3.050   4.582
 2752WAT     H2 8499   9.179   3.060   4.618
 2753WAT      O 8500   2.779   7.980   2.406
 2753WAT     H1 8501   2.753   8.069   2.442
 2753WAT     H2 8502   2.710   7.912   2.430
 2754WAT      O 8503   6.617   2.207   7.435
 2754WAT     H1 8504   6.550   2.225   7.363
 2754WAT     H2 8505   6.582   2.241   7.522
 2755WAT      O 8506  -0.000   5.562   9.666
 2755WAT     H1 8507   0.090   5.606   9.666
 2755WAT     H2 8508  -0.033   5.553   9.759
 2756WAT      O 8509   8.307   9.217   4.186
 2756WAT     H1 8510   8.303   9.190   4.090
 2756WAT     H2 8511   8.321   9.316   4.192
 2757WAT      O 8512   1.170   1.535   7.659
 2757WAT     H1 8513   1.142   1.542   7.755
 2757WAT     H2 8514   1.262   1.571   7.649
 2758WAT      O 8515   0.090   5.673   8.893
 2758WAT     H1 8516   0.174   5.680   8.947
 2758WAT     H2 8517   0.072   5.578   8.871
 2759WAT      O 8518   5.437   6.127   6.344
 2759WAT     H1 8519   5.423   6.136   6.443
 2759WAT     H2 8520   5.488   6.044   6.325
 2760WAT      O 8521   8.056   6.576   0.697
 2760WAT     H1 8522   7.963   6.591   0.665
 2760WAT     H2 8523   8.078   6.641   0.770
 2761WAT      O 8524   8.897   4.293   7.768
 2761WAT     H1 8525   8.912   4.252   7.858
 2761WAT     H2 8526   8.799   4.297   7.748
 2762WAT      O 8527   5.833   7.440   8.038
 2762WAT     H1 8528   5.750   7.430   8.092
 2762WAT     H2 8529   5.826   7.385   7.955
 2763WAT      O 8530   8.770   6.419   1.685
 2763WAT     H1 8531   8.781   6.456   1.777
 2763WAT     H2 8532   8.771   6.319   1.689
 2764WAT      O 8533   8.459   0.613   3.903
 2764WAT     H1 8534   8.391   0.612   3.976
 2764WAT     H2 8535   8.543   0.569   3.935
 2765WAT      O 8536   9.119   4.153   3.309
 2765WAT     H1 8537   9.038   4.102   3.279
 2765WAT     H2 8538   9.173   4.179   3.229
 2766WAT      O 8539   7.846   3.968   4.471
 2766WAT     H1 8540   7.877   3.901   4.404
 2766WAT     H2 8541   7.880   4.059   4.446
 2767WAT      O 8542   1.149   5.766   3.332
 2767WAT     H1 8543   1.134   5.775   3.234
 2767WAT     H2 8544   1.134   5.854   3.377
 2768WAT      O 8545   1.822   0.882   8.334
 2768WAT     H1 8546   1.778   0.951   8.276
 2768WAT     H2 8547   1.778   0.881   8.424
 2769WAT      O 8548   5.580   3.978   5.054
 2769WAT     H1 8549   5.586   4.072   5.023
 2769WAT     H2 8550   5.624   3.918   4.988
 2770WAT      O 8551   0.838   4.711   4.739
 2770WAT     H1 8552   0.821   4.638   4.805
 2770WAT     H2 8553   0.936   4.731   4.737
 2771WAT      O 8554   4.832   7.097   4.491
 2771WAT     H1 8555   4.844   7.151   4.574
 2771WAT     H2 8556   4.735   7.092   4.468
 2772WAT      O 8557   6.516   9.415   8.048
 2772WAT     H1 8558   6.546   9.491   7.990
 2772WAT     H2 8559   6.596   9.369   8.086
 2773WAT      O 8560   6.903   5.697   6.030
 2773WAT     H1 8561   6.914   5.743   5.942
 2773WAT     H2 8562   6.843   5.617   6.019
 2774WAT      O 8563   6.402   6.738   6.118
 2774WAT     H1 8564   6.451   6.696   6.042
 2774WAT     H2 8565   6.369   6.828   6.091
 2775WAT      O 8566   8.912   1.795   0.912
 2775WAT     H1 8567   8.885   1.846   0.994
 2775WAT     H2 8568   9.011   1.803   0.900
 2776WAT      O 8569   8.993   9.554   9.636
 2776WAT     H1 8570   9.059   9.619   9.673
 2776WAT     H2 8571   8.964   9.491   9.708
 2777WAT      O 8572   8.538   0.862   7.308
 2777WAT     H1 8573   8.453   0.816   7.281
 2777WAT     H2 8574   8.525   0.961   7.304
 2778WAT      O 8575   9.218   9.027   6.081
 2778WAT     H1 8576   9.239   8.944   6.133
 2778WAT     H2 8577   9.138   9.072   6.120
 2779WAT      O 8578   4.046   4.608   9.422
 2779WAT     H1 8579   3.961   4.583   9.376
 2779WAT     H2 8580   4.077   4.531   9.479
 2780WAT      O 8581   1.380   1.802   0.932
 2780WAT     H1 8582   1.294   1.853   0.926
 2780WAT     H2 8583   1.456   1.865   0.945
 2781WAT      O 8584   1.334   9.538   9.220
 2781WAT     H1 8585   1.390   9.560   9.299
 2781WAT     H2 8586   1.390   9.539   9.137
 2782WAT      O 8587   5.999   8.970   7.737
 2782WAT     H1 8588   6.063   9.044   7.755
 2782WAT     H2 8589   6.026   8.889   7.789
 2783WAT      O 8590   5.187   1.961   1.619
 2783WAT     H1 8591   5.093   1.939   1.641
 2783WAT     H2 8592   5.213   1.917   1.533
 2784WAT      O 8593   2.768   3.938   1.901
 2784WAT     H1 8594   2.675   3.902   1.910
 2784WAT     H2 8595   2.830   3.863   1.878
 2785WAT      O 8596   5.769   4.780   8.575
 2785WAT     H1 8597   5.717   4.858   8.542
 2785WAT     H2 8598   5.724   4.741   8.655
 2786WAT      O 8599   1.961   7.265   6.855
 2786WAT     H1 8600   1.913   7.195   6.909
 2786WAT     H2 8601   2.048   7.287   6.899
 2787WAT      O 8602   4.670   7.993   3.914
 2787WAT     H1 8603   4.704   7.901   3.932
 2787WAT     H2 8604   4.747   8.054   3.897
 2788WAT      O 8605   2.646   1.299   2.780
 2788WAT     H1 8606   2.707   1.338   2.849
 2788WAT     H2 8607   2.554   1.291   2.818
 2789WAT      O 8608   6.186   1.037   7.736
 2789WAT     H1 8609   6.157   1.052   7.831
 2789WAT     H2 8610   6.116   0.983   7.689
 2790WAT      O 8611   6.628   1.517   3.840
 2790WAT     H1 8612   6.540   1.509   3.888
 2790WAT     H2 8613   6.667   1.426   3.826
 2791WAT      O 8614   0.237   6.904   1.454
 2791WAT     H1 8615   0.274   6.997   1.444
 2791WAT     H2 8616   0.309   6.837   1.438
 2792WAT      O 8617   6.304   2.344   2.706
 2792WAT     H1 8618   6.276   2.307   2.617
 2792WAT     H2 8619   6.249   2.425   2.727
 2793WAT      O 8620   8.831   3.273   8.636
 2793WAT     H1 8621   8.834   3.175   8.654
 2793WAT     H2 8622   8.754   3.295   8.576
 2794WAT      O 8623   3.918   7.733   1.647
 2794WAT     H1 8624   3.823   7.751   1.622
 2794WAT     H2 8625   3.923   7.702   1.742
 2795WAT      O 8626   4.698   7.081   9.302
 2795WAT     H1 8627   4.629   7.153   9.309
 2795WAT     H2 8628   4.719   7.065   9.205
 2796WAT      O 8629   4.027   0.695   7.260
 2796WAT     H1 8630   3.965   0.769   7.287
 2796WAT     H2 8631   4.045   0.701   7.162
 2797WAT      O 8632   6.484   5.432   5.811
 2797WAT     H1 8633   6.440   5.345   5.837
 2797WAT     H2 8634   6.431   5.475   5.738
 2798WAT      O 8635   6.694   7.491   7.561
 2798WAT     H1 8636   6.612   7.547   7.557
 2798WAT     H2 8637   6.712   7.452   7.470
 2799WAT      O 8638   5.454   7.029   8.501
 2799WAT     H1 8639   5.383   7.072   8.445
 2799WAT     H2 8640   5.420   7.014   8.593
 2800WAT      O 8641   8.491   6.122   7.223
 2800WAT     H1 8642   8.533   6.203   7.264
 2800WAT     H2 8643   8.394   6.120   7.246
 2801WAT      O 8644   9.320   6.602   8.694
 2801WAT     H1 8645   9.224   6.575   8.687
 2801WAT     H2 8646   9.328   6.700   8.678
 2802WAT      O 8647   8.034   1.885   1.648
 2802WAT     H1 8648   8.073   1.975   1.667
 2802WAT     H2 8649   8.034   1.869   1.549
 2803WAT      O 8650   1.416   1.878   2.743
 2803WAT     H1 8651   1.437   1.867   2.646
 2803WAT     H2 8652   1.420   1.975   2.767
 2804WAT      O 8653   4.295   2.867   1.263
 2804WAT     H1 8654   4.294   2.950   1.319
 2804WAT     H2 8655   4.322   2.789   1.319
 2805WAT      O 8656   8.031   8.041   5.953
 2805WAT     H1 8657   7.951   7.995   5.993
 2805WAT     H2 8658   8.001   8.115   5.893
 2806WAT      O 8659   8.583   5.330   7.862
 2806WAT     H1 8660   8.674   5.324   7.822
 2806WAT     H2 8661   8.590   5.339   7.961
 2807WAT      O 8662   0.177   3.379   0.135
 2807WAT     H1 8663   0.247   3.449   0.118
 2807WAT     H2 8664   0.113   3.413   0.204
 2808WAT      O 8665   9.817   1.128   3.222
 2808WAT     H1 8666   9.846   1.049   3.167
 2808WAT     H2 8667   9.853   1.212   3.182
 2809WAT      O 8668   9.351   6.754   3.265
 2809WAT     H1 8669   9.422   6.703   3.218
 2809WAT     H2 8670   9.372   6.759   3.363
 2810WAT      O 8671   4.453   7.179   6.722
 2810WAT     H1 8672   4.524   7.190   6.653
 2810WAT     H2 8673   4.393   7.102   6.697
 2811WAT      O 8674   9.027   6.351   5.626
 2811WAT     H1 8675   8.972   6.291   5.568
 2811WAT     H2 8676   8.975   6.375   5.708
 2812WAT      O 8677   1.899   0.753   1.442
 2812WAT     H1 8678   1.986   0.791   1.412
 2812WAT     H2 8679   1.911   0.705   1.529
 2813WAT      O 8680   1.732   7.792   5.338
 2813WAT     H1 8681   1.829   7.774   5.321
 2813WAT     H2 8682   1.694   7.717   5.392
 2814WAT      O 8683   9.596   7.709   1.145
 2814WAT     H1 8684   9.600   7.632   1.209
 2814WAT     H2 8685   9.664   7.778   1.172
 2815WAT      O 8686   8.395   2.166   9.218
 2815WAT     H1 8687   8.386   2.173   9.119
 2815WAT     H2 8688   8.373   2.073   9.247
 2816WAT      O 8689   1.595   5.759   2.802
 2816WAT     H1 8690   1.512   5.766   2.857
 2816WAT     H2 8691   1.569   5.754   2.705
 2817WAT      O 8692   9.325   1.471   3.401
 2817WAT     H1 8693   9.255   1.473   3.472
 2817WAT     H2 8694   9.372   1.559   3.398
 2818WAT      O 8695   1.916   6.458   3.941
 2818WAT     H1 8696   1.889   6.520   4.014
 2818WAT     H2 8697   1.866   6.371   3.951
 2819WAT      O 8698   5.330   2.777   4.672
 2819WAT     H1 8699   5.292   2.727   4.594
 2819WAT     H2 8700   5.376   2.860   4.640
 2820WAT      O 8701   6.341   5.545   8.623
 2820WAT     H1 8702   6.288   5.627   8.644
 2820WAT     H2 8703   6.435   5.571   8.600
 2821WAT      O 8704   6.654   0.094   6.103
 2821WAT     H1 8705   6.657   0.157   6.025
 2821WAT     H2 8706   6.579   0.029   6.089
 2822WAT      O 8707   2.455   5.705   4.143
 2822WAT     H1 8708   2.361   5.739   4.137
 2822WAT     H2 8709   2.487   5.677   4.052
 2823WAT      O 8710   4.402   6.008   8.626
 2823WAT     H1 8711   4.340   6.084   8.644
 2823WAT     H2 8712   4.496   6.041   8.620
 2824WAT      O 8713   0.426   2.689   2.925
 2824WAT     H1 8714   0.389   2.734   3.005
 2824WAT     H2 8715   0.409   2.744   2.843
 2825WAT      O 8716   2.366   0.090   8.200
 2825WAT     H1 8717   2.361   0.118   8.295
 2825WAT     H2 8718   2.285   0.123   8.151
 2826WAT      O 8719   7.869   3.100   7.375
 2826WAT     H1 8720   7.815   3.185   7.374
 2826WAT     H2 8721   7.815   3.026   7.335
 2827WAT      O 8722   2.133   8.092   9.394
 2827WAT     H1 8723   2.146   8.129   9.485
 2827WAT     H2 8724   2.167   7.998   9.390
 2828WAT      O 8725   4.466   6.834   5.589
 2828WAT     H1 8726   4.444   6.930   5.573
 2828WAT     H2 8727   4.385   6.778   5.569
 2829WAT      O 8728   8.398   1.690   1.144
 2829WAT     H1 8729   8.466   1.710   1.074
 2829WAT     H2 8730   8.390   1.769   1.206
 2830WAT      O 8731   3.920   5.425   5.046
 2830WAT     H1 8732   3.953   5.337   5.080
 2830WAT     H2 8733   3.996   5.490   5.042
 2831WAT      O 8734   7.493   9.003   5.509
 2831WAT     H1 8735   7.558   8.944   5.557
 2831WAT     H2 8736   7.533   9.032   5.422
 2832WAT      O 8737   6.429   8.263   0.606
 2832WAT     H1 8738   6.336   8.297   0.618
 2832WAT     H2 8739   6.426   8.167   0.577
 2833WAT      O 8740   2.968   7.359   3.467
 2833WAT     H1 8741   2.879   7.396   3.441
 2833WAT     H2 8742   3.009   7.416   3.538
 2834WAT      O 8743   8.881   5.974   2.746
 2834WAT     H1 8744   8.955   6.006   2.805
 2834WAT     H2 8745   8.829   5.902   2.792
 2835WAT      O 8746   0.670   1.200   9.145
 2835WAT     H1 8747   0.603   1.236   9.080
 2835WAT     H2 8748   0.730   1.274   9.175
 2836WAT      O 8749   6.355   1.322   5.476
 2836WAT     H1 8750   6.284   1.260   5.442
 2836WAT     H2 8751   6.343   1.412   5.435
 2837WAT      O 8752   0.791   8.716   6.339
 2837WAT     H1 8753   0.866   8.658   6.308
 2837WAT     H2 8754   0.706   8.664   6.340
 2838WAT      O 8755   4.198   1.950   2.154
 2838WAT     H1 8756   4.200   1.949   2.254
 2838WAT     H2 8757   4.257   1.876   2.119
 2839WAT      O 8758   1.615   9.695   8.704
 2839WAT     H1 8759   1.568   9.773   8.746
 2839WAT     H2 8760   1.709   9.692   8.736
 2840WAT      O 8761   8.522   0.660   0.148
 2840WAT     H1 8762   8.443   0.656   0.087
 2840WAT     H2 8763   8.490   0.658   0.243
 2841WAT      O 8764   0.506   3.518   3.268
 2841WAT     H1 8765   0.574   3.584   3.299
 2841WAT     H2 8766   0.447   3.492   3.344
 2842WAT      O 8767   1.754   5.249   8.819
 2842WAT     H1 8768   1.680   5.182   8.825
 2842WAT     H2 8769   1.836   5.212   8.862
 2843WAT      O 8770   3.595   2.427   1.304
 2843WAT     H1 8771   3.511   2.441   1.356
 2843WAT     H2 8772   3.664   2.387   1.364
 2844WAT      O 8773   7.820   3.634   3.719
 2844WAT     H1 8774   7.833   3.546   3.673
 2844WAT     H2 8775   7.909   3.671   3.745
 2845WAT      O 8776   1.590   4.423   2.690
 2845WAT     H1 8777   1.558   4.337   2.653
 2845WAT     H2 8778   1.690   4.422   2.696
 2846WAT      O 8779   3.657   8.127   4.963
 2846WAT     H1 8780   3.634   8.043   5.012
 2846WAT     H2 8781   3.747   8.117   4.920
 2847WAT      O 8782   2.740   8.966   3.142
 2847WAT     H1 8783   2.833   8.949   3.175
 2847WAT     H2 8784   2.743   9.033   3.067
 2848WAT      O 8785   5.626   2.510   9.007
 2848WAT     H1 8786   5.581   2.432   8.962
 2848WAT     H2 8787   5.708   2.534   8.956
 2849WAT      O 8788   3.829   4.511   2.946
 2849WAT     H1 8789   3.769   4.590   2.956
 2849WAT     H2 8790   3.877   4.516   2.858
 2850WAT      O 8791   4.256   7.348   4.203
 2850WAT     H1 8792   4.301   7.433   4.232
 2850WAT     H2 8793   4.257   7.283   4.279
 2851WAT      O 8794   1.207   5.146   0.050
 2851WAT     H1 8795   1.197   5.203   0.132
 2851WAT     H2 8796   1.253   5.198  -0.022
 2852WAT      O 8797   3.973   0.006   8.336
 2852WAT     H1 8798   3.898   0.011   8.270
 2852WAT     H2 8799   3.976  -0.086   8.376
 2853WAT      O 8800   2.919   4.154   1.870
 2853WAT     H1 8801   2.978   4.161   1.790
 2853WAT     H2 8802   2.862   4.072   1.864
 2854WAT      O 8803   1.610   7.600   9.329
 2854WAT     H1 8804   1.549   7.545   9.385
 2854WAT     H2 8805   1.567   7.688   9.308
 2855WAT      O 8806   4.590   1.666   7.332
 2855WAT     H1 8807   4.622   1.613   7.254
 2855WAT     H2 8808   4.513   1.617   7.375
 2856WAT      O 8809   8.605   2.691   9.139
 2856WAT     H1 8810   8.651   2.627   9.078
 2856WAT     H2 8811   8.518   2.652   9.168
 2857WAT      O 8812   7.039   2.652   8.378
 2857WAT     H1 8813   7.011   2.708   8.456
 2857WAT     H2 8814   6.971   2.581   8.362
 2858WAT      O 8815   6.349   2.030   6.117
 2858WAT     H1 8816   6.268   1.992   6.161
 2858WAT     H2 8817   6.323   2.109   6.061
 2859WAT      O 8818   9.279   5.310   0.535
 2859WAT     H1 8819   9.208   5.265   0.589
 2859WAT     H2 8820   9.321   5.243   0.472
 2860WAT      O 8821   4.051   4.246   2.627
 2860WAT     H1 8822   4.133   4.302   2.630
 2860WAT     H2 8823   3.990   4.279   2.556
 2861WAT      O 8824   4.978   6.451   0.988
 2861WAT     H1 8825   4.960   6.385   1.061
 2861WAT     H2 8826   5.070   6.489   1.000
 2862WAT      O 8827   6.357   4.951   5.956
 2862WAT     H1 8828   6.408   4.914   6.034
 2862WAT     H2 8829   6.260   4.927   5.966
 2863WAT      O 8830   1.931   1.332   4.740
 2863WAT     H1 8831   1.983   1.408   4.780
 2863WAT     H2 8832   1.908   1.355   4.645
 2864WAT      O 8833   7.878   6.692   8.763
 2864WAT     H1 8834   7.851   6.600   8.791
 2864WAT     H2 8835   7.827   6.719   8.682
 2865WAT      O 8836   8.248   4.593   4.996
 2865WAT     H1 8837   8.261   4.642   5.082
 2865WAT     H2 8838   8.304   4.635   4.924
 2866WAT      O 8839   0.966   5.833   0.335
 2866WAT     H1 8840   0.979   5.842   0.237
 2866WAT     H2 8841   0.945   5.737   0.357
 2867WAT      O 8842   8.048   2.613   4.600
 2867WAT     H1 8843   8.062   2.628   4.698
 2867WAT     H2 8844   8.111   2.543   4.568
 2868WAT      O 8845   7.584   5.742   2.884
 2868WAT     H1 8846   7.559   5.715   2.791
 2868WAT     H2 8847   7.511   5.716   2.947
 2869WAT      O 8848   6.917   5.477   5.028
 2869WAT     H1 8849   6.914   5.573   5.003
 2869WAT     H2 8850   6.840   5.429   4.986
 2870WAT      O 8851   7.974   1.020   7.353
 2870WAT     H1 8852   7.917   1.097   7.324
 2870WAT     H2 8853   7.918   0.937   7.360
 2871WAT      O 8854   9.124   2.690   6.469
 2871WAT     H1 8855   9.172   2.670   6.555
 2871WAT     H2 8856   9.178   2.754   6.415
 2872WAT      O 8857   2.907   4.175   9.034
 2872WAT     H1 8858   2.814   4.211   9.045
 2872WAT     H2 8859   2.965   4.209   9.108
 2873WAT      O 8860   0.547   7.894   7.116
 2873WAT     H1 8861   0.622   7.933   7.062
 2873WAT     H2 8862   0.498   7.826   7.061
 2874WAT      O 8863   5.279   2.320   6.214
 2874WAT     H1 8864   5.249   2.396   6.271
 2874WAT     H2 8865   5.329   2.356   6.134
 2875WAT      O 8866   2.609   2.941   0.473
 2875WAT     H1 8867   2.583   2.986   0.558
 2875WAT     H2 8868   2.669   3.001   0.420
 2876WAT      O 8869   3.148   5.092   5.062
 2876WAT     H1 8870   3.074   5.131   5.116
 2876WAT     H2 8871   3.235   5.134   5.090
 2877WAT      O 8872   4.643   8.317   6.427
 2877WAT     H1 8873   4.617   8.392   6.488
 2877WAT     H2 8874   4.561   8.270   6.396
 2878WAT      O 8875   2.648   6.551   5.099
 2878WAT     H1 8876   2.663   6.535   5.197
 2878WAT     H2 8877   2.726   6.516   5.047
 2879WAT      O 8878   4.309   2.503   5.558
 2879WAT     H1 8879   4.368   2.565   5.505
 2879WAT     H2 8880   4.326   2.518   5.656
 2880WAT      O 8881   5.129   9.148   4.774
 2880WAT     H1 8882   5.106   9.091   4.694
 2880WAT     H2 8883   5.060   9.220   4.783
 2881WAT      O 8884   9.721   1.384   3.887
 2881WAT     H1 8885   9.753   1.290   3.875
 2881WAT     H2 8886   9.761   1.443   3.817
 2882WAT      O 8887   8.209   3.923   4.616
 2882WAT     H1 8888   8.118   3.882   4.621
 2882WAT     H2 8889   8.278   3.852   4.624
 2883WAT      O 8890   3.508   6.410   2.320
 2883WAT     H1 8891   3.608   6.420   2.317
 2883WAT     H2 8892   3.467   6.468   2.250
 2884WAT      O 8893   0.945   1.385   9.483
 2884WAT     H1 8894   0.934   1.287   9.499
 2884WAT     H2 8895   0.876   1.416   9.418
 2885WAT      O 8896   2.190   5.846   3.627
 2885WAT     H1 8897   2.149   5.921   3.678
 2885WAT     H2 8898   2.123   5.807   3.563
 2886WAT      O 8899   3.962   6.037   8.818
 2886WAT     H1 8900   3.877   6.075   8.855
 2886WAT     H2 8901   3.942   5.989   8.733
 2887WAT      O 8902   8.225   5.489   6.583
 2887WAT     H1 8903   8.168   5.565   6.551
 2887WAT     H2 8904   8.184   5.403   6.554
 2888WAT      O 8905   1.639   7.370   6.028
 2888WAT     H1 8906   1.640   7.322   6.115
 2888WAT     H2 8907   1.616   7.466   6.043
 2889WAT      O 8908   1.975   3.786   0.494
 2889WAT     H1 8909   1.902   3.842   0.533
 2889WAT     H2 8910   1.939   3.735   0.415
 2890WAT      O 8911   3.623   8.697   2.625
 2890WAT     H1 8912   3.542   8.756   2.630
 2890WAT     H2 8913   3.619   8.644   2.540
 2891WAT      O 8914   0.627   0.993   5.381
 2891WAT     H1 8915   0.658   0.970   5.473
 2891WAT     H2 8916   0.671   1.077   5.350
 2892WAT      O 8917   9.672   1.955   5.870
 2892WAT     H1 8918   9.578   1.986   5.861
 2892WAT     H2 8919   9.715   1.953   5.779
 2893WAT      O 8920   0.548   8.384   2.518
 2893WAT     H1 8921   0.464   8.420   2.560
 2893WAT     H2 8922   0.624   8.446   2.537
 2894WAT      O 8923   1.115   3.173   1.285
 2894WAT     H1 8924   1.195   3.146   1.339
 2894WAT     H2 8925   1.139   3.251   1.227
 2895WAT      O 8926   7.847   9.229   1.207
 2895WAT     H1 8927   7.795   9.266   1.130
 2895WAT     H2 8928   7.945   9.246   1.193
 2896WAT      O 8929   8.467   5.042   1.516
 2896WAT     H1 8930   8.512   5.075   1.433
 2896WAT     H2 8931   8.438   4.947   1.504
 2897WAT      O 8932   8.022   6.503   7.908
 2897WAT     H1 8933   7.996   6.406   7.910
 2897WAT     H2 8934   8.036   6.535   8.002
 2898WAT      O 8935   3.364   1.980   7.012
 2898WAT     H1 8936   3.461   1.957   7.017
 2898WAT     H2 8937   3.344   2.021   6.923
 2899WAT      O 8938   1.170   6.079   5.681
 2899WAT     H1 8939   1.160   6.065   5.780
 2899WAT     H2 8940   1.194   6.175   5.663
 2900WAT      O 8941   9.825   2.857   3.585
 2900WAT     H1 8942   9.753   2.866   3.517
 2900WAT     H2 8943   9.794   2.896   3.672
 2901WAT      O 8944   5.546   3.586   3.546
 2901WAT     H1 8945   5.634   3.634   3.552
 2901WAT     H2 8946   5.516   3.561   3.638
 2902WAT      O 8947   7.187   5.299   3.173
 2902WAT     H1 8948   7.261   5.235   3.151
 2902WAT     H2 8949   7.105   5.248   3.198
 2903WAT      O 8950   3.091   7.781   4.733
 2903WAT     H1 8951   3.184   7.764   4.702
 2903WAT     H2 8952   3.034   7.807   4.655
 2904WAT      O 8953   6.176   7.768   2.174
 2904WAT     H1 8954   6.236   7.824   2.229
 2904WAT     H2 8955   6.081   7.789   2.196
 2905WAT      O 8956   0.034   9.423   9.728
 2905WAT     H1 8957   0.127   9.442   9.696
 2905WAT     H2 8958  -0.012   9.508   9.752
 2906WAT      O 8959   4.078   8.188   7.999
 2906WAT     H1 8960   4.000   8.189   8.061
 2906WAT     H2 8961   4.072   8.107   7.940
 2907WAT      O 8962   4.920   9.011   5.851
 2907WAT     H1 8963   4.987   8.985   5.781
 2907WAT     H2 8964   4.874   8.929   5.884
 2908WAT      O 8965   7.296   3.354   3.982
 2908WAT     H1 8966   7.394   3.371   3.975
 2908WAT     H2 8967   7.264   3.376   4.074
 2909WAT      O 8968   4.686   6.481   1.568
 2909WAT     H1 8969   4.727   6.520   1.485
 2909WAT     H2 8970   4.694   6.381   1.565
 2910WAT      O 8971   0.439   3.877   3.203
 2910WAT     H1 8972   0.439   3.920   3.113
 2910WAT     H2 8973   0.344   3.858   3.231
 2911WAT      O 8974   4.463   5.195   4.158
 2911WAT     H1 8975   4.391   5.216   4.224
 2911WAT     H2 8976   4.447   5.104   4.120
 2912WAT      O 8977   6.091   2.069   4.644
 2912WAT     H1 8978   6.161   2.137   4.624
 2912WAT     H2 8979   6.089   2.001   4.570
 2913WAT      O 8980   2.201   6.516   3.981
 2913WAT     H1 8981   2.102   6.507   3.990
 2913WAT     H2 8982   2.225   6.520   3.884
 2914WAT      O 8983   5.531   8.882   1.217
 2914WAT     H1 8984   5.492   8.790   1.224
 2914WAT     H2 8985   5.475   8.937   1.156
 2915WAT      O 8986   1.499   0.965   9.298
 2915WAT     H1 8987   1.435   0.987   9.371
 2915WAT     H2 8988   1.585   0.932   9.338
 2916WAT      O 8989   9.300   3.069   2.948
 2916WAT     H1 8990   9.337   3.107   3.033
 2916WAT     H2 8991   9.206   3.038   2.963
 2917WAT      O 8992   8.083   6.502   7.528
 2917WAT     H1 8993   8.084   6.586   7.582
 2917WAT     H2 8994   7.994   6.492   7.484
 2918WAT      O 8995   8.381   8.694   4.672
 2918WAT     H1 8996   8.436   8.729   4.748
 2918WAT     H2 8997   8.319   8.623   4.707
 2919WAT      O 8998   0.447   5.022   8.949
 2919WAT     H1 8999   0.451   5.082   9.028
 2919WAT     H2 9000   0.518   5.048   8.883
 2920WAT      O 9001   7.388   2.606   6.597
 2920WAT     H1 9002   7.478   2.643   6.620
 2920WAT     H2 9003   7.353   2.652   6.515
 2921WAT      O 9004   2.162   3.887   3.239
 2921WAT     H1 9005   2.183   3.875   3.336
 2921WAT     H2 9006   2.067   3.861   3.222
 2922WAT      O 9007   7.564   0.416   4.387
 2922WAT     H1 9008   7.521   0.340   4.436
 2922WAT     H2 9009   7.541   0.411   4.290
 2923WAT      O 9010   0.300   9.458   9.636
 2923WAT     H1 9011   0.307   9.446   9.537
 2923WAT     H2 9012   0.334   9.377   9.682
 2924WAT      O 9013   8.417   5.626   3.050
 2924WAT     H1 9014   8.398   5.528   3.057
 2924WAT     H2 9015   8.332   5.675   3.032
 2925WAT      O 9016   3.270   7.363   9.346
 2925WAT     H1 9017   3.176   7.340   9.371
 2925WAT     H2 9018   3.289   7.457   9.374
 2926WAT      O 9019   0.564   5.372   3.332
 2926WAT     H1 9020   0.480   5.421   3.353
 2926WAT     H2 9021   0.542   5.278   3.304
 2927WAT      O 9022   1.514   9.745   3.411
 2927WAT     H1 9023   1.477   9.741   3.318
 2927WAT     H2 9024   1.446   9.784   3.473
 2928WAT      O 9025   0.104   5.111   6.592
 2928WAT     H1 9026   0.031   5.045   6.576
 2928WAT     H2 9027   0.089   5.155   6.681
 2929WAT      O 9028   4.368   2.278   6.757
 2929WAT     H1 9029   4.306   2.353   6.737
 2929WAT     H2 9030   4.323   2.212   6.817
 2930WAT      O 9031   4.775   2.897   5.889
 2930WAT     H1 9032   4.806   2.992   5.895
 2930WAT     H2 9033   4.679   2.891   5.917
 2931WAT      O 9034   5.838   8.955   8.754
 2931WAT     H1 9035   5.764   8.939   8.689
 2931WAT     H2 9036   5.886   9.039   8.729
 2932WAT      O 9037   9.656   3.543   5.114
 2932WAT     H1 9038   9.608   3.477   5.056
 2932WAT     H2 9039   9.656   3.632   5.069
 2933WAT      O 9040   6.483   2.020   8.673
 2933WAT     H1 9041   6.543   2.051   8.747
 2933WAT     H2 9042   6.506   2.070   8.589
 2934WAT      O 9043   4.585   1.683   3.509
 2934WAT     H1 9044   4.571   1.782   3.502
 2934WAT     H2 9045   4.669   1.665   3.559
 2935WAT      O 9046   1.140   4.362   7.822
 2935WAT     H1 9047   1.209   4.372   7.750
 2935WAT     H2 9048   1.124   4.265   7.839
 2936WAT      O 9049   3.619   0.199   7.384
 2936WAT     H1 9050   3.680   0.191   7.463
 2936WAT     H2 9051   3.673   0.206   7.300
 2937WAT      O 9052   9.495   6.144   3.196
 2937WAT     H1 9053   9.525   6.188   3.280
 2937WAT     H2 9054   9.494   6.210   3.121
 2938WAT      O 9055   2.795   6.483   9.443
 2938WAT     H1 9056   2.760   6.577   9.440
 2938WAT     H2 9057   2.834   6.460   9.354
 2939WAT      O 9058   0.692   1.947   6.867
 2939WAT     H1 9059   0.617   1.993   6.819
 2939WAT     H2 9060   0.655   1.871   6.921
 2940WAT      O 9061   4.244   6.059   1.178
 2940WAT     H1 9062   4.148   6.089   1.184
 2940WAT     H2 9063   4.281   6.048   1.271
 2941WAT      O 9064   4.135   9.779   5.542
 2941WAT     H1 9065   4.127   9.697   5.486
 2941WAT     H2 9066   4.049   9.830   5.537
 2942WAT      O 9067   1.031   7.409   6.707
 2942WAT     H1 9068   1.021   7.504   6.735
 2942WAT     H2 9069   1.000   7.399   6.612
 2943WAT      O 9070   6.475   8.509   2.190
 2943WAT     H1 9071   6.548   8.576   2.177
 2943WAT     H2 9072   6.514   8.423   2.221
 2944WAT      O 9073   0.388   1.886   6.085
 2944WAT     H1 9074   0.330   1.855   6.160
 2944WAT     H2 9075   0.484   1.872   6.109
 2945WAT      O 9076   0.642   9.613   1.679
 2945WAT     H1 9077   0.633   9.711   1.697
 2945WAT     H2 9078   0.578   9.587   1.606
 2946WAT      O 9079   9.748   6.270   7.510
 2946WAT     H1 9080   9.798   6.355   7.528
 2946WAT     H2 9081   9.663   6.292   7.462
 2947WAT      O 9082   7.148   1.443   2.686
 2947WAT     H1 9083   7.158   1.520   2.749
 2947WAT     H2 9084   7.120   1.362   2.737
 2948WAT      O 9085   2.020   6.744   0.216
 2948WAT     H1 9086   2.093   6.682   0.185
 2948WAT     H2 9087   1.996   6.723   0.310
 2949WAT      O 9088   3.618   9.239   9.571
 2949WAT     H1 9089   3.676   9.238   9.489
 2949WAT     H2 9090   3.640   9.320   9.626
 2950WAT      O 9091   3.216   9.424   9.597
 2950WAT     H1 9092   3.287   9.393   9.535
 2950WAT     H2 9093   3.219   9.524   9.604
 2951WAT      O 9094   5.795   2.467   8.070
 2951WAT     H1 9095   5.873   2.510   8.115
 2951WAT     H2 9096   5.761   2.527   7.998
 2952WAT      O 9097   7.835   2.032   5.398
 2952WAT     H1 9098   7.814   1.983   5.483
 2952WAT     H2 9099   7.817   1.972   5.320
 2953WAT      O 9100   0.557   4.375   3.532
 2953WAT     H1 9101   0.645   4.393   3.487
 2953WAT     H2 9102   0.503   4.311   3.477
 2954WAT      O 9103   1.279   4.387   8.650
 2954WAT     H1 9104   1.187   4.367   8.685
 2954WAT     H2 9105   1.324   4.452   8.711
 2955WAT      O 9106   6.261   2.449   3.339
 2955WAT     H1 9107   6.318   2.494   3.271
 2955WAT     H2 9108   6.225   2.364   3.301
 2956WAT      O 9109   9.261   1.818   9.231
 2956WAT     H1 9110   9.229   1.723   9.236
 2956WAT     H2 9111   9.224   1.861   9.149
 2957WAT      O 9112   2.901   0.178   4.988
 2957WAT     H1 9113   2.993   0.158   5.022
 2957WAT     H2 9114   2.903   0.261   4.933
 2958WAT      O 9115   5.378   9.052   9.371
 2958WAT     H1 9116   5.419   9.031   9.459
 2958WAT     H2 9117   5.439   9.113   9.319
 2959WAT      O 9118   2.738   3.189   4.582
 2959WAT     H1 9119   2.660   3.131   4.604
 2959WAT     H2 9120   2.733   3.217   4.486
 2960WAT      O 9121   2.958   7.806   8.795
 2960WAT     H1 9122   2.870   7.771   8.764
 2960WAT     H2 9123   3.031   7.745   8.765
 2961WAT      O 9124   9.658   9.150   0.951
 2961WAT     H1 9125   9.608   9.235   0.969
 2961WAT     H2 9126   9.740   9.146   1.007
 2962WAT      O 9127   4.687   8.074   2.897
 2962WAT     H1 9128   4.660   8.154   2.844
 2962WAT     H2 9129   4.705   7.998   2.834
 2963WAT      O 9130   0.435   6.253   1.662
 2963WAT     H1 9131   0.508   6.206   1.710
 2963WAT     H2 9132   0.445   6.352   1.673
 2964WAT      O 9133   0.725   9.273   9.352
 2964WAT     H1 9134   0.789   9.348   9.372
 2964WAT     H2 9135   0.662   9.301   9.280
 2965WAT      O 9136   5.354   7.248   8.130
 2965WAT     H1 9137   5.329   7.178   8.063
 2965WAT     H2 9138   5.328   7.217   8.222
 2966WAT      O 9139   9.743   9.309   3.794
 2966WAT     H1 9140   9.756   9.408   3.806
 2966WAT     H2 9141   9.824   9.260   3.825
 2967WAT      O 9142   1.589   0.881   3.146
 2967WAT     H1 9143   1.529   0.937   3.203
 2967WAT     H2 9144   1.552   0.876   3.054
 2968WAT      O 9145   1.529   3.048   6.460
 2968WAT     H1 9146   1.522   2.963   6.513
 2968WAT     H2 9147   1.467   3.116   6.500
 2969WAT      O 9148   2.687   6.187   9.796
 2969WAT     H1 9149   2.658   6.229   9.882
 2969WAT     H2 9150   2.640   6.231   9.720
 2970WAT      O 9151   8.421   7.380   9.037
 2970WAT     H1 9152   8.476   7.373   8.954
 2970WAT     H2 9153   8.328   7.407   9.013
 2971WAT      O 9154   5.454   0.629   0.257
 2971WAT     H1 9155   5.440   0.566   0.180
 2971WAT     H2 9156   5.484   0.718   0.222
 2972WAT      O 9157   4.989   8.957   8.856
 2972WAT     H1 9158   4.972   8.872   8.805
 2972WAT     H2 9159   4.945   9.033   8.809
 2973WAT      O 9160   0.802   3.247   6.658
 2973WAT     H1 9161   0.878   3.261   6.721
 2973WAT     H2 9162   0.772   3.336   6.622
 2974WAT      O 9163   1.452   6.594   0.550
 2974WAT     H1 9164   1.520   6.659   0.584
 2974WAT     H2 9165   1.427   6.530   0.623
 2975WAT      O 9166   4.746   6.720   5.324
 2975WAT     H1 9167   4.748   6.819   5.333
 2975WAT     H2 9168   4.766   6.678   5.413
 2976WAT      O 9169   2.340   7.403   4.701
 2976WAT     H1 9170   2.341   7.325   4.638
 2976WAT     H2 9171   2.383   7.377   4.787
 2977WAT      O 9172   5.897   7.720   0.100
 2977WAT     H1 9173   5.866   7.757   0.012
 2977WAT     H2 9174   5.950   7.790   0.148
 2978WAT      O 9175   7.660   0.714   2.491
 2978WAT     H1 9176   7.673   0.806   2.528
 2978WAT     H2 9177   7.572   0.709   2.444
 2979WAT      O 9178   1.703   1.130   0.244
 2979WAT     H1 9179   1.700   1.227   0.220
 2979WAT     H2 9180   1.783   1.112   0.301
 2980WAT      O 9181   2.871   8.854   4.852
 2980WAT     H1 9182   2.942   8.794   4.814
 2980WAT     H2 9183   2.853   8.928   4.788
 2981WAT      O 9184   9.148   3.010   9.054
 2981WAT     H1 9185   9.111   3.100   9.031
 2981WAT     H2 9186   9.097   2.939   9.005
 2982WAT      O 9187   1.060   7.605   3.356
 2982WAT     H1 9188   1.068   7.559   3.444
 2982WAT     H2 9189   1.140   7.662   3.340
 2983WAT      O 9190   7.186   6.716   3.214
 2983WAT     H1 9191   7.210   6.703   3.118
 2983WAT     H2 9192   7.194   6.629   3.262
 2984WAT      O 9193   2.583   3.067   1.801
 2984WAT     H1 9194   2.569   3.111   1.713
 2984WAT     H2 9195   2.526   2.985   1.808
 2985WAT      O 9196   6.886   0.217   0.041
 2985WAT     H1 9197   6.895   0.194  -0.056
 2985WAT     H2 9198   6.948   0.292   0.064
 2986WAT      O 9199   6.122   1.942   2.295
 2986WAT     H1 9200   6.196   1.899   2.346
 2986WAT     H2 9201   6.073   2.006   2.355
 2987WAT      O 9202   0.061   9.335   2.477
 2987WAT     H1 9203   0.155   9.365   2.459
 2987WAT     H2 9204   0.025   9.384   2.556
 2988WAT      O 9205   9.729   4.873   5.184
 2988WAT     H1 9206   9.751   4.965   5.150
 2988WAT     H2 9207   9.803   4.810   5.159
 2989WAT      O 9208   2.309   7.603   5.760
 2989WAT     H1 9209   2.286   7.595   5.857
 2989WAT     H2 9210   2.295   7.515   5.715
 2990WAT      O 9211   0.268   8.271   4.427
 2990WAT     H1 9212   0.182   8.315   4.454
 2990WAT     H2 9213   0.339   8.340   4.414
 2991WAT      O 9214   1.637   3.491   7.217
 2991WAT     H1 9215   1.685   3.572   7.254
 2991WAT     H2 9216   1.666   3.410   7.267
 2992WAT      O 9217   3.235   7.884   9.632
 2992WAT     H1 9218   3.174   7.813   9.667
 2992WAT     H2 9219   3.182   7.948   9.576
 2993WAT      O 9220   9.089   1.405   0.483
 2993WAT     H1 9221   9.160   1.423   0.415
 2993WAT     H2 9222   9.015   1.353   0.441
 2994WAT      O 9223   8.288   2.305   5.236
 2994WAT     H1 9224   8.381   2.303   5.272
 2994WAT     H2 9225   8.256   2.211   5.222
 2995WAT      O 9226   8.609   5.088   1.295
 2995WAT     H1 9227   8.592   5.137   1.210
 2995WAT     H2 9228   8.693   5.122   1.337
 2996WAT      O 9229   6.200   9.827   7.218
 2996WAT     H1 9230   6.244   9.783   7.139
 2996WAT     H2 9231   6.219   9.925   7.217
 2997WAT      O 9232   2.124   6.501   7.508
 2997WAT     H1 9233   2.128   6.409   7.467
 2997WAT     H2 9234   2.200   6.511   7.572
 2998WAT      O 9235   2.065   5.933   2.988
 2998WAT     H1 9236   2.023   5.875   2.918
 2998WAT     H2 9237   1.994   5.983   3.038
 2999WAT      O 9238   7.787   3.925   3.162
 2999WAT     H1 9239   7.773   4.017   3.127
 2999WAT     H2 9240   7.811   3.930   3.259
 3000WAT      O 9241   8.805   7.440   4.872
 3000WAT     H1 9242   8.898   7.429   4.907
 3000WAT     H2 9243   8.786   7.537   4.858
 3001WAT      O 9244   6.733   7.411   9.501
 3001WAT     H1 9245   6.812   7.418   9.440
 3001WAT     H2 9246   6.709   7.315   9.513
 3002WAT      O 9247   9.546   7.656   9.606
 3002WAT     H1 9248   9.550   7.588   9.534
 3002WAT     H2 9249   9.590   7.621   9.689
 3003WAT      O 9250   8.368   0.612   6.191
 3003WAT     H1 9251   8.422   0.660   6.121
 3003WAT     H2 9252   8.393   0.515   6.191
 3004WAT      O 9253   2.629   4.625   6.208
 3004WAT     H1 9254   2.664   4.650   6.118
 3004WAT     H2 9255   2.616   4.708   6.263
 3005WAT      O 9256   3.079   0.679   4.177
 3005WAT     H1 9257   3.149   0.673   4.106
 3005WAT     H2 9258   3.109   0.744   4.247
 3006WAT      O 9259   2.565   4.380   2.854
 3006WAT     H1 9260   2.638   4.398   2.788
 3006WAT     H2 9261   2.500   4.456   2.854
 3007WAT      O 9262   0.687   6.094   4.677
 3007WAT     H1 9263   0.640   6.082   4.764
 3007WAT     H2 9264   0.773   6.043   4.678
 3008WAT      O 9265   0.495   8.629   5.077
 3008WAT     H1 9266   0.413   8.572   5.086
 3008WAT     H2 9267   0.502   8.690   5.156
 3009WAT      O 9268   8.033   5.881   2.360
 3009WAT     H1 9269   8.117   5.876   2.306
 3009WAT     H2 9270   8.005   5.977   2.369
 3010WAT      O 9271   6.260   4.124   9.083
 3010WAT     H1 9272   6.336   4.071   9.119
 3010WAT     H2 9273   6.174   4.077   9.102
 3011WAT      O 9274   0.802   1.135   3.514
 3011WAT     H1 9275   0.864   1.067   3.474
 3011WAT     H2 9276   0.712   1.095   3.528
 3012WAT      O 9277   8.939   5.540   8.690
 3012WAT     H1 9278   8.887   5.538   8.605
 3012WAT     H2 9279   9.012   5.472   8.686
 3013WAT      O 9280   8.255   2.407   4.591
 3013WAT     H1 9281   8.326   2.467   4.628
 3013WAT     H2 9282   8.282   2.376   4.500
 3014WAT      O 9283   1.649   8.742   3.746
 3014WAT     H1 9284   1.710   8.723   3.824
 3014WAT     H2 9285   1.594   8.823   3.766
 3015WAT      O 9286   1.508   9.743   2.970
 3015WAT     H1 9287   1.478   9.808   2.900
 3015WAT     H2 9288   1.597   9.770   3.005
 3016WAT      O 9289   3.679   4.207   2.704
 3016WAT     H1 9290   3.733   4.196   2.787
 3016WAT     H2 9291   3.581   4.209   2.727
 3017WAT      O 9292   2.534   2.358   8.748
 3017WAT     H1 9293   2.462   2.326   8.810
 3017WAT     H2 9294   2.493   2.414   8.675
 3018WAT      O 9295   9.058   1.408   6.448
 3018WAT     H1 9296   9.016   1.496   6.427
 3018WAT     H2 9297   9.142   1.398   6.394
 3019WAT      O 9298   2.751   3.411   5.747
 3019WAT     H1 9299   2.828   3.455   5.702
 3019WAT     H2 9300   2.754   3.431   5.845
 3020WAT      O 9301   2.812   7.379   4.130
 3020WAT     H1 9302   2.881   7.311   4.109
 3020WAT     H2 9303   2.796   7.381   4.229
 3021WAT      O 9304   7.139   3.031   9.557
 3021WAT     H1 9305   7.214   3.087   9.522
 3021WAT     H2 9306   7.176   2.948   9.598
 3022WAT      O 9307   8.483   8.217   0.984
 3022WAT     H1 9308   8.431   8.248   0.904
 3022WAT     H2 9309   8.580   8.210   0.959
 3023WAT      O 9310   3.623   9.217   6.165
 3023WAT     H1 9311   3.716   9.251   6.150
 3023WAT     H2 9312   3.566   9.291   6.200
 3024WAT      O 9313   4.900   1.915   1.669
 3024WAT     H1 9314   4.822   1.932   1.610
 3024WAT     H2 9315   4.876   1.845   1.736
 3025WAT      O 9316   9.151   2.643   7.779
 3025WAT     H1 9317   9.079   2.643   7.849
 3025WAT     H2 9318   9.228   2.699   7.810
 3026WAT      O 9319   3.418   8.752   5.527
 3026WAT     H1 9320   3.358   8.823   5.562
 3026WAT     H2 9321   3.477   8.790   5.456
 3027WAT      O 9322   7.714   6.793   9.314
 3027WAT     H1 9323   7.724   6.863   9.384
 3027WAT     H2 9324   7.741   6.704   9.351
 3028WAT      O 9325   9.150   8.677   2.132
 3028WAT     H1 9326   9.230   8.714   2.180
 3028WAT     H2 9327   9.067   8.702   2.181
 3029WAT      O 9328   1.040   4.686   1.611
 3029WAT     H1 9329   0.995   4.687   1.521
 3029WAT     H2 9330   1.005   4.762   1.666
 3030WAT      O 9331   8.335   8.255   5.589
 3030WAT     H1 9332   8.281   8.336   5.611
 3030WAT     H2 9333   8.425   8.284   5.556
 3031WAT      O 9334   1.626   2.449   9.851
 3031WAT     H1 9335   1.554   2.484   9.791
 3031WAT     H2 9336   1.606   2.476   9.946
 3032WAT      O 9337   5.054   5.992   8.949
 3032WAT     H1 9338   5.076   5.926   8.877
 3032WAT     H2 9339   4.964   6.031   8.932
 3033WAT      O 9340   8.849   4.935   6.763
 3033WAT     H1 9341   8.900   4.864   6.715
 3033WAT     H2 9342   8.876   5.025   6.728
 3034WAT      O 9343   1.259   2.944   6.085
 3034WAT     H1 9344   1.305   2.880   6.024
 3034WAT     H2 9345   1.327   2.992   6.141
 3035WAT      O 9346   8.602   7.038   4.223
 3035WAT     H1 9347   8.603   7.000   4.131
 3035WAT     H2 9348   8.696   7.046   4.256
 3036WAT      O 9349   5.142   8.714   9.790
 3036WAT     H1 9350   5.193   8.632   9.814
 3036WAT     H2 9351   5.045   8.690   9.778
 3037WAT      O 9352   2.550   6.114   4.319
 3037WAT     H1 9353   2.558   6.210   4.347
 3037WAT     H2 9354   2.498   6.063   4.388
 3038WAT      O 9355   9.323   6.458   9.430
 3038WAT     H1 9356   9.333   6.359   9.437
 3038WAT     H2 9357   9.247   6.479   9.368
 3039WAT      O 9358   0.973   9.634   8.124
 3039WAT     H1 9359   1.067   9.612   8.099
 3039WAT     H2 9360   0.913   9.622   8.044
 3040WAT      O 9361   3.288   4.500   6.825
 3040WAT     H1 9362   3.325   4.538   6.910
 3040WAT     H2 9363   3.358   4.444   6.781
 3041WAT      O 9364   4.055   3.605   3.395
 3041WAT     H1 9365   4.089   3.679   3.336
 3041WAT     H2 9366   3.964   3.578   3.365
 3042WAT      O 9367   8.087   5.387   9.025
 3042WAT     H1 9368   8.120   5.461   8.967
 3042WAT     H2 9369   8.158   5.316   9.031
 3043WAT      O 9370   8.080   4.494   2.330
 3043WAT     H1 9371   8.114   4.509   2.237
 3043WAT     H2 9372   7.983   4.520   2.335
 3044WAT      O 9373   8.025   6.980   8.479
 3044WAT     H1 9374   7.933   6.961   8.512
 3044WAT     H2 9375   8.046   7.077   8.491
 3045WAT      O 9376   3.688   0.968   3.014
 3045WAT     H1 9377   3.726   0.877   2.998
 3045WAT     H2 9378   3.759   1.027   3.052
 3046WAT      O 9379   7.088   0.261   8.628
 3046WAT     H1 9380   7.105   0.241   8.531
 3046WAT     H2 9381   7.055   0.355   8.637
 3047WAT      O 9382   1.197   9.231   1.912
 3047WAT     H1 9383   1.241   9.305   1.861
 3047WAT     H2 9384   1.101   9.255   1.928
 3048WAT      O 9385   4.815   5.435   3.789
 3048WAT     H1 9386   4.839   5.350   3.743
 3048WAT     H2 9387   4.720   5.431   3.820
 3049WAT      O 9388   3.511   9.584   0.488
 3049WAT     H1 9389   3.569   9.517   0.440
 3049WAT     H2 9390   3.422   9.589   0.441
 3050WAT      O 9391   6.075   0.841   5.595
 3050WAT     H1 9392   6.121   0.811   5.511
 3050WAT     H2 9393   6.001   0.903   5.572
 3051WAT      O 9394   0.536   8.939   8.829
 3051WAT     H1 9395   0.522   8.996   8.910
 3051WAT     H2 9396   0.527   8.842   8.853
 3052WAT      O 9397   1.732   8.568   0.080
 3052WAT     H1 9398   1.653   8.534   0.029
 3052WAT     H2 9399   1.793   8.492   0.103
 3053WAT      O 9400   4.723   0.771   5.248
 3053WAT     H1 9401   4.630   0.792   5.218
 3053WAT     H2 9402   4.771   0.856   5.269
 3054WAT      O 9403   5.061   1.285   1.993
 3054WAT     H1 9404   5.044   1.291   2.091
 3054WAT     H2 9405   5.148   1.330   1.971
 3055WAT      O 9406   2.455   3.455   1.882
 3055WAT     H1 9407   2.495   3.534   1.929
 3055WAT     H2 9408   2.477   3.371   1.931
 3056WAT      O 9409   5.073   7.656   1.681
 3056WAT     H1 9410   5.067   7.689   1.775
 3056WAT     H2 9411   5.101   7.730   1.620
 3057WAT      O 9412   8.393   1.935   6.873
 3057WAT     H1 9413   8.373   1.959   6.778
 3057WAT     H2 9414   8.432   2.014   6.919
 3058WAT      O 9415   4.137   0.342   3.772
 3058WAT     H1 9416   4.096   0.433   3.763
 3058WAT     H2 9417   4.202   0.328   3.697
 3059WAT      O 9418   0.059   4.274   6.395
 3059WAT     H1 9419   0.008   4.216   6.332
 3059WAT     H2 9420  -0.005   4.329   6.449
 3060WAT      O 9421   7.713   3.431   2.944
 3060WAT     H1 9422   7.690   3.528   2.944
 3060WAT     H2 9423   7.747   3.404   2.854
 3061WAT      O 9424   0.859   3.634   9.349
 3061WAT     H1 9425   0.950   3.640   9.306
 3061WAT     H2 9426   0.833   3.538   9.358
 3062WAT      O 9427   5.128   7.916   1.539
 3062WAT     H1 9428   5.194   7.969   1.486
 3062WAT     H2 9429   5.080   7.976   1.603
 3063WAT      O 9430   6.008   0.752   8.026
 3063WAT     H1 9431   5.991   0.834   7.972
 3063WAT     H2 9432   5.949   0.754   8.107
 3064WAT      O 9433   7.884   7.884   8.428
 3064WAT     H1 9434   7.936   7.966   8.453
 3064WAT     H2 9435   7.938   7.827   8.366
 3065WAT      O 9436   1.031   5.858   7.612
 3065WAT     H1 9437   1.028   5.765   7.576
 3065WAT     H2 9438   1.058   5.856   7.708
 3066WAT      O 9439   5.955   5.021   3.053
 3066WAT     H1 9440   5.996   4.950   2.995
 3066WAT     H2 9441   5.920   4.978   3.136
 3067WAT      O 9442   4.192   5.100   8.421
 3067WAT     H1 9443   4.210   5.096   8.323
 3067WAT     H2 9444   4.094   5.113   8.437
 3068WAT      O 9445   3.887   7.679   8.778
 3068WAT     H1 9446   3.882   7.702   8.875
 3068WAT     H2 9447   3.837   7.747   8.725
 3069WAT      O 9448   8.104   3.306   1.575
 3069WAT     H1 9449   8.130   3.257   1.492
 3069WAT     H2 9450   8.073   3.241   1.644
 3070WAT      O 9451   4.771   6.812   0.724
 3070WAT     H1 9452   4.772   6.910   0.742
 3070WAT     H2 9453   4.788   6.762   0.809
 3071WAT      O 9454   0.427   0.290   3.486
 3071WAT     H1 9455   0.471   0.380   3.475
 3071WAT     H2 9456   0.433   0.240   3.400
 3072WAT      O 9457   3.311   9.646   5.791
 3072WAT     H1 9458   3.387   9.683   5.737
 3072WAT     H2 9459   3.333   9.651   5.888
 3073WAT      O 9460   2.620   7.603   2.786
 3073WAT     H1 9461   2.609   7.678   2.851
 3073WAT     H2 9462   2.531   7.581   2.745
 3074WAT      O 9463   7.560   7.036   1.105
 3074WAT     H1 9464   7.547   7.001   1.013
 3074WAT     H2 9465   7.564   7.136   1.103
 3075WAT      O 9466   4.491   9.015   8.129
 3075WAT     H1 9467   4.539   8.927   8.134
 3075WAT     H2 9468   4.543   9.079   8.073
 3076WAT      O 9469   4.072   9.832   3.042
 3076WAT     H1 9470   4.123   9.747   3.040
 3076WAT     H2 9471   4.054   9.863   2.949
 3077WAT      O 9472   2.294   9.490   6.572
 3077WAT     H1 9473   2.296   9.406   6.517
 3077WAT     H2 9474   2.218   9.547   6.541
 3078WAT      O 9475   4.417   9.694   6.612
 3078WAT     H1 9476   4.469   9.611   6.631
 3078WAT     H2 9477   4.470   9.774   6.640
 3079WAT      O 9478   7.863   5.515   1.246
 3079WAT     H1 9479   7.779   5.550   1.205
 3079WAT     H2 9480   7.928   5.491   1.173
 3080WAT      O 9481   3.005   4.167   2.205
 3080WAT     H1 9482   2.936   4.111   2.252
 3080WAT     H2 9483   2.973   4.188   2.113
 3081WAT      O 9484   7.283   3.115   7.196
 3081WAT     H1 9485   7.354   3.081   7.135
 3081WAT     H2 9486   7.293   3.214   7.207
 3082WAT      O 9487   4.277   0.188   2.872
 3082WAT     H1 9488   4.308   0.137   2.952
 3082WAT     H2 9489   4.327   0.157   2.792
 3083WAT      O 9490   2.842   9.173   6.355
 3083WAT     H1 9491   2.759   9.126   6.327
 3083WAT     H2 9492   2.917   9.107   6.363
 3084WAT      O 9493   3.373   2.656   8.290
 3084WAT     H1 9494   3.378   2.731   8.356
 3084WAT     H2 9495   3.462   2.644   8.246
 3085WAT      O 9496   0.249   9.523   7.422
 3085WAT     H1 9497   0.212   9.474   7.343
 3085WAT     H2 9498   0.213   9.616   7.424
 3086WAT      O 9499   0.790   0.843   2.392
 3086WAT     H1 9500   0.832   0.826   2.303
 3086WAT     H2 9501   0.734   0.926   2.387
 3087WAT      O 9502   7.918   5.881   5.544
 3087WAT     H1 9503   7.990   5.936   5.587
 3087WAT     H2 9504   7.919   5.789   5.584
 3088WAT      O 9505   6.986   1.617   0.107
 3088WAT     H1 9506   6.895   1.576   0.110
 3088WAT     H2 9507   7.018   1.635   0.200
 3089WAT      O 9508   3.630   2.484   0.893
 3089WAT     H1 9509   3.583   2.550   0.834
 3089WAT     H2 9510   3.671   2.532   0.971
 3090WAT      O 9511   9.400   4.254   9.635
 3090WAT     H1 9512   9.390   4.334   9.576
 3090WAT     H2 9513   9.445   4.282   9.720
 3091WAT      O 9514   2.863   7.561   5.787
 3091WAT     H1 9515   2.769   7.527   5.792
 3091WAT     H2 9516   2.886   7.609   5.872
 3092WAT      O 9517   7.907   3.741   8.143
 3092WAT     H1 9518   7.846   3.716   8.218
 3092WAT     H2 9519   7.963   3.819   8.170
 3093WAT      O 9520   3.946   2.606   1.379
 3093WAT     H1 9521   4.029   2.638   1.426
 3093WAT     H2 9522   3.962   2.603   1.280
 3094WAT      O 9523   9.493   0.480   0.438
 3094WAT     H1 9524   9.424   0.543   0.474
 3094WAT     H2 9525   9.450   0.417   0.373
 3095WAT      O 9526   2.329   2.876   5.232
 3095WAT     H1 9527   2.377   2.963   5.236
 3095WAT     H2 9528   2.378   2.807   5.285
 3096WAT      O 9529   6.699   0.251   3.605
 3096WAT     H1 9530   6.783   0.302   3.621
 3096WAT     H2 9531   6.644   0.249   3.689
 3097WAT      O 9532   0.158   4.182   8.666
 3097WAT     H1 9533   0.125   4.256   8.608
 3097WAT     H2 9534   0.163   4.213   8.761
 3098WAT      O 9535   7.904   8.202   5.260
 3098WAT     H1 9536   7.932   8.246   5.175
 3098WAT     H2 9537   7.826   8.142   5.243
 3099WAT      O 9538   1.020   0.748   2.721
 3099WAT     H1 9539   1.087   0.801   2.774
 3099WAT     H2 9540   0.932   0.795   2.723
 3100WAT      O 9541   4.383   7.600   4.217
 3100WAT     H1 9542   4.430   7.543   4.150
 3100WAT     H2 9543   4.451   7.646   4.275
 3101WAT      O 9544   1.688   1.209   8.026
 3101WAT     H1 9545   1.740   1.288   7.991
 3101WAT     H2 9546   1.594   1.238   8.046
 3102WAT      O 9547   2.449   3.864   8.948
 3102WAT     H1 9548   2.479   3.957   8.930
 3102WAT     H2 9549   2.504   3.824   9.022
 3103WAT      O 9550   2.328   8.860   3.476
 3103WAT     H1 9551   2.344   8.866   3.575
 3103WAT     H2 9552   2.404   8.903   3.427
 3104WAT      O 9553   2.694   1.251   1.244
 3104WAT     H1 9554   2.757   1.328   1.257
 3104WAT     H2 9555   2.740   1.166   1.267
 3105WAT      O 9556   2.535   8.691   7.782
 3105WAT     H1 9557   2.512   8.740   7.698
 3105WAT     H2 9558   2.618   8.637   7.767
 3106WAT      O 9559   6.776   2.427   3.119
 3106WAT     H1 9560   6.822   2.368   3.052
 3106WAT     H2 9561   6.758   2.516   3.078
 3107WAT      O 9562   4.138   7.158   1.642
 3107WAT     H1 9563   4.040   7.149   1.662
 3107WAT     H2 9564   4.168   7.081   1.585
 3108WAT      O 9565   8.620   8.768   3.568
 3108WAT     H1 9566   8.536   8.799   3.613
 3108WAT     H2 9567   8.669   8.847   3.531
 3109WAT      O 9568   1.160   7.774   0.399
 3109WAT     H1 9569   1.095   7.837   0.443
 3109WAT     H2 9570   1.131   7.680   0.415
 3110WAT      O 9571   9.741   9.781   9.571
 3110WAT     H1 9572   9.778   9.733   9.650
 3110WAT     H2 9573   9.765   9.878   9.577
 3111WAT      O 9574   1.480   2.883   7.975
 3111WAT     H1 9575   1.434   2.972   7.981
 3111WAT     H2 9576   1.538   2.882   7.894
 3112WAT      O 9577   6.960   0.644   2.337
 3112WAT     H1 9578   7.020   0.696   2.397
 3112WAT     H2 9579   6.900   0.586   2.393
 3113WAT      O 9580   7.120   1.286   2.928
 3113WAT     H1 9581   7.207   1.248   2.959
 3113WAT     H2 9582   7.107   1.377   2.968
 3114WAT      O 9583   6.816   7.110   7.657
 3114WAT     H1 9584   6.825   7.072   7.749
 3114WAT     H2 9585   6.748   7.059   7.606
 3115WAT      O 9586   1.895   7.086   5.155
 3115WAT     H1 9587   1.875   6.989   5.141
 3115WAT     H2 9588   1.976   7.112   5.102
 3116WAT      O 9589   8.583   1.780   7.885
 3116WAT     H1 9590   8.551   1.730   7.805
 3116WAT     H2 9591   8.589   1.878   7.863
 3117WAT      O 9592   3.171   9.751   8.015
 3117WAT     H1 9593   3.244   9.794   7.962
 3117WAT     H2 9594   3.200   9.740   8.110
 3118WAT      O 9595   3.291   4.065   1.047
 3118WAT     H1 9596   3.240   4.094   1.129
 3118WAT     H2 9597   3.348   4.141   1.015
 3119WAT      O 9598   2.403   6.066   9.213
 3119WAT     H1 9599   2.458   6.038   9.292
 3119WAT     H2 9600   2.368   6.158   9.229
 3120WAT      O 9601   7.021   5.146   7.695
 3120WAT     H1 9602   7.071   5.064   7.722
 3120WAT     H2 9603   6.962   5.125   7.617
 3121WAT      O 9604   9.471   4.953   3.329
 3121WAT     H1 9605   9.437   5.047   3.338
 3121WAT     H2 9606   9.418   4.905   3.260
 3122WAT      O 9607   8.088   0.459   2.643
 3122WAT     H1 9608   8.165   0.486   2.700
 3122WAT     H2 9609   8.118   0.394   2.573
 3123WAT      O 9610   7.338   2.151   7.485
 3123WAT     H1 9611   7.266   2.113   7.427
 3123WAT     H2 9612   7.300   2.173   7.575
 3124WAT      O 9613   4.722   8.404   2.160
 3124WAT     H1 9614   4.778   8.358   2.229
 3124WAT     H2 9615   4.668   8.335   2.110
 3125WAT      O 9616   2.800   5.739   8.409
 3125WAT     H1 9617   2.862   5.701   8.341
 3125WAT     H2 9618   2.754   5.664   8.458
 3126WAT      O 9619   9.165   3.766   8.291
 3126WAT     H1 9620   9.139   3.711   8.211
 3126WAT     H2 9621   9.261   3.751   8.312
 3127WAT      O 9622   1.648   9.352   6.893
 3127WAT     H1 9623   1.635   9.255   6.912
 3127WAT     H2 9624   1.591   9.378   6.815
 3128WAT      O 9625   9.276   0.227   1.296
 3128WAT     H1 9626   9.273   0.130   1.269
 3128WAT     H2 9627   9.333   0.237   1.377
 3129WAT      O 9628   3.794   3.748   5.996
 3129WAT     H1 9629   3.787   3.703   6.085
 3129WAT     H2 9630   3.706   3.788   5.971
 3130WAT      O 9631   5.230   2.020   7.984
 3130WAT     H1 9632   5.200   2.000   7.891
 3130WAT     H2 9633   5.327   2.045   7.983
 3131WAT      O 9634   3.898   9.640   6.011
 3131WAT     H1 9635   3.875   9.694   5.931
 3131WAT     H2 9636   3.978   9.679   6.056
 3132WAT      O 9637   0.379   7.872   6.753
 3132WAT     H1 9638   0.387   7.823   6.840
 3132WAT     H2 9639   0.329   7.957   6.767
 3133WAT      O 9640   0.624   8.277   2.800
 3133WAT     H1 9641   0.677   8.192   2.796
 3133WAT     H2 9642   0.617   8.317   2.708
 3134WAT      O 9643   0.850   2.569   4.970
 3134WAT     H1 9644   0.800   2.559   4.884
 3134WAT     H2 9645   0.868   2.478   5.009
 3135WAT      O 9646   4.382   6.509   8.868
 3135WAT     H1 9647   4.466   6.497   8.921
 3135WAT     H2 9648   4.328   6.584   8.908
 3136WAT      O 9649   4.170   8.460   7.202
 3136WAT     H1 9650   4.088   8.441   7.254
 3136WAT     H2 9651   4.168   8.408   7.116
 3137WAT      O 9652   3.341   3.520   4.957
 3137WAT     H1 9653   3.342   3.473   5.045
 3137WAT     H2 9654   3.415   3.486   4.900
 3138WAT      O 9655   6.353   2.021   5.668
 3138WAT     H1 9656   6.385   1.967   5.746
 3138WAT     H2 9657   6.401   2.109   5.667
 3139WAT      O 9658   1.879   5.658   4.212
 3139WAT     H1 9659   1.924   5.569   4.218
 3139WAT     H2 9660   1.784   5.649   4.244
 3140WAT      O 9661   0.040   7.086   9.139
 3140WAT     H1 9662  -0.042   7.085   9.082
 3140WAT     H2 9663   0.120   7.100   9.080
 3141WAT      O 9664   7.651   9.475   0.071
 3141WAT     H1 9665   7.582   9.419   0.026
 3141WAT     H2 9666   7.659   9.563   0.024
 3142WAT      O 9667   9.332   2.224   7.620
 3142WAT     H1 9668   9.394   2.199   7.694
 3142WAT     H2 9669   9.255   2.276   7.657
 3143WAT      O 9670   8.629   6.343   3.272
 3143WAT     H1 9671   8.706   6.286   3.300
 3143WAT     H2 9672   8.657   6.439   3.273
 3144WAT      O 9673   7.914   8.696   7.545
 3144WAT     H1 9674   7.868   8.749   7.475
 3144WAT     H2 9675   7.849   8.632   7.587
 3145WAT      O 9676   1.180   4.607   5.909
 3145WAT     H1 9677   1.261   4.641   5.958
 3145WAT     H2 9678   1.097   4.636   5.958
 3146WAT      O 9679   0.855   9.262   8.568
 3146WAT     H1 9680   0.829   9.183   8.624
 3146WAT     H2 9681   0.902   9.329   8.625
 3147WAT      O 9682   6.110   8.631   4.853
 3147WAT     H1 9683   6.180   8.669   4.913
 3147WAT     H2 9684   6.040   8.585   4.907
 3148WAT      O 9685   6.641   0.489   1.069
 3148WAT     H1 9686   6.588   0.404   1.072
 3148WAT     H2 9687   6.672   0.506   0.975
 3149WAT      O 9688   5.589   8.180   9.683
 3149WAT     H1 9689   5.639   8.209   9.764
 3149WAT     H2 9690   5.653   8.156   9.610
 3150WAT      O 9691   6.849   0.967   0.014
 3150WAT     H1 9692   6.887   1.058   0.025
 3150WAT     H2 9693   6.900   0.902   0.071
 3151WAT      O 9694   1.659   0.086   3.549
 3151WAT     H1 9695   1.686   0.046   3.636
 3151WAT     H2 9696   1.616   0.016   3.492
 3152WAT      O 9697   5.965   3.794   6.157
 3152WAT     H1 9698   6.053   3.756   6.128
 3152WAT     H2 9699   5.939   3.754   6.245
 3153WAT      O 9700   6.334   9.724   0.826
 3153WAT     H1 9701   6.395   9.772   0.888
 3153WAT     H2 9702   6.359   9.627   0.823
 3154WAT      O 9703   5.337   7.230   5.432
 3154WAT     H1 9704   5.264   7.251   5.497
 3154WAT     H2 9705   5.316   7.273   5.344
 3155WAT      O 9706   7.372   1.915   4.412
 3155WAT     H1 9707   7.327   1.978   4.349
 3155WAT     H2 9708   7.320   1.910   4.497
 3156WAT      O 9709   3.804   8.921   3.644
 3156WAT     H1 9710   3.860   8.871   3.710
 3156WAT     H2 9711   3.846   9.009   3.624
 3157WAT      O 9712   3.678   7.566   3.568
 3157WAT     H1 9713   3.654   7.605   3.656
 3157WAT     H2 9714   3.658   7.632   3.495
 3158WAT      O 9715   9.075   6.994   9.650
 3158WAT     H1 9716   9.095   6.904   9.611
 3158WAT     H2 9717   8.976   7.003   9.663
 3159WAT      O 9718   1.291   4.912   6.765
 3159WAT     H1 9719   1.303   4.865   6.677
 3159WAT     H2 9720   1.377   4.911   6.815
 3160WAT      O 9721   4.220   4.924   6.798
 3160WAT     H1 9722   4.131   4.963   6.776
 3160WAT     H2 9723   4.214   4.824   6.796
 3161WAT      O 9724   7.502   3.932   8.001
 3161WAT     H1 9725   7.545   3.878   7.929
 3161WAT     H2 9726   7.503   4.029   7.976
 3162WAT      O 9727   1.430   2.633   7.251
 3162WAT     H1 9728   1.394   2.663   7.163
 3162WAT     H2 9729   1.419   2.534   7.261
 3163WAT      O 9730   8.149   8.785   4.355
 3163WAT     H1 9731   8.054   8.759   4.375
 3163WAT     H2 9732   8.210   8.708   4.374
 3164WAT      O 9733   2.177   4.734   6.890
 3164WAT     H1 9734   2.183   4.650   6.943
 3164WAT     H2 9735   2.198   4.714   6.794
 3165WAT      O 9736   8.936   8.637   5.581
 3165WAT     H1 9737   8.986   8.631   5.668
 3165WAT     H2 9738   9.000   8.634   5.505
 3166WAT      O 9739   4.478   7.238   2.935
 3166WAT     H1 9740   4.446   7.323   2.893
 3166WAT     H2 9741   4.578   7.234   2.932
 3167WAT      O 9742   0.568   2.224   8.320
 3167WAT     H1 9743   0.610   2.156   8.381
 3167WAT     H2 9744   0.635   2.253   8.252
 3168WAT      O 9745   2.470   8.269   6.748
 3168WAT     H1 9746   2.537   8.283   6.822
 3168WAT     H2 9747   2.435   8.175   6.754
 3169WAT      O 9748   2.075   7.795   5.740
 3169WAT     H1 9749   2.024   7.783   5.825
 3169WAT     H2 9750   2.146   7.725   5.733
 3170WAT      O 9751   1.015   1.403   1.683
 3170WAT     H1 9752   1.072   1.484   1.693
 3170WAT     H2 9753   0.943   1.421   1.617
 3171WAT      O 9754   4.553   0.641   9.455
 3171WAT     H1 9755   4.550   0.639   9.355
 3171WAT     H2 9756   4.597   0.558   9.489
 3172WAT      O 9757   8.900   9.561   7.674
 3172WAT     H1 9758   8.930   9.466   7.666
 3172WAT     H2 9759   8.818   9.566   7.730
 3173WAT      O 9760   7.071   6.042   2.168
 3173WAT     H1 9761   7.057   6.067   2.264
 3173WAT     H2 9762   6.993   6.073   2.114
 3174WAT      O 9763   5.575   2.079   4.645
 3174WAT     H1 9764   5.535   2.022   4.717
 3174WAT     H2 9765   5.674   2.089   4.662
 3175WAT      O 9766   1.864   6.756   5.162
 3175WAT     H1 9767   1.865   6.665   5.120
 3175WAT     H2 9768   1.770   6.787   5.174
 3176WAT      O 9769   7.406   4.257   3.978
 3176WAT     H1 9770   7.461   4.330   3.938
 3176WAT     H2 9771   7.461   4.174   3.988
 3177WAT      O 9772   9.834   8.694   1.173
 3177WAT     H1 9773   9.808   8.727   1.264
 3177WAT     H2 9774   9.893   8.614   1.182
 3178WAT      O 9775   9.724   8.104   1.046
 3178WAT     H1 9776   9.750   8.033   1.111
 3178WAT     H2 9777   9.625   8.117   1.049
 3179WAT      O 9778   4.076   0.366   0.876
 3179WAT     H1 9779   4.057   0.464   0.874
 3179WAT     H2 9780   4.060   0.328   0.785
 3180WAT      O 9781   2.702   3.032   3.405
 3180WAT     H1 9782   2.672   2.941   3.433
 3180WAT     H2 9783   2.695   3.095   3.483
 3181WAT      O 9784   6.387   2.444   0.327
 3181WAT     H1 9785   6.395   2.416   0.423
 3181WAT     H2 9786   6.390   2.363   0.268
 3182WAT      O 9787   0.484   8.695   2.001
 3182WAT     H1 9788   0.435   8.619   1.959
 3182WAT     H2 9789   0.490   8.771   1.936
 3183WAT      O 9790   5.822   5.335   6.181
 3183WAT     H1 9791   5.757   5.270   6.221
 3183WAT     H2 9792   5.813   5.424   6.226
 3184WAT      O 9793   5.132   4.808   9.443
 3184WAT     H1 9794   5.222   4.782   9.408
 3184WAT     H2 9795   5.141   4.844   9.536
 3185WAT      O 9796   6.053   5.091   3.745
 3185WAT     H1 9797   5.959   5.081   3.778
 3185WAT     H2 9798   6.077   5.188   3.744
 3186WAT      O 9799   2.534   9.700   1.258
 3186WAT     H1 9800   2.586   9.773   1.213
 3186WAT     H2 9801   2.576   9.679   1.346
 3187WAT      O 9802   4.112   7.293   9.105
 3187WAT     H1 9803   4.156   7.218   9.154
 3187WAT     H2 9804   4.132   7.285   9.007
 3188WAT      O 9805   5.745   6.474   1.761
 3188WAT     H1 9806   5.813   6.529   1.810
 3188WAT     H2 9807   5.657   6.521   1.765
 3189WAT      O 9808   5.223   7.306   1.937
 3189WAT     H1 9809   5.247   7.345   2.026
 3189WAT     H2 9810   5.222   7.206   1.943
 3190WAT      O 9811   5.219   7.739   7.045
 3190WAT     H1 9812   5.170   7.800   7.108
 3190WAT     H2 9813   5.302   7.785   7.013
 3191WAT      O 9814   2.634   1.776   9.586
 3191WAT     H1 9815   2.711   1.739   9.639
 3191WAT     H2 9816   2.633   1.734   9.496
 3192WAT      O 9817   6.186   0.597   3.655
 3192WAT     H1 9818   6.188   0.614   3.753
 3192WAT     H2 9819   6.163   0.502   3.638
 3193WAT      O 9820   0.298   1.791   5.187
 3193WAT     H1 9821   0.387   1.812   5.144
 3193WAT     H2 9822   0.313   1.739   5.271
 3194WAT      O 9823   6.009   7.793   8.857
 3194WAT     H1 9824   6.073   7.812   8.931
 3194WAT     H2 9825   6.007   7.695   8.838
 3195WAT      O 9826   2.542   7.756   5.258
 3195WAT     H1 9827   2.612   7.825   5.273
 3195WAT     H2 9828   2.483   7.750   5.339
 3196WAT      O 9829   8.765   5.585   6.911
 3196WAT     H1 9830   8.773   5.684   6.925
 3196WAT     H2 9831   8.802   5.561   6.821
 3197WAT      O 9832   7.392   6.174   1.565
 3197WAT     H1 9833   7.403   6.167   1.664
 3197WAT     H2 9834   7.480   6.201   1.524
 3198WAT      O 9835   1.977   1.533   2.387
 3198WAT     H1 9836   1.934   1.515   2.299
 3198WAT     H2 9837   1.992   1.631   2.398
 3199WAT      O 9838   0.192   2.228   7.839
 3199WAT     H1 9839   0.289   2.206   7.824
 3199WAT     H2 9840   0.136   2.150   7.813
 3200WAT      O 9841   3.796   1.414   3.159
 3200WAT     H1 9842   3.729   1.406   3.233
 3200WAT     H2 9843   3.888   1.397   3.195
 3201WAT      O 9844   7.720   4.279   7.948
 3201WAT     H1 9845   7.769   4.246   7.867
 3201WAT     H2 9846   7.743   4.222   8.026
 3202WAT      O 9847   2.412   5.508   9.116
 3202WAT     H1 9848   2.415   5.496   9.017
 3202WAT     H2 9849   2.317   5.511   9.147
 3203WAT      O 9850   5.959   5.541   8.677
 3203WAT     H1 9851   6.004   5.452   8.683
 3203WAT     H2 9852   5.909   5.547   8.591
 3204WAT      O 9853   3.159   2.388   4.209
 3204WAT     H1 9854   3.249   2.430   4.203
 3204WAT     H2 9855   3.163   2.296   4.170
 3205WAT      O 9856   9.408   2.176   4.025
 3205WAT     H1 9857   9.489   2.230   4.050
 3205WAT     H2 9858   9.433   2.110   3.954
 3206WAT      O 9859   3.913   9.397   2.503
 3206WAT     H1 9860   3.915   9.480   2.559
 3206WAT     H2 9861   4.006   9.366   2.486
 3207WAT      O 9862   4.480   4.935   0.105
 3207WAT     H1 9863   4.461   4.997   0.182
 3207WAT     H2 9864   4.487   4.988   0.021
 3208WAT      O 9865   3.475   7.586   4.386
 3208WAT     H1 9866   3.544   7.540   4.441
 3208WAT     H2 9867   3.515   7.619   4.301
 3209WAT      O 9868   5.539   4.164   5.356
 3209WAT     H1 9869   5.597   4.244   5.370
 3209WAT     H2 9870   5.595   4.081   5.361
 3210WAT      O 9871   9.776   6.963   6.269
 3210WAT     H1 9872   9.827   7.043   6.238
 3210WAT     H2 9873   9.779   6.892   6.198
 3211WAT      O 9874   7.920   0.220   2.570
 3211WAT     H1 9875   7.889   0.264   2.655
 3211WAT     H2 9876   8.020   0.211   2.572
 3212WAT      O 9877   8.514   4.939   6.788
 3212WAT     H1 9878   8.555   4.900   6.870
 3212WAT     H2 9879   8.528   5.038   6.787
 3213WAT      O 9880   9.708   6.781   0.968
 3213WAT     H1 9881   9.689   6.710   1.036
 3213WAT     H2 9882   9.648   6.768   0.889
 3214WAT      O 9883   5.209   3.505   5.725
 3214WAT     H1 9884   5.279   3.442   5.691
 3214WAT     H2 9885   5.143   3.454   5.781
 3215WAT      O 9886   3.409   4.895   0.725
 3215WAT     H1 9887   3.393   4.915   0.822
 3215WAT     H2 9888   3.336   4.836   0.691
 3216WAT      O 9889   3.816   2.182   2.187
 3216WAT     H1 9890   3.893   2.226   2.142
 3216WAT     H2 9891   3.742   2.168   2.121
 3217WAT      O 9892   5.624   5.556   0.490
 3217WAT     H1 9893   5.709   5.568   0.438
 3217WAT     H2 9894   5.551   5.527   0.429
 3218WAT      O 9895   5.373   5.743   9.711
 3218WAT     H1 9896   5.390   5.650   9.743
 3218WAT     H2 9897   5.413   5.754   9.620
 3219WAT      O 9898   6.386   8.235   2.711
 3219WAT     H1 9899   6.305   8.204   2.761
 3219WAT     H2 9900   6.418   8.162   2.651
 3220WAT      O 9901   7.294   7.298   3.752
 3220WAT     H1 9902   7.338   7.343   3.675
 3220WAT     H2 9903   7.204   7.337   3.767
 3221WAT      O 9904   8.352   8.594   8.381
 3221WAT     H1 9905   8.323   8.647   8.301
 3221WAT     H2 9906   8.326   8.644   8.464
 3222WAT      O 9907   1.263   8.445   3.658
 3222WAT     H1 9908   1.345   8.498   3.677
 3222WAT     H2 9909   1.184   8.506   3.653
 3223WAT      O 9910   6.218   1.263   0.756
 3223WAT     H1 9911   6.201   1.253   0.855
 3223WAT     H2 9912   6.164   1.194   0.707
 3224WAT      O 9913   3.457   4.711   9.522
 3224WAT     H1 9914   3.478   4.732   9.426
 3224WAT     H2 9915   3.542   4.709   9.574
 3225WAT      O 9916   3.314   5.939   9.381
 3225WAT     H1 9917   3.391   5.974   9.434
 3225WAT     H2 9918   3.228   5.966   9.424
 3226WAT      O 9919   2.328   5.014   4.252
 3226WAT     H1 9920   2.307   4.921   4.283
 3226WAT     H2 9921   2.397   5.054   4.312
 3227WAT      O 9922   5.375   2.742   7.104
 3227WAT     H1 9923   5.394   2.711   7.010
 3227WAT     H2 9924   5.307   2.682   7.146
 3228WAT      O 9925   7.479   8.139   3.980
 3228WAT     H1 9926   7.413   8.117   4.052
 3228WAT     H2 9927   7.462   8.081   3.900
 3229WAT      O 9928   1.757   8.842   6.680
 3229WAT     H1 9929   1.836   8.890   6.718
 3229WAT     H2 9930   1.778   8.745   6.670
 3230WAT      O 9931   4.353   3.879   6.625
 3230WAT     H1 9932   4.407   3.869   6.709
 3230WAT     H2 9933   4.414   3.883   6.546
 3231WAT      O 9934   1.458   7.433   8.173
 3231WAT     H1 9935   1.526   7.494   8.214
 3231WAT     H2 9936   1.419   7.476   8.092
 3232WAT      O 9937   7.457   5.484   9.125
 3232WAT     H1 9938   7.413   5.452   9.209
 3232WAT     H2 9939   7.433   5.579   9.109
 3233WAT      O 9940   1.064   4.748   9.560
 3233WAT     H1 9941   1.086   4.664   9.510
 3233WAT     H2 9942   1.014   4.726   9.643
 3234WAT      O 9943   2.899   5.299   2.170
 3234WAT     H1 9944   2.896   5.211   2.122
 3234WAT     H2 9945   2.979   5.351   2.139
 3235WAT      O 9946   1.862   8.143   9.355
 3235WAT     H1 9947   1.959   8.119   9.364
 3235WAT     H2 9948   1.841   8.220   9.415
 3236WAT      O 9949   6.350   2.028   4.429
 3236WAT     H1 9950   6.440   2.038   4.471
 3236WAT     H2 9951   6.317   2.118   4.399
 3237WAT      O 9952   3.055   6.489   4.649
 3237WAT     H1 9953   3.120   6.485   4.574
 3237WAT     H2 9954   3.069   6.574   4.700
 3238WAT      O 9955   1.671   2.838   8.980
 3238WAT     H1 9956   1.669   2.783   9.063
 3238WAT     H2 9957   1.653   2.934   9.003
 3239WAT      O 9958   6.848   1.472   7.133
 3239WAT     H1 9959   6.831   1.568   7.112
 3239WAT     H2 9960   6.770   1.417   7.103
 3240WAT      O 9961   9.650   0.132   6.127
 3240WAT     H1 9962   9.700   0.046   6.118
 3240WAT     H2 9963   9.686   0.184   6.204
 3241WAT      O 9964   2.291   1.182   7.232
 3241WAT     H1 9965   2.307   1.243   7.310
 3241WAT     H2 9966   2.313   1.232   7.147
 3242WAT      O 9967   1.845   9.438   0.583
 3242WAT     H1 9968   1.795   9.378   0.646
 3242WAT     H2 9969   1.931   9.466   0.626
 3243WAT      O 9970   2.566   5.325   2.356
 3243WAT     H1 9971   2.660   5.298   2.379
 3243WAT     H2 9972   2.531   5.386   2.427
 3244WAT      O 9973   5.177   6.554   1.808
 3244WAT     H1 9974   5.268   6.594   1.815
 3244WAT     H2 9975   5.137   6.575   1.719
 3245WAT      O 9976   8.834   5.098   0.722
 3245WAT     H1 9977   8.778   5.172   0.684
 3245WAT     H2 9978   8.841   5.025   0.655
 3246WAT      O 9979   3.100   5.534   2.883
 3246WAT     H1 9980   3.161   5.611   2.901
 3246WAT     H2 9981   3.153   5.455   2.853
 3247WAT      O 9982   2.258   7.769   8.665
 3247WAT     H1 9983   2.260   7.670   8.684
 3247WAT     H2 9984   2.222   7.817   8.746
 3248WAT      O 9985   9.176   3.314   6.780
 3248WAT     H1 9986   9.116   3.236   6.761
 3248WAT     H2 9987   9.127   3.399   6.762
 3249WAT      O 9988   8.468   0.151   2.154
 3249WAT     H1 9989   8.541   0.219   2.161
 3249WAT     H2 9990   8.379   0.197   2.153
 3250WAT      O 9991   3.319   3.512   4.079
 3250WAT     H1 9992   3.331   3.506   4.178
 3250WAT     H2 9993   3.221   3.503   4.057
 3251WAT      O 9994   8.230   7.955   4.294
 3251WAT     H1 9995   8.206   7.999   4.207
 3251WAT     H2 9996   8.155   7.895   4.322
 3252WAT      O 9997   4.024   3.543   2.603
 3252WAT     H1 9998   4.056   3.634   2.629
 3252WAT     H2 9999   4.020   3.485   2.685
 3253WAT      O10000   8.408   2.326   8.687
 3253WAT     H110001   8.401   2.331   8.786
 3253WAT     H210002   8.497   2.359   8.657
 3254WAT      O10003   0.463   1.607   0.408
 3254WAT     H110004   0.494   1.517   0.439
 3254WAT     H210005   0.537   1.673   0.417
 3255WAT      O10006   9.295   2.746   6.995
 3255WAT     H110007   9.325   2.656   6.962
 3255WAT     H210008   9.367   2.786   7.052
 3256WAT      O10009   8.171   4.807   0.597
 3256WAT     H110010   8.209   4.795   0.505
 3256WAT     H210011   8.077   4.840   0.590
 3257WAT      O10012   3.224   3.297   1.745
 3257WAT     H110013   3.241   3.275   1.842
 3257WAT     H210014   3.310   3.295   1.695
 3258WAT      O10015   6.394   9.518   6.689
 3258WAT     H110016   6.323   9.502   6.620
 3258WAT     H210017   6.371   9.599   6.742
 3259WAT      O10018   7.375   2.550   4.384
 3259WAT     H110019   7.412   2.458   4.377
 3259WAT     H210020   7.428   2.602   4.451
 3260WAT      O10021   1.197   3.565   0.193
 3260WAT     H110022   1.281   3.610   0.225
 3260WAT     H210023   1.221   3.478   0.150
 3261WAT      O10024   8.895   6.158   6.928
 3261WAT     H110025   8.801   6.158   6.960
 3261WAT     H210026   8.957   6.150   7.006
 3262WAT      O10027   5.635   9.290   8.855
 3262WAT     H110028   5.610   9.383   8.883
 3262WAT     H210029   5.583   9.224   8.909
 3263WAT      O10030   4.733   5.693   6.657
 3263WAT     H110031   4.745   5.776   6.602
 3263WAT     H210032   4.638   5.662   6.649
 3264WAT      O10033   8.653   1.377   6.157
 3264WAT     H110034   8.715   1.450   6.188
 3264WAT     H210035   8.670   1.295   6.211
 3265WAT      O10036   2.818   8.644   2.896
 3265WAT     H110037   2.879   8.722   2.881
 3265WAT     H210038   2.736   8.675   2.944
 3266WAT      O10039   8.789   9.103   7.454
 3266WAT     H110040   8.833   9.107   7.364
 3266WAT     H210041   8.776   9.008   7.481
 3267WAT      O10042   2.842   4.117   1.449
 3267WAT     H110043   2.757   4.066   1.437
 3267WAT     H210044   2.918   4.053   1.462
 3268WAT      O10045   2.855   0.603   2.631
 3268WAT     H110046   2.895   0.555   2.552
 3268WAT     H210047   2.887   0.698   2.632
 3269WAT      O10048   4.857   5.465   8.430
 3269WAT     H110049   4.931   5.527   8.454
 3269WAT     H210050   4.855   5.452   8.331
 3270WAT      O10051   0.361   6.898   6.740
 3270WAT     H110052   0.353   6.879   6.642
 3270WAT     H210053   0.449   6.864   6.774
 3271WAT      O10054   3.177   0.287   2.450
 3271WAT     H110055   3.096   0.339   2.423
 3271WAT     H210056   3.191   0.211   2.385
 3272WAT      O10057   9.462   6.115   8.202
 3272WAT     H110058   9.430   6.066   8.121
 3272WAT     H210059   9.557   6.144   8.189
 3273WAT      O10060   2.190   8.507   7.952
 3273WAT     H110061   2.119   8.560   7.906
 3273WAT     H210062   2.163   8.411   7.954
 3274WAT      O10063   2.143   5.233   1.365
 3274WAT     H110064   2.168   5.313   1.311
 3274WAT     H210065   2.225   5.193   1.405
 3275WAT      O10066   1.614   8.772   1.497
 3275WAT     H110067   1.696   8.793   1.549
 3275WAT     H210068   1.561   8.701   1.544
 3276WAT      O10069   8.924   0.377   8.950
 3276WAT     H110070   8.830   0.380   8.984
 3276WAT     H210071   8.923   0.382   8.850
 3277WAT      O10072   8.280   7.980   5.540
 3277WAT     H110073   8.294   8.078   5.555
 3277WAT     H210074   8.222   7.944   5.613
 3278WAT      O10075   9.424   9.108   3.311
 3278WAT     H110076   9.493   9.051   3.267
 3278WAT     H210077   9.364   9.050   3.366
 3279WAT      O10078   3.193   7.145   6.985
 3279WAT     H110079   3.248   7.118   6.906
 3279WAT     H210080   3.233   7.227   7.027
 3280WAT      O10081   0.651   9.131   1.104
 3280WAT     H110082   0.702   9.045   1.095
 3280WAT     H210083   0.630   9.166   1.012
 3281WAT      O10084   9.566   3.730   8.908
 3281WAT     H110085   9.567   3.792   8.829
 3281WAT     H210086   9.659   3.699   8.927
 3282WAT      O10087   6.511   4.293   9.455
 3282WAT     H110088   6.416   4.261   9.458
 3282WAT     H210089   6.512   4.393   9.465
 3283WAT      O10090   1.954   9.218   5.723
 3283WAT     H110091   2.040   9.231   5.674
 3283WAT     H210092   1.900   9.148   5.678
 3284WAT      O10093   8.061   5.468   3.578
 3284WAT     H110094   8.106   5.448   3.491
 3284WAT     H210095   7.963   5.452   3.569
 3285WAT      O10096   7.202   1.592   1.615
 3285WAT     H110097   7.238   1.499   1.625
 3285WAT     H210098   7.110   1.588   1.576
 3286WAT      O10099   1.340   3.589   9.417
 3286WAT     H110100   1.425   3.637   9.395
 3286WAT     H210101   1.286   3.645   9.479
 3287WAT      O10102   4.731   4.565   2.573
 3287WAT     H110103   4.830   4.572   2.559
 3287WAT     H210104   4.687   4.652   2.550
 3288WAT      O10105   6.068   8.268   7.820
 3288WAT     H110106   6.151   8.292   7.769
 3288WAT     H210107   6.054   8.169   7.816
 3289WAT      O10108   5.987   0.566   3.309
 3289WAT     H110109   5.935   0.502   3.366
 3289WAT     H210110   6.037   0.515   3.239
 3290WAT      O10111   9.548   6.821   3.795
 3290WAT     H110112   9.563   6.883   3.717
 3290WAT     H210113   9.528   6.875   3.877
 3291WAT      O10114   0.075   6.379   6.011
 3291WAT     H110115   0.104   6.413   5.922
 3291WAT     H210116   0.061   6.280   6.005
 3292WAT      O10117   0.743   9.712   1.408
 3292WAT     H110118   0.772   9.757   1.493
 3292WAT     H210119   0.647   9.733   1.391
 3293WAT      O10120   5.748   1.825   3.258
 3293WAT     H110121   5.721   1.774   3.340
 3293WAT     H210122   5.786   1.913   3.285
 3294WAT      O10123   4.993   7.788   9.722
 3294WAT     H110124   4.909   7.836   9.697
 3294WAT     H210125   4.972   7.693   9.744
 3295WAT      O10126   0.463   1.531   6.328
 3295WAT     H110127   0.364   1.545   6.338
 3295WAT     H210128   0.483   1.504   6.234
 3296WAT      O10129   4.221   1.838   2.978
 3296WAT     H110130   4.318   1.817   2.990
 3296WAT     H210131   4.181   1.774   2.912
 3297WAT      O10132   5.133   0.165   8.627
 3297WAT     H110133   5.096   0.142   8.537
 3297WAT     H210134   5.192   0.245   8.620
 3298WAT      O10135   7.353   4.308   9.135
 3298WAT     H110136   7.348   4.286   9.038
 3298WAT     H210137   7.404   4.237   9.183
 3299WAT      O10138   6.229   0.299   5.201
 3299WAT     H110139   6.207   0.241   5.123
 3299WAT     H210140   6.268   0.386   5.170
 3300WAT      O10141   1.584   7.856   8.202
 3300WAT     H110142   1.675   7.878   8.237
 3300WAT     H210143   1.560   7.762   8.226
 3301WAT      O10144   0.985   6.758   8.007
 3301WAT     H110145   0.983   6.837   7.946
 3301WAT     H210146   1.076   6.717   8.006
 3302WAT      O10147   6.588   5.782   1.991
 3302WAT     H110148   6.522   5.821   1.927
 3302WAT     H210149   6.665   5.744   1.940
 3303WAT      O10150   4.731   9.225   4.195
 3303WAT     H110151   4.826   9.219   4.224
 3303WAT     H210152   4.674   9.167   4.252
 3304WAT      O10153   4.460   8.626   3.985
 3304WAT     H110154   4.543   8.652   3.936
 3304WAT     H210155   4.429   8.702   4.042
 3305WAT      O10156   2.866   7.562   7.697
 3305WAT     H110157   2.780   7.611   7.713
 3305WAT     H210158   2.935   7.595   7.760
 3306WAT      O10159   2.576   3.705   1.382
 3306WAT     H110160   2.621   3.674   1.466
 3306WAT     H210161   2.481   3.674   1.382
 3307WAT      O10162   0.034   1.178   8.501
 3307WAT     H110163   0.011   1.120   8.579
 3307WAT     H210164  -0.032   1.253   8.494
 3308WAT      O10165   3.976   4.392   9.233
 3308WAT     H110166   3.878   4.399   9.211
 3308WAT     H210167   3.987   4.349   9.323
 3309WAT      O10168   0.240   1.376   1.462
 3309WAT     H110169   0.306   1.405   1.393
 3309WAT     H210170   0.148   1.404   1.435
 3310WAT      O10171   6.572   9.377   1.853
 3310WAT     H110172   6.599   9.338   1.765
 3310WAT     H210173   6.652   9.384   1.913
 3311WAT      O10174   8.236   5.660   1.004
 3311WAT     H110175   8.312   5.722   1.021
 3311WAT     H210176   8.161   5.681   1.067
 3312WAT      O10177   8.923   4.605   0.405
 3312WAT     H110178   8.949   4.612   0.501
 3312WAT     H210179   8.990   4.656   0.349
 3313WAT      O10180   9.004   8.705   4.798
 3313WAT     H110181   8.983   8.693   4.701
 3313WAT     H210182   9.032   8.800   4.814
 3314WAT      O10183   6.759   8.221   8.323
 3314WAT     H110184   6.734   8.307   8.368
 3314WAT     H210185   6.810   8.164   8.387
 3315WAT      O10186   2.260   6.009   8.009
 3315WAT     H110187   2.180   6.027   8.066
 3315WAT     H210188   2.235   5.952   7.931
 3316WAT      O10189   1.307   9.129   9.053
 3316WAT     H110190   1.295   9.198   9.124
 3316WAT     H210191   1.296   9.171   8.963
 3317WAT      O10192   7.877   9.576   4.123
 3317WAT     H110193   7.908   9.668   4.148
 3317WAT     H210194   7.826   9.580   4.038
 3318WAT      O10195   8.073   4.554   4.237
 3318WAT     H110196   8.018   4.624   4.282
 3318WAT     H210197   8.162   4.546   4.281
 3319WAT      O10198   7.197   8.956   3.238
 3319WAT     H110199   7.134   8.885   3.207
 3319WAT     H210200   7.292   8.925   3.225
 3320WAT      O10201   5.341   7.842   6.769
 3320WAT     H110202   5.403   7.766   6.786
 3320WAT     H210203   5.282   7.821   6.691
 3321WAT      O10204   6.290   9.062   1.111
 3321WAT     H110205   6.292   9.019   1.020
 3321WAT     H210206   6.203   9.109   1.123
 3322WAT      O10207   0.091   2.375   6.175
 3322WAT     H110208   0.004   2.369   6.127
 3322WAT     H210209   0.077   2.354   6.272
 3323WAT      O10210   8.337   1.858   7.528
 3323WAT     H110211   8.375   1.855   7.436
 3323WAT     H210212   8.238   1.874   7.523
 3324WAT      O10213   1.375   5.182   0.833
 3324WAT     H110214   1.311   5.119   0.877
 3324WAT     H210215   1.324   5.258   0.792
 3325WAT      O10216   1.070   9.789   2.361
 3325WAT     H110217   1.105   9.734   2.436
 3325WAT     H210218   1.116   9.878   2.360
 3326WAT      O10219   1.913   4.485   8.900
 3326WAT     H110220   1.988   4.542   8.934
 3326WAT     H210221   1.918   4.396   8.944
 3327WAT      O10222   1.926   0.291   9.638
 3327WAT     H110223   1.887   0.275   9.728
 3327WAT     H210224   1.957   0.205   9.599
 3328WAT      O10225   1.558   0.140   4.343
 3328WAT     H110226   1.628   0.194   4.390
 3328WAT     H210227   1.467   0.168   4.375
 3329WAT      O10228   5.188   5.867   6.917
 3329WAT     H110229   5.089   5.877   6.930
 3329WAT     H210230   5.207   5.846   6.821
 3330WAT      O10231   5.165   3.510   1.033
 3330WAT     H110232   5.163   3.412   1.011
 3330WAT     H210233   5.215   3.558   0.961
 3331WAT      O10234   1.184   0.850   1.042
 3331WAT     H110235   1.263   0.869   0.983
 3331WAT     H210236   1.162   0.931   1.096
 3332WAT      O10237   2.725   3.539   8.440
 3332WAT     H110238   2.694   3.604   8.509
 3332WAT     H210239   2.731   3.584   8.351
 3333WAT      O10240   4.029   7.084   0.762
 3333WAT     H110241   4.124   7.078   0.793
 3333WAT     H210242   4.016   7.023   0.685
 3334WAT      O10243   7.307   8.023   7.861
 3334WAT     H110244   7.323   8.031   7.763
 3334WAT     H210245   7.377   8.075   7.911
 3335WAT      O10246   9.189   4.331   1.903
 3335WAT     H110247   9.259   4.387   1.858
 3335WAT     H210248   9.162   4.257   1.841
 3336WAT      O10249   9.217   3.939   7.992
 3336WAT     H110250   9.168   3.942   8.078
 3336WAT     H210251   9.176   3.870   7.932
 3337WAT      O10252   0.923   4.205   6.099
 3337WAT     H110253   1.017   4.220   6.069
 3337WAT     H210254   0.906   4.107   6.110
 3338WAT      O10255   5.364   4.578   9.569
 3338WAT     H110256   5.446   4.628   9.543
 3338WAT     H210257   5.385   4.518   9.647
 3339WAT      O10258   8.171   8.549   9.666
 3339WAT     H110259   8.194   8.639   9.701
 3339WAT     H210260   8.080   8.551   9.625
 3340WAT      O10261   3.647   6.195   1.999
 3340WAT     H110262   3.623   6.099   1.985
 3340WAT     H210263   3.701   6.204   2.083
 3341WAT      O10264   1.733   6.577   2.397
 3341WAT     H110265   1.833   6.577   2.399
 3341WAT     H210266   1.699   6.670   2.387
 3342WAT      O10267   4.156   4.895   2.510
 3342WAT     H110268   4.066   4.938   2.507
 3342WAT     H210269   4.149   4.804   2.550
 3343WAT      O10270   8.092   2.120   5.471
 3343WAT     H110271   8.163   2.059   5.436
 3343WAT     H210272   8.002   2.077   5.458
 3344WAT      O10273   1.709   1.334   1.548
 3344WAT     H110274   1.797   1.381   1.552
 3344WAT     H210275   1.724   1.235   1.552
 3345WAT      O10276   3.885   2.184   4.599
 3345WAT     H110277   3.946   2.182   4.520
 3345WAT     H210278   3.938   2.173   4.683
 3346WAT      O10279   5.879   9.636   4.292
 3346WAT     H110280   5.877   9.539   4.268
 3346WAT     H210281   5.933   9.686   4.224
 3347WAT      O10282   8.857   7.175   2.430
 3347WAT     H110283   8.870   7.222   2.343
 3347WAT     H210284   8.891   7.232   2.504
 3348WAT      O10285   1.673   8.406   6.194
 3348WAT     H110286   1.710   8.424   6.103
 3348WAT     H210287   1.684   8.488   6.251
 3349WAT      O10288   1.783   4.304   7.474
 3349WAT     H110289   1.870   4.255   7.475
 3349WAT     H210290   1.788   4.380   7.539
 3350WAT      O10291   2.923   5.058   0.334
 3350WAT     H110292   2.939   4.963   0.364
 3350WAT     H210293   2.860   5.102   0.398
 3351WAT      O10294   5.394   9.266   9.854
 3351WAT     H110295   5.419   9.263   9.951
 3351WAT     H210296   5.409   9.358   9.819
 3352WAT      O10297   8.067   7.311   9.471
 3352WAT     H110298   7.988   7.281   9.418
 3352WAT     H210299   8.126   7.369   9.415
 3353WAT      O10300   8.298   7.108   7.633
 3353WAT     H110301   8.230   7.157   7.688
 3353WAT     H210302   8.390   7.134   7.663
 3354WAT      O10303   5.559   2.391   7.572
 3354WAT     H110304   5.559   2.427   7.478
 3354WAT     H210305   5.467   2.361   7.596
 3355WAT      O10306   7.469   4.133   0.059
 3355WAT     H110307   7.390   4.076   0.081
 3355WAT     H210308   7.550   4.097   0.106
 3356WAT      O10309   4.121   5.051   4.568
 3356WAT     H110310   4.093   5.081   4.659
 3356WAT     H210311   4.159   4.958   4.574
 3357WAT      O10312   0.012   6.942   3.861
 3357WAT     H110313   0.005   6.862   3.920
 3357WAT     H210314  -0.014   6.917   3.767
 3358WAT      O10315   5.125   7.042   8.693
 3358WAT     H110316   5.211   7.053   8.744
 3358WAT     H210317   5.089   7.132   8.669
 3359WAT      O10318   6.107   0.588   6.215
 3359WAT     H110319   6.073   0.682   6.212
 3359WAT     H210320   6.047   0.529   6.161
 3360WAT      O10321   6.556   6.901   9.212
 3360WAT     H110322   6.600   6.818   9.247
 3360WAT     H210323   6.626   6.961   9.173
 3361WAT      O10324   8.426   8.982   9.884
 3361WAT     H110325   8.416   9.000   9.982
 3361WAT     H210326   8.383   9.055   9.831
 3362WAT      O10327   0.344   4.382   8.829
 3362WAT     H110328   0.400   4.349   8.905
 3362WAT     H210329   0.247   4.370   8.852
 3363WAT      O10330   2.891   8.579   6.499
 3363WAT     H110331   2.895   8.479   6.502
 3363WAT     H210332   2.983   8.616   6.510
 3364WAT      O10333   8.052   8.214   1.439
 3364WAT     H110334   7.988   8.163   1.496
 3364WAT     H210335   8.031   8.312   1.445
 3365WAT      O10336   7.870   7.252   0.225
 3365WAT     H110337   7.925   7.230   0.305
 3365WAT     H210338   7.805   7.178   0.207
 3366WAT      O10339   0.254   7.742   0.945
 3366WAT     H110340   0.156   7.754   0.935
 3366WAT     H210341   0.301   7.795   0.875
 3367WAT      O10342   5.344   1.179   5.725
 3367WAT     H110343   5.334   1.221   5.635
 3367WAT     H210344   5.391   1.241   5.786
 3368WAT      O10345   1.014   8.757   5.356
 3368WAT     H110346   0.967   8.675   5.389
 3368WAT     H210347   1.103   8.731   5.318
 3369WAT      O10348   2.949   3.266   4.730
 3369WAT     H110349   2.860   3.233   4.698
 3369WAT     H210350   2.956   3.364   4.710
 3370WAT      O10351   2.970   7.717   8.155
 3370WAT     H110352   3.015   7.789   8.207
 3370WAT     H210353   2.875   7.744   8.136
 3371WAT      O10354   0.505   9.162   8.659
 3371WAT     H110355   0.501   9.128   8.564
 3371WAT     H210356   0.516   9.084   8.721
 3372WAT      O10357   1.494   0.061   8.835
 3372WAT     H110358   1.481   0.081   8.932
 3372WAT     H210359   1.404   0.051   8.791
 3373WAT      O10360   1.991   5.173   8.912
 3373WAT     H110361   1.977   5.088   8.962
 3373WAT     H210362   2.085   5.205   8.926
 3374WAT      O10363   6.398   0.866   3.673
 3374WAT     H110364   6.440   0.776   3.667
 3374WAT     H210365   6.458   0.934   3.630
 3375WAT      O10366   8.378   8.812   6.132
 3375WAT     H110367   8.432   8.789   6.051
 3375WAT     H210368   8.414   8.762   6.211
 3376WAT      O10369   7.363   2.166   2.809
 3376WAT     H110370   7.401   2.220   2.733
 3376WAT     H210371   7.400   2.200   2.895
 3377WAT      O10372   6.047   6.296   1.053
 3377WAT     H110373   6.033   6.201   1.083
 3377WAT     H210374   6.004   6.358   1.118
 3378WAT      O10375   0.728   4.630   7.127
 3378WAT     H110376   0.777   4.633   7.040
 3378WAT     H210377   0.635   4.598   7.113
 3379WAT      O10378   8.755   6.849   9.124
 3379WAT     H110379   8.658   6.836   9.107
 3379WAT     H210380   8.786   6.934   9.081
 3380WAT      O10381   2.584   1.961   1.191
 3380WAT     H110382   2.655   1.892   1.208
 3380WAT     H210383   2.522   1.964   1.270
 3381WAT      O10384   0.172   6.668   8.367
 3381WAT     H110385   0.260   6.716   8.362
 3381WAT     H210386   0.170   6.611   8.449
 3382WAT      O10387   3.099   6.598   3.254
 3382WAT     H110388   3.025   6.536   3.228
 3382WAT     H210389   3.079   6.639   3.343
 3383WAT      O10390   9.234   0.527   8.826
 3383WAT     H110391   9.188   0.582   8.896
 3383WAT     H210392   9.187   0.539   8.738
 3384WAT      O10393   6.911   2.976   6.890
 3384WAT     H110394   6.982   3.045   6.897
 3384WAT     H210395   6.929   2.915   6.813
 3385WAT      O10396   3.199   9.085   1.858
 3385WAT     H110397   3.149   9.162   1.899
 3385WAT     H210398   3.288   9.076   1.902
 3386WAT      O10399   0.703   8.108   5.307
 3386WAT     H110400   0.669   8.190   5.353
 3386WAT     H210401   0.803   8.113   5.301
 3387WAT      O10402   0.782   6.131   1.003
 3387WAT     H110403   0.802   6.226   0.981
 3387WAT     H210404   0.867   6.079   1.011
 3388WAT      O10405   8.599   0.457   8.548
 3388WAT     H110406   8.610   0.557   8.550
 3388WAT     H210407   8.672   0.417   8.493
 3389WAT      O10408   7.983   1.519   2.784
 3389WAT     H110409   7.930   1.600   2.809
 3389WAT     H210410   7.923   1.452   2.738
 3390WAT      O10411   5.096   5.571   4.311
 3390WAT     H110412   5.007   5.525   4.322
 3390WAT     H210413   5.142   5.575   4.400
 3391WAT      O10414   3.967   0.129   2.814
 3391WAT     H110415   3.875   0.101   2.786
 3391WAT     H210416   3.961   0.200   2.883
 3392WAT      O10417   0.041   4.342   8.215
 3392WAT     H110418   0.090   4.260   8.188
 3392WAT     H210419  -0.024   4.368   8.143
 3393WAT      O10420   8.201   1.755   6.958
 3393WAT     H110421   8.281   1.807   6.929
 3393WAT     H210422   8.133   1.754   6.885
 3394WAT      O10423   7.973   1.949   0.683
 3394WAT     H110424   8.022   1.904   0.758
 3394WAT     H210425   8.017   1.924   0.596
 3395WAT      O10426   7.329   5.439   1.539
 3395WAT     H110427   7.286   5.525   1.512
 3395WAT     H210428   7.363   5.392   1.457
 3396WAT      O10429   8.996   0.669   7.167
 3396WAT     H110430   9.010   0.733   7.092
 3396WAT     H210431   8.902   0.677   7.200
 3397WAT      O10432   2.977   7.206   0.292
 3397WAT     H110433   3.064   7.204   0.340
 3397WAT     H210434   2.906   7.241   0.352
 3398WAT      O10435   5.900   3.904   7.914
 3398WAT     H110436   5.814   3.910   7.863
 3398WAT     H210437   5.974   3.878   7.852
 3399WAT      O10438   4.363   0.642   1.859
 3399WAT     H110439   4.359   0.677   1.952
 3399WAT     H210440   4.293   0.572   1.846
 3400WAT      O10441   3.594   3.571   4.835
 3400WAT     H110442   3.548   3.656   4.863
 3400WAT     H210443   3.548   3.533   4.754
 3401WAT      O10444   6.239   7.266   9.423
 3401WAT     H110445   6.167   7.201   9.446
 3401WAT     H210446   6.324   7.241   9.469
 3402WAT      O10447   7.035   2.712   2.117
 3402WAT     H110448   7.027   2.665   2.205
 3402WAT     H210449   6.977   2.666   2.049
 3403WAT      O10450   9.241   3.315   4.859
 3403WAT     H110451   9.266   3.262   4.778
 3403WAT     H210452   9.176   3.262   4.915
 3404WAT      O10453   0.548   9.062   9.375
 3404WAT     H110454   0.607   9.141   9.361
 3404WAT     H210455   0.602   8.978   9.365
 3405WAT      O10456   4.126   5.561   2.615
 3405WAT     H110457   4.213   5.512   2.603
 3405WAT     H210458   4.144   5.660   2.614
 3406WAT      O10459   8.739   7.590   0.431
 3406WAT     H110460   8.825   7.542   0.414
 3406WAT     H210461   8.701   7.561   0.519
 3407WAT      O10462   7.159   1.300   5.368
 3407WAT     H110463   7.103   1.377   5.338
 3407WAT     H210464   7.105   1.240   5.427
 3408WAT      O10465   5.484   5.334   1.794
 3408WAT     H110466   5.529   5.335   1.704
 3408WAT     H210467   5.441   5.422   1.811
 3409WAT      O10468   2.397   0.982   2.880
 3409WAT     H110469   2.331   0.909   2.899
 3409WAT     H210470   2.392   1.051   2.952
 3410WAT      O10471   0.056   2.120   8.113
 3410WAT     H110472   0.142   2.078   8.084
 3410WAT     H210473  -0.021   2.071   8.072
 3411WAT      O10474   6.010   9.420   9.896
 3411WAT     H110475   6.090   9.471   9.864
 3411WAT     H210476   5.932   9.441   9.838
 3412WAT      O10477   8.432   0.962   0.341
 3412WAT     H110478   8.378   0.888   0.300
 3412WAT     H210479   8.394   0.985   0.430
 3413WAT      O10480   4.790   4.778   1.220
 3413WAT     H110481   4.769   4.681   1.217
 3413WAT     H210482   4.888   4.791   1.204
 3414WAT      O10483   4.941   0.011   7.310
 3414WAT     H110484   4.970   0.071   7.235
 3414WAT     H210485   4.965   0.054   7.397
 3415WAT      O10486   6.787   4.179   4.234
 3415WAT     H110487   6.853   4.155   4.305
 3415WAT     H210488   6.745   4.096   4.198
 3416WAT      O10489   1.688   5.398   8.616
 3416WAT     H110490   1.716   5.346   8.697
 3416WAT     H210491   1.607   5.355   8.575
 3417WAT      O10492   2.583   4.356   2.201
 3417WAT     H110493   2.582   4.285   2.271
 3417WAT     H210494   2.611   4.316   2.114
 3418WAT      O10495   0.105   2.033   8.833
 3418WAT     H110496   0.182   2.010   8.892
 3418WAT     H210497   0.115   2.126   8.799
 3419WAT      O10498   2.749   2.198   8.307
 3419WAT     H110499   2.672   2.134   8.310
 3419WAT     H210500   2.782   2.215   8.400
 3420WAT      O10501   7.455   0.124   2.231
 3420WAT     H110502   7.510   0.205   2.209
 3420WAT     H210503   7.366   0.153   2.268
 3421WAT      O10504   4.098   7.836   1.236
 3421WAT     H110505   4.162   7.780   1.186
 3421WAT     H210506   4.039   7.886   1.172
 3422WAT      O10507   6.293   1.531   3.487
 3422WAT     H110508   6.262   1.521   3.582
 3422WAT     H210509   6.213   1.531   3.426
 3423WAT      O10510   4.067   8.822   6.280
 3423WAT     H110511   4.161   8.824   6.315
 3423WAT     H210512   4.003   8.827   6.356
 3424WAT      O10513   8.227   9.091   8.139
 3424WAT     H110514   8.310   9.101   8.084
 3424WAT     H210515   8.168   9.171   8.124
 3425WAT      O10516   5.981   3.622   4.096
 3425WAT     H110517   5.928   3.662   4.170
 3425WAT     H210518   5.921   3.567   4.038
 3426WAT      O10519   5.838   0.422   8.461
 3426WAT     H110520   5.792   0.336   8.440
 3426WAT     H210521   5.915   0.435   8.397
 3427WAT      O10522   7.930   7.810   2.778
 3427WAT     H110523   7.918   7.906   2.802
 3427WAT     H210524   7.941   7.801   2.679
 3428WAT      O10525   4.729   8.437   4.154
 3428WAT     H110526   4.812   8.421   4.206
 3428WAT     H210527   4.654   8.381   4.192
 3429WAT      O10528   7.471   5.469   8.227
 3429WAT     H110529   7.491   5.373   8.208
 3429WAT     H210530   7.374   5.486   8.214
 3430WAT      O10531   9.770   9.185   6.764
 3430WAT     H110532   9.812   9.271   6.793
 3430WAT     H210533   9.826   9.142   6.694
 3431WAT      O10534   9.240   8.998   3.532
 3431WAT     H110535   9.280   9.084   3.564
 3431WAT     H210536   9.278   8.922   3.585
 3432WAT      O10537   0.778   1.141   2.758
 3432WAT     H110538   0.823   1.099   2.837
 3432WAT     H210539   0.712   1.209   2.789
 3433WAT      O10540   2.096   5.766   3.346
 3433WAT     H110541   2.094   5.667   3.338
 3433WAT     H210542   2.126   5.806   3.259
 3434WAT      O10543   2.824   0.802   6.559
 3434WAT     H110544   2.734   0.807   6.601
 3434WAT     H210545   2.815   0.809   6.459
 3435WAT      O10546   8.304   0.455   4.403
 3435WAT     H110547   8.236   0.385   4.426
 3435WAT     H210548   8.283   0.539   4.452
 3436WAT      O10549   3.389   7.684   7.197
 3436WAT     H110550   3.356   7.765   7.245
 3436WAT     H210551   3.372   7.694   7.099
 3437WAT      O10552   9.523   1.602   2.861
 3437WAT     H110553   9.546   1.660   2.782
 3437WAT     H210554   9.501   1.660   2.939
 3438WAT      O10555   0.477   6.677   3.606
 3438WAT     H110556   0.514   6.680   3.513
 3438WAT     H210557   0.513   6.754   3.659
 3439WAT      O10558   1.413   0.428   8.167
 3439WAT     H110559   1.366   0.431   8.079
 3439WAT     H210560   1.376   0.499   8.227
 3440WAT      O10561   8.140   6.281   2.144
 3440WAT     H110562   8.118   6.325   2.057
 3440WAT     H210563   8.093   6.330   2.218
 3441WAT      O10564   6.483   2.458   5.813
 3441WAT     H110565   6.446   2.542   5.852
 3441WAT     H210566   6.516   2.398   5.886
 3442WAT      O10567   4.497   7.431   1.818
 3442WAT     H110568   4.574   7.434   1.882
 3442WAT     H210569   4.527   7.392   1.731
 3443WAT      O10570   3.735   5.892   4.819
 3443WAT     H110571   3.707   5.849   4.733
 3443WAT     H210572   3.662   5.880   4.887
 3444WAT      O10573   2.898   9.387   6.882
 3444WAT     H110574   2.980   9.443   6.869
 3444WAT     H210575   2.881   9.334   6.800
 3445WAT      O10576   0.171   9.378   7.215
 3445WAT     H110577   0.071   9.385   7.223
 3445WAT     H210578   0.199   9.405   7.123
 3446WAT      O10579   8.885   7.726   4.390
 3446WAT     H110580   8.915   7.632   4.371
 3446WAT     H210581   8.906   7.748   4.486
 3447WAT      O10582   3.604   3.634   2.085
 3447WAT     H110583   3.674   3.699   2.115
 3447WAT     H210584   3.627   3.600   1.994
 3448WAT      O10585   9.685   1.327   6.137
 3448WAT     H110586   9.605   1.270   6.152
 3448WAT     H210587   9.765   1.269   6.120
 3449WAT      O10588   9.407   3.265   1.867
 3449WAT     H110589   9.341   3.308   1.928
 3449WAT     H210590   9.404   3.166   1.878
 3450WAT      O10591   7.227   4.253   2.020
 3450WAT     H110592   7.206   4.346   2.050
 3450WAT     H210593   7.144   4.197   2.025
 3451WAT      O10594   1.173   2.196   2.322
 3451WAT     H110595   1.222   2.206   2.235
 3451WAT     H210596   1.165   2.100   2.345
 3452WAT      O10597   4.059   3.491   5.013
 3452WAT     H110598   3.999   3.536   5.080
 3452WAT     H210599   4.019   3.498   4.922
 3453WAT      O10600   3.476   8.979   7.137
 3453WAT     H110601   3.573   9.003   7.133
 3453WAT     H210602   3.422   9.051   7.093
 3454WAT      O10603   3.459   4.314   6.715
 3454WAT     H110604   3.459   4.290   6.618
 3454WAT     H210605   3.544   4.282   6.757
 3455WAT      O10606   8.892   3.900   2.924
 3455WAT     H110607   8.904   3.826   2.990
 3455WAT     H210608   8.795   3.921   2.914
 3456WAT      O10609   1.029   9.416   4.275
 3456WAT     H110610   1.001   9.338   4.220
 3456WAT     H210611   0.965   9.427   4.351
 3457WAT      O10612   7.326   1.273   3.299
 3457WAT     H110613   7.378   1.327   3.232
 3457WAT     H210614   7.349   1.303   3.391
 3458WAT      O10615   0.871   6.544   1.719
 3458WAT     H110616   0.966   6.549   1.749
 3458WAT     H210617   0.811   6.572   1.795
 3459WAT      O10618   8.639   8.383   0.574
 3459WAT     H110619   8.691   8.413   0.654
 3459WAT     H210620   8.694   8.398   0.491
 3460WAT      O10621   2.708   1.835   6.441
 3460WAT     H110622   2.771   1.885   6.500
 3460WAT     H210623   2.718   1.867   6.347
 3461WAT      O10624   1.429   4.136   5.010
 3461WAT     H110625   1.388   4.062   4.956
 3461WAT     H210626   1.393   4.223   4.979
 3462WAT      O10627   9.106   4.927   3.065
 3462WAT     H110628   9.031   4.892   3.009
 3462WAT     H210629   9.096   5.025   3.077
 3463WAT      O10630   7.127   4.295   9.880
 3463WAT     H110631   7.044   4.348   9.897
 3463WAT     H210632   7.207   4.354   9.895
 3464WAT      O10633   9.877   1.866   7.452
 3464WAT     H110634   9.947   1.870   7.381
 3464WAT     H210635   9.875   1.774   7.491
 3465WAT      O10636   6.352   7.228   2.381
 3465WAT     H110637   6.309   7.302   2.330
 3465WAT     H210638   6.408   7.266   2.455
 3466WAT      O10639   5.942   5.103   5.573
 3466WAT     H110640   5.919   5.106   5.476
 3466WAT     H210641   5.954   5.007   5.601
 3467WAT      O10642   2.270   5.393   6.716
 3467WAT     H110643   2.288   5.490   6.704
 3467WAT     H210644   2.197   5.364   6.654
 3468WAT      O10645   0.168   7.568   9.636
 3468WAT     H110646   0.078   7.609   9.618
 3468WAT     H210647   0.210   7.614   9.714
 3469WAT      O10648   5.141   1.233   6.180
 3469WAT     H110649   5.045   1.227   6.207
 3469WAT     H210650   5.147   1.238   6.080
 3470WAT      O10651   1.038   8.223   0.616
 3470WAT     H110652   0.938   8.225   0.614
 3470WAT     H210653   1.071   8.301   0.668
 3471WAT      O10654   3.900   6.815   8.701
 3471WAT     H110655   3.833   6.834   8.629
 3471WAT     H210656   3.870   6.857   8.787
 3472WAT      O10657   0.149   2.382   0.599
 3472WAT     H110658   0.217   2.444   0.558
 3472WAT     H210659   0.182   2.288   0.591
 3473WAT      O10660   1.993   6.405   3.301
 3473WAT     H110661   1.979   6.402   3.202
 3473WAT     H210662   2.088   6.381   3.322
 3474WAT      O10663   9.781   6.882   0.415
 3474WAT     H110664   9.828   6.879   0.504
 3474WAT     H210665   9.838   6.931   0.350
 3475WAT      O10666   6.632   4.475   3.852
 3475WAT     H110667   6.567   4.426   3.795
 3475WAT     H210668   6.585   4.547   3.903
 3476WAT      O10669   9.444   0.764   6.683
 3476WAT     H110670   9.429   0.857   6.651
 3476WAT     H210671   9.356   0.722   6.706
 3477WAT      O10672   5.939   1.080   6.385
 3477WAT     H110673   5.994   1.158   6.415
 3477WAT     H210674   5.851   1.113   6.351
 3478WAT      O10675   8.746   0.627   2.691
 3478WAT     H110676   8.765   0.717   2.731
 3478WAT     H210677   8.656   0.627   2.648
 3479WAT      O10678   4.935   0.141   9.538
 3479WAT     H110679   4.966   0.226   9.495
 3479WAT     H210680   4.967   0.063   9.484
 3480WAT      O10681   3.845   6.210   6.442
 3480WAT     H110682   3.913   6.178   6.377
 3480WAT     H210683   3.820   6.305   6.420
 3481WAT      O10684   2.434   0.341   6.115
 3481WAT     H110685   2.374   0.287   6.173
 3481WAT     H210686   2.404   0.437   6.116
 3482WAT      O10687   3.626   2.186   8.745
 3482WAT     H110688   3.606   2.247   8.668
 3482WAT     H210689   3.612   2.235   8.831
 3483WAT      O10690   9.226   9.012   0.659
 3483WAT     H110691   9.317   9.039   0.690
 3483WAT     H210692   9.168   9.093   0.648
 3484WAT      O10693   5.422   4.933   8.715
 3484WAT     H110694   5.482   4.910   8.791
 3484WAT     H210695   5.327   4.919   8.741
 3485WAT      O10696   1.362   5.405   4.761
 3485WAT     H110697   1.430   5.376   4.828
 3485WAT     H210698   1.356   5.504   4.760
 3486WAT      O10699   6.637   9.794   1.318
 3486WAT     H110700   6.707   9.734   1.356
 3486WAT     H210701   6.571   9.740   1.266
 3487WAT      O10702   6.927   8.985   1.470
 3487WAT     H110703   6.829   8.979   1.488
 3487WAT     H210704   6.951   9.078   1.445
 3488WAT      O10705   3.099   4.187   5.955
 3488WAT     H110706   3.131   4.172   6.048
 3488WAT     H210707   3.019   4.247   5.957
 3489WAT      O10708   6.181   2.605   2.089
 3489WAT     H110709   6.272   2.584   2.123
 3489WAT     H210710   6.155   2.539   2.020
 3490WAT      O10711   0.389   2.742   0.707
 3490WAT     H110712   0.340   2.668   0.662
 3490WAT     H210713   0.486   2.717   0.714
 3491WAT      O10714   4.421   8.117   4.533
 3491WAT     H110715   4.405   8.055   4.457
 3491WAT     H210716   4.343   8.115   4.595
 3492WAT      O10717   7.389   8.481   9.189
 3492WAT     H110718   7.348   8.540   9.120
 3492WAT     H210719   7.337   8.395   9.194
 3493WAT      O10720   5.663   8.149   3.421
 3493WAT     H110721   5.646   8.136   3.519
 3493WAT     H210722   5.615   8.078   3.369
 3494WAT      O10723   0.417   4.369   2.161
 3494WAT     H110724   0.499   4.423   2.148
 3494WAT     H210725   0.412   4.297   2.092
 3495WAT      O10726   6.372   2.825   8.556
 3495WAT     H110727   6.427   2.771   8.621
 3495WAT     H210728   6.298   2.870   8.605
 3496WAT      O10729   2.894   6.805   6.426
 3496WAT     H110730   2.852   6.895   6.440
 3496WAT     H210731   2.889   6.781   6.329
 3497WAT      O10732   7.490   2.049   1.312
 3497WAT     H110733   7.543   2.001   1.382
 3497WAT     H210734   7.524   2.142   1.302
 3498WAT      O10735   1.367   1.276   6.293
 3498WAT     H110736   1.346   1.320   6.380
 3498WAT     H210737   1.462   1.292   6.269
 3499WAT      O10738   6.239   9.483   6.478
 3499WAT     H110739   6.279   9.537   6.404
 3499WAT     H210740   6.207   9.396   6.441
 3500WAT      O10741   2.368   6.863   3.610
 3500WAT     H110742   2.450   6.920   3.612
 3500WAT     H210743   2.378   6.793   3.541
 3501WAT      O10744   0.342   3.554   0.023
 3501WAT     H110745   0.368   3.648   0.045
 3501WAT     H210746   0.326   3.545  -0.075
 3502WAT      O10747   6.025   8.780   5.563
 3502WAT     H110748   6.081   8.858   5.537
 3502WAT     H210749   5.940   8.781   5.509
 3503WAT      O10750   4.364   1.284   4.387
 3503WAT     H110751   4.327   1.312   4.476
 3503WAT     H210752   4.387   1.365   4.333
 3504WAT      O10753   4.297   4.113   3.782
 3504WAT     H110754   4.253   4.029   3.751
 3504WAT     H210755   4.298   4.180   3.708
 3505WAT      O10756   5.719   2.551   0.021
 3505WAT     H110757   5.673   2.476   0.067
 3505WAT     H210758   5.669   2.575  -0.063
 3506WAT      O10759   4.456   2.985   6.868
 3506WAT     H110760   4.428   3.021   6.779
 3506WAT     H210761   4.543   2.936   6.858
 3507WAT      O10762   1.962   2.281   7.686
 3507WAT     H110763   1.907   2.224   7.747
 3507WAT     H210764   1.907   2.306   7.606
 3508WAT      O10765   9.771   0.610   8.242
 3508WAT     H110766   9.743   0.692   8.292
 3508WAT     H210767   9.755   0.623   8.145
 3509WAT      O10768   4.266   4.135   4.060
 3509WAT     H110769   4.176   4.176   4.070
 3509WAT     H210770   4.289   4.129   3.963
 3510WAT      O10771   4.085   9.676   9.690
 3510WAT     H110772   4.005   9.706   9.638
 3510WAT     H210773   4.115   9.751   9.749
 3511WAT      O10774   5.188   5.328   9.812
 3511WAT     H110775   5.203   5.268   9.891
 3511WAT     H210776   5.268   5.386   9.798
 3512WAT      O10777   1.420   2.165   7.175
 3512WAT     H110778   1.357   2.231   7.216
 3512WAT     H210779   1.476   2.211   7.106
 3513WAT      O10780   8.317   9.584   2.309
 3513WAT     H110781   8.319   9.496   2.262
 3513WAT     H210782   8.340   9.572   2.405
 3514WAT      O10783   3.090   9.389   4.799
 3514WAT     H110784   3.154   9.329   4.846
 3514WAT     H210785   3.128   9.417   4.711
 3515WAT      O10786   4.813   6.183   4.217
 3515WAT     H110787   4.725   6.145   4.245
 3515WAT     H210788   4.826   6.273   4.261
 3516WAT      O10789   7.845   4.132   8.117
 3516WAT     H110790   7.881   4.166   8.204
 3516WAT     H210791   7.785   4.054   8.135
 3517WAT      O10792   9.157   3.043   6.524
 3517WAT     H110793   9.229   3.096   6.479
 3517WAT     H210794   9.197   2.984   6.594
 3518WAT      O10795   1.004   2.436   4.416
 3518WAT     H110796   0.934   2.508   4.412
 3518WAT     H210797   1.053   2.440   4.503
 3519WAT      O10798   6.060   9.703   0.812
 3519WAT     H110799   6.036   9.660   0.899
 3519WAT     H210800   6.160   9.713   0.807
 3520WAT      O10801   0.203   1.038   6.778
 3520WAT     H110802   0.112   1.024   6.816
 3520WAT     H210803   0.222   0.969   6.709
 3521WAT      O10804   6.576   9.025   2.153
 3521WAT     H110805   6.560   8.971   2.236
 3521WAT     H210806   6.488   9.046   2.110
 3522WAT      O10807   5.931   8.418   0.446
 3522WAT     H110808   5.893   8.380   0.361
 3522WAT     H210809   5.920   8.517   0.445
 3523WAT      O10810   0.083   3.099   0.264
 3523WAT     H110811   0.165   3.088   0.207
 3523WAT     H210812   0.105   3.157   0.342
 3524WAT      O10813   1.522   5.109   9.295
 3524WAT     H110814   1.526   5.188   9.234
 3524WAT     H210815   1.434   5.109   9.343
 3525WAT      O10816   9.825   1.294   7.440
 3525WAT     H110817   9.857   1.366   7.378
 3525WAT     H210818   9.733   1.316   7.471
 3526WAT      O10819   0.563   2.110   3.534
 3526WAT     H110820   0.546   2.125   3.437
 3526WAT     H210821   0.482   2.136   3.587
 3527WAT      O10822   7.975   9.540   9.191
 3527WAT     H110823   7.969   9.619   9.129
 3527WAT     H210824   8.031   9.469   9.148
 3528WAT      O10825   2.056   1.145   3.068
 3528WAT     H110826   2.017   1.067   3.019
 3528WAT     H210827   1.983   1.211   3.088
 3529WAT      O10828   5.973   9.646   1.075
 3529WAT     H110829   6.016   9.577   1.134
 3529WAT     H210830   5.967   9.732   1.125
 3530WAT      O10831   5.854   6.449   9.048
 3530WAT     H110832   5.946   6.483   9.033
 3530WAT     H210833   5.828   6.388   8.972
 3531WAT      O10834   3.222   8.966   9.311
 3531WAT     H110835   3.207   8.888   9.371
 3531WAT     H210836   3.138   9.020   9.304
 3532WAT      O10837   9.102   0.048   1.081
 3532WAT     H110838   9.157   0.003   1.151
 3532WAT     H210839   9.029  -0.014   1.051
 3533WAT      O10840   1.052   8.522   7.148
 3533WAT     H110841   1.125   8.494   7.209
 3533WAT     H210842   1.020   8.613   7.173
 3534WAT      O10843   9.874   9.456   8.641
 3534WAT     H110844   9.955   9.405   8.669
 3534WAT     H210845   9.813   9.395   8.590
 3535WAT      O10846   2.426   7.161   4.237
 3535WAT     H110847   2.400   7.082   4.180
 3535WAT     H210848   2.397   7.245   4.192
 3536WAT      O10849   6.232   7.309   5.814
 3536WAT     H110850   6.237   7.265   5.724
 3536WAT     H210851   6.320   7.301   5.861
 3537WAT      O10852   4.079   2.360   7.183
 3537WAT     H110853   4.125   2.429   7.128
 3537WAT     H210854   3.981   2.379   7.186
 3538WAT      O10855   1.185   8.006   3.369
 3538WAT     H110856   1.168   8.046   3.459
 3538WAT     H210857   1.272   8.040   3.333
 3539WAT      O10858   5.700   8.894   4.727
 3539WAT     H110859   5.798   8.876   4.735
 3539WAT     H210860   5.651   8.837   4.793
 3540WAT      O10861   2.699   4.303   5.122
 3540WAT     H110862   2.697   4.398   5.091
 3540WAT     H210863   2.630   4.250   5.072
 3541WAT      O10864   1.358   0.177   3.179
 3541WAT     H110865   1.355   0.078   3.193
 3541WAT     H210866   1.442   0.213   3.219
 3542WAT      O10867   4.724   0.466   6.999
 3542WAT     H110868   4.735   0.433   7.093
 3542WAT     H210869   4.644   0.422   6.958
 3543WAT      O10870   1.051   5.278   1.480
 3543WAT     H110871   0.952   5.289   1.488
 3543WAT     H210872   1.086   5.234   1.562
 3544WAT      O10873   5.891   3.436   8.207
 3544WAT     H110874   5.967   3.478   8.256
 3544WAT     H210875   5.915   3.426   8.110
 3545WAT      O10876   8.621   0.903   3.327
 3545WAT     H110877   8.608   0.990   3.374
 3545WAT     H210878   8.717   0.894   3.299
 3546WAT      O10879   6.885   4.795   0.314
 3546WAT     H110880   6.798   4.830   0.350
 3546WAT     H210881   6.872   4.702   0.281
 3547WAT      O10882   0.588   8.260   0.218
 3547WAT     H110883   0.545   8.335   0.268
 3547WAT     H210884   0.667   8.226   0.269
 3548WAT      O10885   0.160   7.228   3.483
 3548WAT     H110886   0.174   7.297   3.412
 3548WAT     H210887   0.072   7.245   3.528
 3549WAT      O10888   0.776   6.831   1.933
 3549WAT     H110889   0.872   6.855   1.918
 3549WAT     H210890   0.769   6.733   1.949
 3550WAT      O10891   8.755   6.000   6.110
 3550WAT     H110892   8.812   6.018   6.190
 3550WAT     H210893   8.721   5.905   6.114
 3551WAT      O10894   7.286   2.488   2.504
 3551WAT     H110895   7.296   2.585   2.483
 3551WAT     H210896   7.249   2.440   2.425
 3552WAT      O10897   0.181   6.936   6.347
 3552WAT     H110898   0.149   7.025   6.313
 3552WAT     H210899   0.102   6.875   6.357
 3553WAT      O10900   2.063   8.894   3.418
 3553WAT     H110901   2.021   8.862   3.333
 3553WAT     H210902   2.162   8.889   3.411
 3554WAT      O10903   7.963   5.109   9.043
 3554WAT     H110904   8.041   5.161   9.007
 3554WAT     H210905   7.940   5.036   8.979
 3555WAT      O10906   2.742   0.189   8.931
 3555WAT     H110907   2.824   0.212   8.984
 3555WAT     H210908   2.764   0.118   8.864
 3556WAT      O10909   3.974   2.078   2.529
 3556WAT     H110910   4.073   2.061   2.531
 3556WAT     H210911   3.956   2.171   2.561
 3557WAT      O10912   6.766   8.500   6.508
 3557WAT     H110913   6.680   8.450   6.518
 3557WAT     H210914   6.834   8.463   6.572
 3558WAT      O10915   6.810   7.369   2.832
 3558WAT     H110916   6.785   7.461   2.802
 3558WAT     H210917   6.730   7.309   2.824
 3559WAT      O10918   7.235   8.065   1.795
 3559WAT     H110919   7.333   8.046   1.807
 3559WAT     H210920   7.188   8.045   1.881
 3560WAT      O10921   2.909   5.693   1.443
 3560WAT     H110922   2.965   5.639   1.380
 3560WAT     H210923   2.840   5.633   1.485
 3561WAT      O10924   5.128   5.469   9.067
 3561WAT     H110925   5.189   5.515   9.132
 3561WAT     H210926   5.036   5.465   9.105
 3562WAT      O10927   7.204   4.725   2.889
 3562WAT     H110928   7.223   4.669   2.809
 3562WAT     H210929   7.166   4.813   2.861
 3563WAT      O10930   3.955   2.637   2.876
 3563WAT     H110931   3.860   2.627   2.849
 3563WAT     H210932   3.961   2.696   2.957
 3564WAT      O10933   2.127   6.466   5.656
 3564WAT     H110934   2.198   6.520   5.609
 3564WAT     H210935   2.038   6.488   5.618
 3565WAT      O10936   8.245   7.906   8.425
 3565WAT     H110937   8.303   7.846   8.480
 3565WAT     H210938   8.177   7.851   8.376
 3566WAT      O10939   9.704   6.231   6.413
 3566WAT     H110940   9.721   6.165   6.340
 3566WAT     H210941   9.645   6.304   6.379
 3567WAT      O10942   4.494   0.911   4.817
 3567WAT     H110943   4.427   0.981   4.843
 3567WAT     H210944   4.553   0.890   4.895
 3568WAT      O10945   8.732   8.760   1.276
 3568WAT     H110946   8.704   8.678   1.226
 3568WAT     H210947   8.830   8.756   1.293
 3569WAT      O10948   5.960   0.268   4.407
 3569WAT     H110949   6.016   0.202   4.456
 3569WAT     H210950   5.979   0.262   4.309
 3570WAT      O10951   3.349   4.640   8.790
 3570WAT     H110952   3.357   4.545   8.822
 3570WAT     H210953   3.436   4.687   8.804
 3571WAT      O10954   3.597   7.541   1.489
 3571WAT     H110955   3.558   7.485   1.562
 3571WAT     H210956   3.539   7.535   1.408
 3572WAT      O10957   6.183   2.207   1.506
 3572WAT     H110958   6.182   2.145   1.584
 3572WAT     H210959   6.175   2.154   1.421
 3573WAT      O10960   5.413   0.464   1.516
 3573WAT     H110961   5.402   0.426   1.608
 3573WAT     H210962   5.482   0.412   1.466
 3574WAT      O10963   5.312   8.468   8.587
 3574WAT     H110964   5.389   8.472   8.523
 3574WAT     H210965   5.261   8.554   8.584
 3575WAT      O10966   5.139   8.144   7.132
 3575WAT     H110967   5.055   8.133   7.185
 3575WAT     H210968   5.131   8.226   7.075
 3576WAT      O10969   3.619   6.654   8.779
 3576WAT     H110970   3.569   6.706   8.710
 3576WAT     H210971   3.615   6.702   8.867
 3577WAT      O10972   4.623   9.404   6.014
 3577WAT     H110973   4.699   9.446   5.964
 3577WAT     H210974   4.657   9.362   6.098
 3578WAT      O10975   5.617   1.987   5.824
 3578WAT     H110976   5.639   1.889   5.826
 3578WAT     H210977   5.666   2.031   5.749
 3579WAT      O10978   4.918   2.835   7.869
 3579WAT     H110979   4.930   2.934   7.879
 3579WAT     H210980   4.857   2.817   7.792
 3580WAT      O10981   8.014   6.503   8.205
 3580WAT     H110982   8.033   6.597   8.230
 3580WAT     H210983   7.982   6.452   8.285
 3581WAT      O10984   0.690   2.737   0.768
 3581WAT     H110985   0.694   2.837   0.778
 3581WAT     H210986   0.775   2.697   0.802
 3582WAT      O10987   1.954   1.998   5.803
 3582WAT     H110988   2.009   2.080   5.791
 3582WAT     H210989   1.994   1.942   5.876
 3583WAT      O10990   1.086   7.635   5.162
 3583WAT     H110991   1.046   7.577   5.091
 3583WAT     H210992   1.170   7.593   5.196
 3584WAT      O10993   3.372   7.566   0.386
 3584WAT     H110994   3.394   7.526   0.297
 3584WAT     H210995   3.274   7.559   0.403
 3585WAT      O10996   4.377   7.892   7.513
 3585WAT     H110997   4.453   7.900   7.447
 3585WAT     H210998   4.356   7.982   7.550
 3586WAT      O10999   8.010   3.279   7.074
 3586WAT     H111000   8.073   3.274   6.996
 3586WAT     H211001   8.061   3.268   7.159
 3587WAT      O11002   2.613   2.221   1.982
 3587WAT     H111003   2.570   2.240   1.894
 3587WAT     H211004   2.706   2.186   1.967
 3588WAT      O11005   9.667   5.151   2.321
 3588WAT     H111006   9.567   5.156   2.321
 3588WAT     H211007   9.696   5.056   2.313
 3589WAT      O11008   1.021   3.454   7.638
 3589WAT     H111009   1.098   3.482   7.695
 3589WAT     H211010   1.028   3.498   7.548
 3590WAT      O11011   3.928   6.962   5.875
 3590WAT     H111012   3.979   7.030   5.822
 3590WAT     H211013   3.912   6.881   5.819
 3591WAT      O11014   3.585   3.887   5.938
 3591WAT     H111015   3.491   3.867   5.965
 3591WAT     H211016   3.625   3.952   6.003
 3592WAT      O11017   4.297   4.725   0.229
 3592WAT     H111018   4.297   4.630   0.259
 3592WAT     H211019   4.357   4.736   0.150
 3593WAT      O11020   7.338   2.496   6.837
 3593WAT     H111021   7.411   2.434   6.866
 3593WAT     H211022   7.337   2.501   6.737
 3594WAT      O11023   3.769   0.126   9.119
 3594WAT     H111024   3.811   0.199   9.064
 3594WAT     H211025   3.695   0.165   9.175
 3595WAT      O11026   4.528   3.825   1.853
 3595WAT     H111027   4.525   3.924   1.861
 3595WAT     H211028   4.492   3.797   1.764
 3596WAT      O11029   9.640   6.612   1.170
 3596WAT     H111030   9.549   6.606   1.130
 3596WAT     H211031   9.635   6.654   1.260
 3597WAT      O11032   3.098   6.159   3.201
 3597WAT     H111033   3.175   6.168   3.264
 3597WAT     H211034   3.132   6.149   3.108
 3598WAT      O11035   2.944   6.307   6.676
 3598WAT     H111036   2.922   6.316   6.579
 3598WAT     H211037   2.859   6.311   6.730
 3599WAT      O11038   8.402   7.363   8.282
 3599WAT     H111039   8.439   7.441   8.230
 3599WAT     H211040   8.407   7.280   8.226
 3600WAT      O11041   2.557   9.718   8.342
 3600WAT     H111042   2.553   9.622   8.316
 3600WAT     H211043   2.549   9.775   8.260
 3601WAT      O11044   5.120   8.606   1.224
 3601WAT     H111045   5.164   8.635   1.309
 3601WAT     H211046   5.075   8.518   1.239
 3602WAT      O11047   6.993   6.949   3.473
 3602WAT     H111048   7.065   7.011   3.502
 3602WAT     H211049   6.970   6.887   3.548
 3603WAT      O11050   2.607   0.435   7.992
 3603WAT     H111051   2.552   0.355   7.967
 3603WAT     H211052   2.574   0.472   8.079
 3604WAT      O11053   0.998   0.170   0.805
 3604WAT     H111054   0.970   0.074   0.804
 3604WAT     H211055   1.010   0.200   0.900
 3605WAT      O11056   0.169   5.346   2.344
 3605WAT     H111057   0.193   5.249   2.352
 3605WAT     H211058   0.172   5.374   2.248
 3606WAT      O11059   6.004   3.926   4.795
 3606WAT     H111060   6.099   3.917   4.766
 3606WAT     H211061   5.944   3.922   4.714
 3607WAT      O11062   6.498   4.073   9.236
 3607WAT     H111063   6.455   4.120   9.313
 3607WAT     H211064   6.594   4.101   9.228
 3608WAT      O11065   5.572   7.825   3.850
 3608WAT     H111066   5.538   7.787   3.764
 3608WAT     H211067   5.658   7.780   3.875
 3609WAT      O11068   9.425   9.062   5.453
 3609WAT     H111069   9.479   9.052   5.537
 3609WAT     H211070   9.358   9.135   5.465
 3610WAT      O11071   4.232   8.033   0.993
 3610WAT     H111072   4.276   8.005   0.907
 3610WAT     H211073   4.296   8.018   1.069
 3611WAT      O11074   2.537   5.421   4.011
 3611WAT     H111075   2.529   5.502   3.954
 3611WAT     H211076   2.475   5.429   4.089
 3612WAT      O11077   5.753   6.198   2.360
 3612WAT     H111078   5.800   6.131   2.417
 3612WAT     H211079   5.664   6.220   2.400
 3613WAT      O11080   7.292   8.527   0.538
 3613WAT     H111081   7.282   8.428   0.546
 3613WAT     H211082   7.388   8.552   0.548
 3614WAT      O11083   0.610   7.649   3.299
 3614WAT     H111084   0.656   7.658   3.211
 3614WAT     H211085   0.526   7.703   3.298
 3615WAT      O11086   8.477   6.571   4.397
 3615WAT     H111087   8.488   6.671   4.393
 3615WAT     H211088   8.442   6.545   4.487
 3616WAT      O11089   1.122   9.793   8.516
 3616WAT     H111090   1.076   9.811   8.429
 3616WAT     H211091   1.055   9.772   8.586
 3617WAT      O11092   3.909   4.075   3.613
 3617WAT     H111093   3.915   3.975   3.607
 3617WAT     H211094   3.935   4.115   3.525
 3618WAT      O11095   8.720   2.834   6.881
 3618WAT     H111096   8.682   2.919   6.844
 3618WAT     H211097   8.731   2.843   6.980
 3619WAT      O11098   3.438   0.054   3.352
 3619WAT     H111099   3.472   0.101   3.433
 3619WAT     H211100   3.390  -0.030   3.380
 3620WAT      O11101   5.957   4.047   8.552
 3620WAT     H111102   5.987   3.988   8.628
 3620WAT     H211103   6.014   4.029   8.472
 3621WAT      O11104   7.085   6.438   1.033
 3621WAT     H111105   7.137   6.353   1.045
 3621WAT     H211106   7.145   6.510   0.999
 3622WAT      O11107   5.581   4.391   0.359
 3622WAT     H111108   5.526   4.334   0.421
 3622WAT     H211109   5.666   4.342   0.336
 3623WAT      O11110   8.203   6.369   6.839
 3623WAT     H111111   8.246   6.452   6.876
 3623WAT     H211112   8.106   6.386   6.822
 3624WAT      O11113   2.631   5.987   6.329
 3624WAT     H111114   2.565   6.062   6.327
 3624WAT     H211115   2.629   5.939   6.241
 3625WAT      O11116   8.207   4.443   5.746
 3625WAT     H111117   8.305   4.452   5.734
 3625WAT     H211118   8.182   4.347   5.750
 3626WAT      O11119   1.533   8.090   3.890
 3626WAT     H111120   1.464   8.162   3.895
 3626WAT     H211121   1.561   8.064   3.982
 3627WAT      O11122   0.059   3.572   8.225
 3627WAT     H111123   0.128   3.579   8.296
 3627WAT     H211124   0.096   3.606   8.139
 3628WAT      O11125   8.330   8.805   7.327
 3628WAT     H111126   8.374   8.893   7.346
 3628WAT     H211127   8.368   8.735   7.387
 3629WAT      O11128   4.732   7.226   0.145
 3629WAT     H111129   4.769   7.318   0.138
 3629WAT     H211130   4.694   7.198   0.057
 3630WAT      O11131   6.843   9.369   9.646
 3630WAT     H111132   6.906   9.317   9.588
 3630WAT     H211133   6.761   9.392   9.593
 3631WAT      O11134   3.149   6.212   7.475
 3631WAT     H111135   3.105   6.205   7.564
 3631WAT     H211136   3.248   6.216   7.487
 3632WAT      O11137   4.687   1.492   1.292
 3632WAT     H111138   4.669   1.550   1.372
 3632WAT     H211139   4.786   1.480   1.280
 3633WAT      O11140   0.723   4.761   5.580
 3633WAT     H111141   0.675   4.713   5.653
 3633WAT     H211142   0.690   4.855   5.574
 3634WAT      O11143   6.895   8.297   7.111
 3634WAT     H111144   6.828   8.236   7.068
 3634WAT     H211145   6.958   8.331   7.041
 3635WAT      O11146   1.268   6.026   5.219
 3635WAT     H111147   1.211   5.949   5.190
 3635WAT     H211148   1.278   6.024   5.319
 3636WAT      O11149   1.755   1.065   1.615
 3636WAT     H111150   1.772   1.097   1.708
 3636WAT     H211151   1.840   1.034   1.574
 3637WAT      O11152   3.245   9.161   8.423
 3637WAT     H111153   3.304   9.104   8.479
 3637WAT     H211154   3.297   9.239   8.388
 3638WAT      O11155   2.689   7.969   7.188
 3638WAT     H111156   2.789   7.972   7.183
 3638WAT     H211157   2.661   7.921   7.271
 3639WAT      O11158   1.426   8.248   4.502
 3639WAT     H111159   1.459   8.340   4.524
 3639WAT     H211160   1.342   8.255   4.448
 3640WAT      O11161   6.633   3.550   3.723
 3640WAT     H111162   6.650   3.471   3.663
 3640WAT     H211163   6.669   3.632   3.678
 3641WAT      O11164   8.425   7.221   2.110
 3641WAT     H111165   8.483   7.158   2.058
 3641WAT     H211166   8.333   7.182   2.119
 3642WAT      O11167   5.900   7.764   3.402
 3642WAT     H111168   5.937   7.857   3.408
 3642WAT     H211169   5.969   7.698   3.430
 3643WAT      O11170   5.149   5.649   3.311
 3643WAT     H111171   5.092   5.624   3.389
 3643WAT     H211172   5.198   5.734   3.331
 3644WAT      O11173   5.431   0.662   8.425
 3644WAT     H111174   5.454   0.693   8.333
 3644WAT     H211175   5.475   0.574   8.442
 3645WAT      O11176   6.209   1.494   9.708
 3645WAT     H111177   6.210   1.593   9.722
 3645WAT     H211178   6.155   1.450   9.779
 3646WAT      O11179   7.941   8.416   9.336
 3646WAT     H111180   7.931   8.502   9.385
 3646WAT     H211181   7.934   8.339   9.400
 3647WAT      O11182   9.182   8.480   6.474
 3647WAT     H111183   9.115   8.448   6.541
 3647WAT     H211184   9.269   8.498   6.521
 3648WAT      O11185   5.515   9.311   1.372
 3648WAT     H111186   5.552   9.239   1.314
 3648WAT     H211187   5.488   9.272   1.460
 3649WAT      O11188   0.122   7.239   5.544
 3649WAT     H111189   0.161   7.331   5.539
 3649WAT     H211190   0.118   7.200   5.452
 3650WAT      O11191   2.761   1.728   0.732
 3650WAT     H111192   2.804   1.799   0.788
 3650WAT     H211193   2.762   1.756   0.636
 3651WAT      O11194   7.007   3.652   7.171
 3651WAT     H111195   7.056   3.589   7.111
 3651WAT     H211196   6.951   3.714   7.116
 3652WAT      O11197   9.428   9.195   2.025
 3652WAT     H111198   9.381   9.268   1.976
 3652WAT     H211199   9.472   9.133   1.960
 3653WAT      O11200   8.160   7.889   6.848
 3653WAT     H111201   8.066   7.858   6.865
 3653WAT     H211202   8.173   7.979   6.890
 3654WAT      O11203   8.471   0.049   3.105
 3654WAT     H111204   8.514  -0.016   3.042
 3654WAT     H211205   8.521   0.050   3.191
 3655WAT      O11206   4.820   5.482   1.752
 3655WAT     H111207   4.815   5.520   1.659
 3655WAT     H211208   4.850   5.387   1.747
 3656WAT      O11209   7.283   3.840   2.551
 3656WAT     H111210   7.288   3.800   2.642
 3656WAT     H211211   7.229   3.780   2.492
 3657WAT      O11212   4.853   3.607   6.308
 3657WAT     H111213   4.903   3.551   6.242
 3657WAT     H211214   4.783   3.660   6.259
 3658WAT      O11215   8.451   7.663   3.317
 3658WAT     H111216   8.370   7.664   3.259
 3658WAT     H211217   8.508   7.743   3.296
 3659WAT      O11218   9.685   7.507   1.281
 3659WAT     H111219   9.775   7.540   1.252
 3659WAT     H211220   9.671   7.414   1.245
 3660WAT      O11221   4.087   5.589   0.517
 3660WAT     H111222   4.102   5.614   0.422
 3660WAT     H211223   4.174   5.591   0.566
 3661WAT      O11224   1.479   8.945   8.906
 3661WAT     H111225   1.399   8.976   8.957
 3661WAT     H211226   1.546   8.906   8.969
 3662WAT      O11227   6.990   1.658   0.772
 3662WAT     H111228   7.015   1.708   0.854
 3662WAT     H211229   7.063   1.595   0.747
 3663WAT      O11230   6.634   0.540   3.893
 3663WAT     H111231   6.604   0.463   3.950
 3663WAT     H211232   6.574   0.548   3.813
 3664WAT      O11233   1.997   9.685   7.496
 3664WAT     H111234   1.954   9.595   7.485
 3664WAT     H211235   1.940   9.754   7.453
 3665WAT      O11236   2.139   8.631   5.679
 3665WAT     H111237   2.139   8.596   5.585
 3665WAT     H211238   2.151   8.730   5.678
 3666WAT      O11239   2.065   6.230   8.867
 3666WAT     H111240   2.140   6.209   8.804
 3666WAT     H211241   1.990   6.272   8.817
 3667WAT      O11242   3.581   6.667   6.785
 3667WAT     H111243   3.675   6.632   6.783
 3667WAT     H211244   3.572   6.744   6.722
 3668WAT      O11245   0.122   9.707   7.755
 3668WAT     H111246   0.058   9.649   7.704
 3668WAT     H211247   0.123   9.679   7.851
 3669WAT      O11248   5.755   8.582   8.653
 3669WAT     H111249   5.749   8.599   8.555
 3669WAT     H211250   5.728   8.488   8.673
 3670WAT      O11251   1.264   1.535   7.260
 3670WAT     H111252   1.364   1.540   7.262
 3670WAT     H211253   1.227   1.627   7.249
 3671WAT      O11254   1.348   8.097   1.490
 3671WAT     H111255   1.301   8.096   1.401
 3671WAT     H211256   1.443   8.125   1.478
 3672WAT      O11257   0.211   4.522   4.986
 3672WAT     H111258   0.269   4.442   5.004
 3672WAT     H211259   0.234   4.560   4.897
 3673WAT      O11260   1.441   4.655   9.830
 3673WAT     H111261   1.455   4.752   9.809
 3673WAT     H211262   1.367   4.646   9.898
 3674WAT      O11263   3.693   4.676   6.207
 3674WAT     H111264   3.602   4.666   6.247
 3674WAT     H211265   3.762   4.649   6.274
 3675WAT      O11266   0.072   2.156   3.508
 3675WAT     H111267   0.004   2.082   3.501
 3675WAT     H211268   0.074   2.190   3.601
 3676WAT      O11269   6.099   4.132   8.046
 3676WAT     H111270   6.044   4.205   8.006
 3676WAT     H211271   6.040   4.070   8.097
 3677WAT      O11272   9.138   4.734   4.261
 3677WAT     H111273   9.150   4.816   4.317
 3677WAT     H211274   9.206   4.734   4.188
 3678WAT      O11275   0.135   2.515   3.738
 3678WAT     H111276   0.103   2.422   3.719
 3678WAT     H211277   0.088   2.579   3.677
 3679WAT      O11278   5.578   9.598   7.508
 3679WAT     H111279   5.563   9.677   7.449
 3679WAT     H211280   5.529   9.610   7.594
 3680WAT      O11281   8.162   1.736   0.767
 3680WAT     H111282   8.182   1.796   0.845
 3680WAT     H211283   8.103   1.661   0.797
 3681WAT      O11284   3.881   3.169   6.030
 3681WAT     H111285   3.948   3.204   5.965
 3681WAT     H211286   3.895   3.212   6.119
 3682WAT      O11287   3.176   4.627   8.451
 3682WAT     H111288   3.161   4.682   8.533
 3682WAT     H211289   3.273   4.624   8.430
 3683WAT      O11290   0.051   1.868   8.379
 3683WAT     H111291   0.000   1.914   8.452
 3683WAT     H211292   0.146   1.899   8.379
 3684WAT      O11293   9.732   0.866   6.433
 3684WAT     H111294   9.801   0.921   6.479
 3684WAT     H211295   9.682   0.923   6.368
 3685WAT      O11296   6.404   0.500   8.425
 3685WAT     H111297   6.489   0.471   8.469
 3685WAT     H211298   6.375   0.589   8.462
 3686WAT      O11299   9.861   7.473   7.050
 3686WAT     H111300   9.924   7.549   7.064
 3686WAT     H211301   9.893   7.393   7.101
 3687WAT      O11302   9.692   0.149   8.409
 3687WAT     H111303   9.693   0.243   8.376
 3687WAT     H211304   9.718   0.087   8.334
 3688WAT      O11305   8.141   2.258   0.408
 3688WAT     H111306   8.182   2.347   0.427
 3688WAT     H211307   8.084   2.230   0.486
 3689WAT      O11308   4.536   7.532   9.811
 3689WAT     H111309   4.452   7.572   9.774
 3689WAT     H211310   4.571   7.590   9.884
 3690WAT      O11311   5.517   7.560   5.098
 3690WAT     H111312   5.551   7.468   5.116
 3690WAT     H211313   5.523   7.615   5.181
 3691WAT      O11314   9.683   3.262   7.082
 3691WAT     H111315   9.641   3.269   7.173
 3691WAT     H211316   9.643   3.332   7.022
 3692WAT      O11317   4.298   4.754   3.313
 3692WAT     H111318   4.325   4.695   3.390
 3692WAT     H211319   4.355   4.836   3.313
 3693WAT      O11320   2.735   9.294   9.666
 3693WAT     H111321   2.756   9.324   9.758
 3693WAT     H211322   2.726   9.194   9.665
 3694WAT      O11323   0.169   0.114   2.686
 3694WAT     H111324   0.156   0.212   2.705
 3694WAT     H211325   0.158   0.062   2.770
 3695WAT      O11326   9.346   4.017   3.967
 3695WAT     H111327   9.305   4.000   4.057
 3695WAT     H211328   9.440   3.981   3.966
 3696WAT      O11329   2.462   2.270   3.983
 3696WAT     H111330   2.514   2.301   3.904
 3696WAT     H211331   2.484   2.174   4.002
 3697WAT      O11332   1.944   7.903   5.067
 3697WAT     H111333   1.979   7.882   5.158
 3697WAT     H211334   1.866   7.843   5.047
 3698WAT      O11335   4.571   5.427   7.872
 3698WAT     H111336   4.589   5.338   7.831
 3698WAT     H211337   4.645   5.490   7.849
 3699WAT      O11338   5.739   5.279   5.910
 3699WAT     H111339   5.776   5.358   5.958
 3699WAT     H211340   5.641   5.272   5.927
 3700WAT      O11341   9.262   8.528   8.453
 3700WAT     H111342   9.210   8.468   8.514
 3700WAT     H211343   9.230   8.516   8.359
 3701WAT      O11344   1.487   8.899   4.620
 3701WAT     H111345   1.530   8.974   4.569
 3701WAT     H211346   1.558   8.835   4.651
 3702WAT      O11347   1.190   5.814   6.697
 3702WAT     H111348   1.225   5.730   6.655
 3702WAT     H211349   1.101   5.836   6.658
 3703WAT      O11350   5.917   4.712   4.270
 3703WAT     H111351   5.856   4.764   4.211
 3703WAT     H211352   5.949   4.631   4.221
 3704WAT      O11353   2.463   0.088   6.388
 3704WAT     H111354   2.404   0.156   6.431
 3704WAT     H211355   2.466   0.006   6.446
 3705WAT      O11356   4.912   0.224   3.419
 3705WAT     H111357   4.893   0.228   3.321
 3705WAT     H211358   4.854   0.155   3.461
 3706WAT      O11359   5.232   6.417   7.283
 3706WAT     H111360   5.201   6.505   7.320
 3706WAT     H211361   5.157   6.374   7.233
 3707WAT      O11362   5.133   5.842   8.461
 3707WAT     H111363   5.100   5.928   8.499
 3707WAT     H211364   5.233   5.843   8.458
 3708WAT      O11365   2.356   2.793   7.393
 3708WAT     H111366   2.319   2.757   7.479
 3708WAT     H211367   2.367   2.892   7.400
 3709WAT      O11368   3.805   5.209   9.640
 3709WAT     H111369   3.888   5.264   9.653
 3709WAT     H211370   3.823   5.115   9.666
 3710WAT      O11371   3.748   7.239   2.028
 3710WAT     H111372   3.845   7.216   2.032
 3710WAT     H211373   3.712   7.218   1.938
 3711WAT      O11374   7.605   6.245   5.951
 3711WAT     H111375   7.674   6.181   5.919
 3711WAT     H211376   7.581   6.225   6.046
 3712WAT      O11377   7.262   1.784   8.557
 3712WAT     H111378   7.235   1.698   8.601
 3712WAT     H211379   7.236   1.781   8.460
 3713WAT      O11380   3.692   2.261   3.309
 3713WAT     H111381   3.713   2.200   3.385
 3713WAT     H211382   3.776   2.280   3.258
 3714WAT      O11383   1.372   5.755   2.931
 3714WAT     H111384   1.365   5.659   2.959
 3714WAT     H211385   1.280   5.792   2.915
 3715WAT      O11386   6.301   6.648   6.947
 3715WAT     H111387   6.235   6.599   6.890
 3715WAT     H211388   6.392   6.610   6.932
 3716WAT      O11389   5.392   6.470   3.449
 3716WAT     H111390   5.446   6.387   3.464
 3716WAT     H211391   5.422   6.541   3.512
 3717WAT      O11392   2.409   0.223   3.610
 3717WAT     H111393   2.425   0.186   3.519
 3717WAT     H211394   2.417   0.151   3.679
 3718WAT      O11395   4.654   4.228   2.117
 3718WAT     H111396   4.723   4.269   2.057
 3718WAT     H211397   4.699   4.171   2.185
 3719WAT      O11398   6.556   1.479   0.861
 3719WAT     H111399   6.582   1.409   0.795
 3719WAT     H211400   6.487   1.442   0.924
 3720WAT      O11401   7.268   4.762   7.476
 3720WAT     H111402   7.209   4.773   7.395
 3720WAT     H211403   7.343   4.828   7.472
 3721WAT      O11404   1.759   0.212   9.045
 3721WAT     H111405   1.666   0.183   9.026
 3721WAT     H211406   1.794   0.162   9.124
 3722WAT      O11407   7.517   0.300   3.767
 3722WAT     H111408   7.528   0.399   3.756
 3722WAT     H211409   7.593   0.264   3.821
 3723WAT      O11410   0.563   6.541   2.144
 3723WAT     H111411   0.590   6.607   2.214
 3723WAT     H211412   0.518   6.463   2.187
 3724WAT      O11413   2.932   0.318   3.470
 3724WAT     H111414   3.018   0.367   3.455
 3724WAT     H211415   2.859   0.383   3.490
 3725WAT      O11416   5.311   6.114   1.479
 3725WAT     H111417   5.246   6.115   1.554
 3725WAT     H211418   5.363   6.028   1.481
 3726WAT      O11419   1.351   1.679   4.193
 3726WAT     H111420   1.428   1.633   4.149
 3726WAT     H211421   1.382   1.767   4.229
 3727WAT      O11422   3.152   8.975   5.938
 3727WAT     H111423   3.202   9.051   5.980
 3727WAT     H211424   3.060   8.970   5.978
 3728WAT      O11425   5.997   2.139   6.072
 3728WAT     H111426   5.900   2.133   6.046
 3728WAT     H211427   6.004   2.179   6.164
 3729WAT      O11428   8.476   7.597   7.408
 3729WAT     H111429   8.397   7.563   7.357
 3729WAT     H211430   8.557   7.591   7.351
 3730WAT      O11431   1.503   0.578   5.245
 3730WAT     H111432   1.430   0.641   5.271
 3730WAT     H211433   1.581   0.589   5.307
 3731WAT      O11434   8.637   6.318   9.143
 3731WAT     H111435   8.683   6.377   9.076
 3731WAT     H211436   8.540   6.341   9.148
 3732WAT      O11437   1.527   0.963   6.152
 3732WAT     H111438   1.611   0.944   6.101
 3732WAT     H211439   1.456   0.992   6.089
 3733WAT      O11440   7.713   2.653   7.591
 3733WAT     H111441   7.662   2.601   7.523
 3733WAT     H211442   7.684   2.748   7.589
 3734WAT      O11443   5.081   9.746   5.580
 3734WAT     H111444   5.088   9.810   5.657
 3734WAT     H211445   4.986   9.745   5.547
 3735WAT      O11446   0.976   7.612   3.080
 3735WAT     H111447   1.041   7.680   3.044
 3735WAT     H211448   0.993   7.598   3.177
 3736WAT      O11449   4.418   4.446   6.963
 3736WAT     H111450   4.487   4.487   7.022
 3736WAT     H211451   4.361   4.384   7.017
 3737WAT      O11452   3.974   9.844   4.115
 3737WAT     H111453   3.967   9.765   4.177
 3737WAT     H211454   4.059   9.893   4.133
 3738WAT      O11455   5.759   8.106   7.285
 3738WAT     H111456   5.774   8.024   7.340
 3738WAT     H211457   5.691   8.164   7.331
 3739WAT      O11458   9.756   7.570   7.345
 3739WAT     H111459   9.696   7.649   7.344
 3739WAT     H211460   9.792   7.556   7.437
 3740WAT      O11461   2.088   3.743   8.474
 3740WAT     H111462   2.149   3.665   8.492
 3740WAT     H211463   2.143   3.821   8.443
 3741WAT      O11464   9.820   5.940   4.588
 3741WAT     H111465   9.812   5.916   4.492
 3741WAT     H211466   9.767   6.023   4.607
 3742WAT      O11467   0.210   8.818   8.786
 3742WAT     H111468   0.236   8.793   8.880
 3742WAT     H211469   0.283   8.792   8.723
 3743WAT      O11470   6.778   6.943   2.893
 3743WAT     H111471   6.842   6.889   2.839
 3743WAT     H211472   6.815   6.956   2.986
 3744WAT      O11473   5.453   3.605   7.442
 3744WAT     H111474   5.540   3.557   7.442
 3744WAT     H211475   5.396   3.571   7.367
 3745WAT      O11476   2.633   2.421   4.642
 3745WAT     H111477   2.635   2.434   4.742
 3745WAT     H211478   2.558   2.474   4.603
 3746WAT      O11479   8.007   9.069   2.620
 3746WAT     H111480   8.008   8.983   2.670
 3746WAT     H211481   7.925   9.073   2.563
 3747WAT      O11482   5.042   2.028   5.642
 3747WAT     H111483   5.069   1.935   5.667
 3747WAT     H211484   4.943   2.039   5.657
 3748WAT      O11485   8.369   7.593   3.757
 3748WAT     H111486   8.399   7.580   3.851
 3748WAT     H211487   8.436   7.649   3.708
 3749WAT      O11488   3.475   1.643   3.307
 3749WAT     H111489   3.488   1.717   3.242
 3749WAT     H211490   3.395   1.588   3.280
 3750WAT      O11491   5.915   7.750   4.111
 3750WAT     H111492   5.873   7.699   4.187
 3750WAT     H211493   5.924   7.690   4.032
 3751WAT      O11494   8.056   7.960   0.724
 3751WAT     H111495   8.151   7.931   0.728
 3751WAT     H211496   8.001   7.887   0.683
 3752WAT      O11497   2.585   0.345   5.879
 3752WAT     H111498   2.644   0.414   5.920
 3752WAT     H211499   2.513   0.319   5.944
 3753WAT      O11500   8.064   3.612   9.628
 3753WAT     H111501   8.079   3.711   9.621
 3753WAT     H211502   7.971   3.591   9.597
 3754WAT      O11503   0.648   2.771   3.216
 3754WAT     H111504   0.672   2.801   3.308
 3754WAT     H211505   0.553   2.740   3.213
 3755WAT      O11506   8.537   1.274   9.664
 3755WAT     H111507   8.448   1.263   9.708
 3755WAT     H211508   8.597   1.329   9.723
 3756WAT      O11509   0.607   8.841   9.800
 3756WAT     H111510   0.599   8.766   9.736
 3756WAT     H211511   0.595   8.928   9.752
 3757WAT      O11512   8.407   6.893   9.859
 3757WAT     H111513   8.489   6.839   9.844
 3757WAT     H211514   8.427   6.966   9.925
 3758WAT      O11515   3.745   4.755   3.029
 3758WAT     H111516   3.704   4.834   3.074
 3758WAT     H211517   3.844   4.757   3.043
 3759WAT      O11518   4.814   6.779   6.742
 3759WAT     H111519   4.770   6.841   6.807
 3759WAT     H211520   4.828   6.690   6.785
 3760WAT      O11521   4.042   6.880   1.833
 3760WAT     H111522   3.974   6.831   1.888
 3760WAT     H211523   4.039   6.848   1.739
 3761WAT      O11524   0.905   4.136   7.333
 3761WAT     H111525   0.855   4.222   7.320
 3761WAT     H211526   0.909   4.087   7.246
 3762WAT      O11527   8.765   0.195   2.355
 3762WAT     H111528   8.748   0.099   2.334
 3762WAT     H211529   8.712   0.252   2.292
 3763WAT      O11530   1.280   1.513   8.487
 3763WAT     H111531   1.246   1.606   8.492
 3763WAT     H211532   1.373   1.509   8.524
 3764WAT      O11533   6.186   9.332   1.545
 3764WAT     H111534   6.242   9.410   1.573
 3764WAT     H211535   6.176   9.269   1.622
 3765WAT      O11536   5.520   3.907   8.175
 3765WAT     H111537   5.617   3.926   8.157
 3765WAT     H211538   5.492   3.827   8.122
 3766WAT      O11539   0.824   4.588   8.573
 3766WAT     H111540   0.739   4.547   8.538
 3766WAT     H211541   0.819   4.688   8.563
 3767WAT      O11542   7.656   2.158   3.422
 3767WAT     H111543   7.566   2.203   3.428
 3767WAT     H211544   7.648   2.074   3.368
 3768WAT      O11545   0.450   7.838   7.711
 3768WAT     H111546   0.436   7.768   7.641
 3768WAT     H211547   0.533   7.818   7.762
 3769WAT      O11548   2.462   4.241   3.929
 3769WAT     H111549   2.550   4.194   3.919
 3769WAT     H211550   2.446   4.261   4.026
 3770WAT      O11551   5.320   1.763   5.043
 3770WAT     H111552   5.364   1.674   5.041
 3770WAT     H211553   5.223   1.752   5.065
 3771WAT      O11554   2.756   4.500   4.935
 3771WAT     H111555   2.806   4.584   4.954
 3771WAT     H211556   2.705   4.510   4.849
 3772WAT      O11557   0.570   6.651   4.276
 3772WAT     H111558   0.600   6.713   4.204
 3772WAT     H211559   0.471   6.659   4.288
 3773WAT      O11560   5.504   0.755   4.727
 3773WAT     H111561   5.462   0.839   4.762
 3773WAT     H211562   5.521   0.692   4.802
 3774WAT      O11563   5.950   8.064   3.386
 3774WAT     H111564   5.859   8.096   3.360
 3774WAT     H211565   6.019   8.132   3.359
 3775WAT      O11566   6.228   7.490   2.573
 3775WAT     H111567   6.269   7.433   2.645
 3775WAT     H211568   6.265   7.463   2.484
 3776WAT      O11569   0.957   6.355   1.294
 3776WAT     H111570   0.877   6.381   1.240
 3776WAT     H211571   0.929   6.341   1.389
 3777WAT      O11572   5.151   9.408   1.844
 3777WAT     H111573   5.092   9.489   1.834
 3777WAT     H211574   5.190   9.407   1.935
 3778WAT      O11575   4.187   4.336   1.214
 3778WAT     H111576   4.269   4.292   1.252
 3778WAT     H211577   4.132   4.373   1.288
 3779WAT      O11578   1.392   2.574   9.730
 3779WAT     H111579   1.340   2.621   9.658
 3779WAT     H211580   1.339   2.496   9.763
 3780WAT      O11581   7.901   1.170   4.628
 3780WAT     H111582   7.959   1.184   4.548
 3780WAT     H211583   7.933   1.228   4.703
 3781WAT      O11584   7.528   2.719   4.577
 3781WAT     H111585   7.534   2.805   4.527
 3781WAT     H211586   7.611   2.706   4.633
 3782WAT      O11587   0.024   5.279   6.830
 3782WAT     H111588   0.081   5.264   6.911
 3782WAT     H211589   0.065   5.349   6.772
 3783WAT      O11590   0.043   7.039   0.265
 3783WAT     H111591   0.134   7.002   0.281
 3783WAT     H211592   0.047   7.139   0.264
 3784WAT      O11593   1.422   5.349   5.566
 3784WAT     H111594   1.459   5.406   5.640
 3784WAT     H211595   1.358   5.282   5.604
 3785WAT      O11596   2.940   6.982   5.986
 3785WAT     H111597   2.915   7.040   6.064
 3785WAT     H211598   2.977   6.896   6.020
 3786WAT      O11599   3.859   1.119   3.957
 3786WAT     H111600   3.866   1.020   3.971
 3786WAT     H211601   3.948   1.161   3.973
 3787WAT      O11602   2.765   8.127   6.903
 3787WAT     H111603   2.771   8.150   6.806
 3787WAT     H211604   2.723   8.036   6.914
 3788WAT      O11605   1.743   0.281   6.048
 3788WAT     H111606   1.766   0.191   6.084
 3788WAT     H211607   1.827   0.327   6.016
 3789WAT      O11608   6.176   0.926   6.894
 3789WAT     H111609   6.104   0.939   6.963
 3789WAT     H211610   6.138   0.946   6.804
 3790WAT      O11611   4.691   8.583   0.838
 3790WAT     H111612   4.778   8.565   0.791
 3790WAT     H211613   4.633   8.641   0.782
 3791WAT      O11614   5.853   2.368   9.460
 3791WAT     H111615   5.779   2.408   9.406
 3791WAT     H211616   5.873   2.276   9.426
 3792WAT      O11617   2.143   4.449   6.936
 3792WAT     H111618   2.054   4.477   6.972
 3792WAT     H211619   2.150   4.350   6.939
 3793WAT      O11620   1.527   2.704   1.099
 3793WAT     H111621   1.541   2.767   1.176
 3793WAT     H211622   1.546   2.611   1.129
 3794WAT      O11623   5.233   9.536   5.598
 3794WAT     H111624   5.213   9.471   5.525
 3794WAT     H211625   5.164   9.608   5.599
 3795WAT      O11626   4.784   3.447   4.371
 3795WAT     H111627   4.788   3.486   4.279
 3795WAT     H211628   4.688   3.439   4.399
 3796WAT      O11629   4.915   3.503   1.966
 3796WAT     H111630   4.831   3.549   1.936
 3796WAT     H211631   4.930   3.522   2.063
 3797WAT      O11632   6.143   8.027   2.514
 3797WAT     H111633   6.149   8.115   2.467
 3797WAT     H211634   6.197   7.959   2.464
 3798WAT      O11635   6.967   6.231   0.686
 3798WAT     H111636   6.887   6.180   0.717
 3798WAT     H211637   7.028   6.249   0.764
 3799WAT      O11638   2.041   9.019   9.545
 3799WAT     H111639   2.048   8.990   9.640
 3799WAT     H211640   2.127   9.061   9.516
 3800WAT      O11641   7.633   8.334   5.589
 3800WAT     H111642   7.629   8.340   5.688
 3800WAT     H211643   7.672   8.419   5.552
 3801WAT      O11644   3.717   1.603   8.954
 3801WAT     H111645   3.634   1.547   8.951
 3801WAT     H211646   3.700   1.689   8.905
 3802WAT      O11647   6.614   6.526   1.737
 3802WAT     H111648   6.704   6.569   1.728
 3802WAT     H211649   6.622   6.427   1.723
 3803WAT      O11650   4.906   9.279   9.006
 3803WAT     H111651   5.005   9.271   9.019
 3803WAT     H211652   4.884   9.266   8.910
 3804WAT      O11653   7.244   8.727   9.072
 3804WAT     H111654   7.255   8.802   9.137
 3804WAT     H211655   7.147   8.710   9.057
 3805WAT      O11656   2.312   4.920   8.501
 3805WAT     H111657   2.344   4.911   8.596
 3805WAT     H211658   2.292   5.015   8.481
 3806WAT      O11659   0.546   8.829   1.467
 3806WAT     H111660   0.580   8.919   1.443
 3806WAT     H211661   0.587   8.799   1.554
 3807WAT      O11662   6.743   2.951   1.707
 3807WAT     H111663   6.757   2.882   1.777
 3807WAT     H211664   6.727   2.907   1.619
 3808WAT      O11665   7.970   4.753   2.689
 3808WAT     H111666   7.884   4.788   2.650
 3808WAT     H211667   7.950   4.691   2.765
 3809WAT      O11668   2.597   4.521   7.479
 3809WAT     H111669   2.676   4.582   7.465
 3809WAT     H211670   2.625   4.443   7.535
 3810WAT      O11671   6.063   6.859   3.453
 3810WAT     H111672   5.975   6.889   3.489
 3810WAT     H211673   6.072   6.760   3.462
 3811WAT      O11674   6.325   8.556   1.747
 3811WAT     H111675   6.329   8.504   1.662
 3811WAT     H211676   6.241   8.610   1.748
 3812WAT      O11677   9.377   8.560   3.484
 3812WAT     H111678   9.286   8.553   3.524
 3812WAT     H211679   9.370   8.551   3.384
 3813WAT      O11680   5.462   7.910   6.446
 3813WAT     H111681   5.446   7.949   6.536
 3813WAT     H211682   5.560   7.918   6.424
 3814WAT      O11683   8.784   3.196   3.656
 3814WAT     H111684   8.840   3.182   3.574
 3814WAT     H211685   8.705   3.252   3.633
 3815WAT      O11686   3.829   6.916   8.972
 3815WAT     H111687   3.819   7.010   9.004
 3815WAT     H211688   3.748   6.863   8.997
 3816WAT      O11689   2.260   8.193   0.248
 3816WAT     H111690   2.316   8.275   0.235
 3816WAT     H211691   2.185   8.192   0.183
 3817WAT      O11692   2.422   5.896   7.027
 3817WAT     H111693   2.508   5.850   7.005
 3817WAT     H211694   2.441   5.992   7.050
 3818WAT      O11695   9.882   6.890   8.311
 3818WAT     H111696   9.850   6.868   8.219
 3818WAT     H211697   9.935   6.814   8.348
 3819WAT      O11698   6.314   0.507   2.156
 3819WAT     H111699   6.315   0.596   2.201
 3819WAT     H211700   6.375   0.444   2.205
 3820WAT      O11701   0.257   7.884   1.970
 3820WAT     H111702   0.213   7.851   2.054
 3820WAT     H211703   0.346   7.841   1.959
 3821WAT      O11704   9.670   8.530   1.025
 3821WAT     H111705   9.718   8.593   1.086
 3821WAT     H211706   9.668   8.439   1.066
 3822WAT      O11707   6.374   3.541   2.750
 3822WAT     H111708   6.439   3.607   2.712
 3822WAT     H211709   6.361   3.466   2.686
 3823WAT      O11710   9.070   2.384   3.362
 3823WAT     H111711   9.146   2.431   3.408
 3823WAT     H211712   9.060   2.292   3.401
 3824WAT      O11713   9.476   0.839   5.758
 3824WAT     H111714   9.558   0.785   5.776
 3824WAT     H211715   9.403   0.779   5.725
 3825WAT      O11716   5.582   3.429   2.760
 3825WAT     H111717   5.611   3.447   2.666
 3825WAT     H211718   5.534   3.341   2.763
 3826WAT      O11719   2.322   1.733   4.775
 3826WAT     H111720   2.288   1.639   4.770
 3826WAT     H211721   2.249   1.795   4.745
 3827WAT      O11722   6.511   2.607   8.945
 3827WAT     H111723   6.486   2.582   8.851
 3827WAT     H211724   6.468   2.545   9.010
 3828WAT      O11725   2.040   3.938   8.947
 3828WAT     H111726   2.041   3.919   8.849
 3828WAT     H211727   2.089   3.867   8.996
 3829WAT      O11728   4.995   2.447   2.178
 3829WAT     H111729   5.074   2.494   2.139
 3829WAT     H211730   4.997   2.351   2.152
 3830WAT      O11731   5.152   2.522   9.325
 3830WAT     H111732   5.073   2.461   9.313
 3830WAT     H211733   5.141   2.603   9.268
 3831WAT      O11734   1.247   0.263   9.236
 3831WAT     H111735   1.214   0.178   9.194
 3831WAT     H211736   1.169   0.321   9.258
 3832WAT      O11737   4.064   3.619   8.147
 3832WAT     H111738   4.053   3.599   8.049
 3832WAT     H211739   4.120   3.547   8.189
 3833WAT      O11740   3.874   8.209   0.454
 3833WAT     H111741   3.819   8.178   0.532
 3833WAT     H211742   3.891   8.131   0.393
 3834WAT      O11743   2.434   9.600   6.256
 3834WAT     H111744   2.512   9.659   6.235
 3834WAT     H211745   2.429   9.585   6.354
 3835WAT      O11746   7.648   6.832   7.973
 3835WAT     H111747   7.715   6.899   8.004
 3835WAT     H211748   7.694   6.763   7.918
 3836WAT      O11749   1.652   1.099   6.923
 3836WAT     H111750   1.691   1.025   6.869
 3836WAT     H211751   1.691   1.186   6.894
 3837WAT      O11752   2.633   1.452   5.259
 3837WAT     H111753   2.593   1.495   5.340
 3837WAT     H211754   2.564   1.446   5.187
 3838WAT      O11755   4.915   1.125   6.555
 3838WAT     H111756   4.842   1.098   6.492
 3838WAT     H211757   4.882   1.117   6.649
 3839WAT      O11758   4.682   3.942   6.884
 3839WAT     H111759   4.657   4.027   6.929
 3839WAT     H211760   4.600   3.890   6.863
 3840WAT      O11761   2.566   3.846   9.245
 3840WAT     H111762   2.657   3.806   9.240
 3840WAT     H211763   2.511   3.796   9.312
 3841WAT      O11764   7.304   0.219   8.788
 3841WAT     H111765   7.217   0.249   8.749
 3841WAT     H211766   7.377   0.282   8.762
 3842WAT      O11767   6.188   7.782   3.822
 3842WAT     H111768   6.216   7.815   3.912
 3842WAT     H211769   6.119   7.711   3.833
 3843WAT      O11770   5.988   4.011   1.843
 3843WAT     H111771   6.056   3.965   1.785
 3843WAT     H211772   5.899   4.009   1.797
 3844WAT      O11773   3.187   2.897   1.751
 3844WAT     H111774   3.103   2.877   1.801
 3844WAT     H211775   3.266   2.873   1.808
 3845WAT      O11776   5.263   0.709   2.590
 3845WAT     H111777   5.350   0.758   2.600
 3845WAT     H211778   5.256   0.672   2.498
 3846WAT      O11779   3.510   6.261   3.281
 3846WAT     H111780   3.532   6.233   3.187
 3846WAT     H211781   3.438   6.329   3.279
 3847WAT      O11782   5.710   5.291   7.636
 3847WAT     H111783   5.632   5.341   7.597
 3847WAT     H211784   5.717   5.312   7.733
 3848WAT      O11785   1.749   8.240   7.091
 3848WAT     H111786   1.765   8.318   7.151
 3848WAT     H211787   1.795   8.255   7.003
 3849WAT      O11788   8.128   0.789   1.377
 3849WAT     H111789   8.227   0.786   1.378
 3849WAT     H211790   8.092   0.783   1.470
 3850WAT      O11791   9.277   3.122   9.796
 3850WAT     H111792   9.337   3.116   9.876
 3850WAT     H211793   9.325   3.090   9.715
 3851WAT      O11794   9.336   4.563   3.198
 3851WAT     H111795   9.303   4.562   3.292
 3851WAT     H211796   9.418   4.507   3.190
 3852WAT      O11797   8.335   1.385   9.324
 3852WAT     H111798   8.295   1.418   9.238
 3852WAT     H211799   8.309   1.448   9.398
 3853WAT      O11800   6.663   0.800   8.376
 3853WAT     H111801   6.601   0.752   8.313
 3853WAT     H211802   6.621   0.804   8.466
 3854WAT      O11803   7.410   7.319   5.333
 3854WAT     H111804   7.497   7.362   5.308
 3854WAT     H211805   7.335   7.384   5.322
 3855WAT      O11806   8.132   1.496   5.272
 3855WAT     H111807   8.142   1.579   5.328
 3855WAT     H211808   8.222   1.458   5.253
 3856WAT      O11809   2.208   3.763   7.631
 3856WAT     H111810   2.251   3.732   7.716
 3856WAT     H211811   2.264   3.836   7.590
 3857WAT      O11812   1.483   6.409   8.415
 3857WAT     H111813   1.425   6.378   8.490
 3857WAT     H211814   1.434   6.481   8.363
 3858WAT      O11815   3.019   7.913   6.918
 3858WAT     H111816   3.041   7.825   6.878
 3858WAT     H211817   2.951   7.901   6.991
 3859WAT      O11818   1.097   6.724   2.554
 3859WAT     H111819   1.192   6.721   2.585
 3859WAT     H211820   1.050   6.640   2.580
 3860WAT      O11821   6.026   4.923   6.827
 3860WAT     H111822   5.946   4.865   6.833
 3860WAT     H211823   6.048   4.940   6.731
 3861WAT      O11824   5.723   7.257   7.889
 3861WAT     H111825   5.660   7.192   7.932
 3861WAT     H211826   5.671   7.325   7.838
 3862WAT      O11827   5.199   0.544   8.892
 3862WAT     H111828   5.227   0.485   8.968
 3862WAT     H211829   5.232   0.506   8.806
 3863WAT      O11830   0.454   3.733   8.290
 3863WAT     H111831   0.497   3.645   8.270
 3863WAT     H211832   0.368   3.719   8.338
 3864WAT      O11833   0.561   4.224   0.019
 3864WAT     H111834   0.473   4.262   0.050
 3864WAT     H211835   0.562   4.219  -0.080
 3865WAT      O11836   8.376   0.334   8.498
 3865WAT     H111837   8.458   0.388   8.516
 3865WAT     H211838   8.403   0.239   8.479
 3866WAT      O11839   1.357   7.358   6.323
 3866WAT     H111840   1.406   7.367   6.410
 3866WAT     H211841   1.357   7.447   6.276
 3867WAT      O11842   7.473   5.762   6.405
 3867WAT     H111843   7.421   5.741   6.488
 3867WAT     H211844   7.546   5.695   6.393
 3868WAT      O11845   0.476   8.970   8.430
 3868WAT     H111846   0.453   8.895   8.492
 3868WAT     H211847   0.526   8.934   8.351
 3869WAT      O11848   5.148   4.915   2.490
 3869WAT     H111849   5.215   4.852   2.452
 3869WAT     H211850   5.112   4.878   2.575
 3870WAT      O11851   3.189   1.658   9.087
 3870WAT     H111852   3.139   1.692   9.008
 3870WAT     H211853   3.169   1.561   9.100
 3871WAT      O11854   6.266   4.602   1.698
 3871WAT     H111855   6.214   4.590   1.613
 3871WAT     H211856   6.204   4.596   1.776
 3872WAT      O11857   7.126   5.416   2.774
 3872WAT     H111858   7.027   5.426   2.783
 3872WAT     H211859   7.168   5.506   2.762
 3873WAT      O11860   9.731   4.402   6.499
 3873WAT     H111861   9.660   4.385   6.431
 3873WAT     H211862   9.713   4.348   6.580
 3874WAT      O11863   7.680   2.287   4.141
 3874WAT     H111864   7.624   2.266   4.061
 3874WAT     H211865   7.777   2.287   4.114
 3875WAT      O11866   1.871   0.355   2.968
 3875WAT     H111867   1.941   0.424   2.946
 3875WAT     H211868   1.911   0.264   2.959
 3876WAT      O11869   8.281   2.291   2.097
 3876WAT     H111870   8.353   2.356   2.122
 3876WAT     H211871   8.287   2.273   1.999
 3877WAT      O11872   0.073   0.371   2.737
 3877WAT     H111873   0.114   0.462   2.729
 3877WAT     H211874  -0.017   0.379   2.779
 3878WAT      O11875   4.626   0.195   5.934
 3878WAT     H111876   4.571   0.114   5.953
 3878WAT     H211877   4.640   0.246   6.019
 3879WAT      O11878   8.848   6.357   7.661
 3879WAT     H111879   8.788   6.285   7.627
 3879WAT     H211880   8.823   6.444   7.618
 3880WAT      O11881   4.579   4.892   1.971
 3880WAT     H111882   4.585   4.797   2.002
 3880WAT     H211883   4.618   4.900   1.879
 3881WAT      O11884   8.614   8.519   4.106
 3881WAT     H111885   8.541   8.587   4.093
 3881WAT     H211886   8.696   8.565   4.140
 3882WAT      O11887   7.644   3.867   6.382
 3882WAT     H111888   7.665   3.835   6.290
 3882WAT     H211889   7.648   3.967   6.383
 3883WAT      O11890   4.332   7.678   8.636
 3883WAT     H111891   4.328   7.772   8.602
 3883WAT     H211892   4.323   7.615   8.559
 3884WAT      O11893   9.880   7.163   1.864
 3884WAT     H111894   9.908   7.107   1.942
 3884WAT     H211895   9.839   7.248   1.897
 3885WAT      O11896   0.336   2.863   6.231
 3885WAT     H111897   0.363   2.890   6.323
 3885WAT     H211898   0.293   2.773   6.234
 3886WAT      O11899   5.959   3.639   7.254
 3886WAT     H111900   6.015   3.637   7.337
 3886WAT     H211901   5.923   3.731   7.240
 3887WAT      O11902   9.343   3.777   8.576
 3887WAT     H111903   9.350   3.871   8.608
 3887WAT     H211904   9.357   3.774   8.477
 3888WAT      O11905   7.172   1.360   3.717
 3888WAT     H111906   7.099   1.424   3.743
 3888WAT     H211907   7.238   1.355   3.791
 3889WAT      O11908   0.719   1.532   6.090
 3889WAT     H111909   0.754   1.493   6.175
 3889WAT     H211910   0.632   1.488   6.066
 3890WAT      O11911   6.307   2.830   3.574
 3890WAT     H111912   6.255   2.748   3.599
 3890WAT     H211913   6.383   2.804   3.515
 3891WAT      O11914   7.220   6.257   5.255
 3891WAT     H111915   7.196   6.163   5.231
 3891WAT     H211916   7.242   6.262   5.352
 3892WAT      O11917   8.825   4.162   6.912
 3892WAT     H111918   8.820   4.244   6.854
 3892WAT     H211919   8.896   4.101   6.877
 3893WAT      O11920   0.336   1.181   3.529
 3893WAT     H111921   0.415   1.217   3.579
 3893WAT     H211922   0.335   1.219   3.437
 3894WAT      O11923   5.619   0.135   8.659
 3894WAT     H111924   5.574   0.172   8.740
 3894WAT     H211925   5.661   0.047   8.682
 3895WAT      O11926   8.069   3.575   0.921
 3895WAT     H111927   8.027   3.562   1.011
 3895WAT     H211928   8.166   3.549   0.925
 3896WAT      O11929   4.229   2.501   4.950
 3896WAT     H111930   4.234   2.471   5.045
 3896WAT     H211931   4.134   2.515   4.924
 3897WAT      O11932   2.962   8.928   5.584
 3897WAT     H111933   2.907   9.010   5.601
 3897WAT     H211934   3.050   8.954   5.544
 3898WAT      O11935   0.366   2.974   2.932
 3898WAT     H111936   0.444   2.969   2.870
 3898WAT     H211937   0.286   2.932   2.888
 3899WAT      O11938   6.560   0.176   7.842
 3899WAT     H111939   6.631   0.110   7.865
 3899WAT     H211940   6.586   0.227   7.760
 3900WAT      O11941   9.622   3.768   6.573
 3900WAT     H111942   9.663   3.679   6.592
 3900WAT     H211943   9.523   3.763   6.585
 3901WAT      O11944   2.559   0.063   9.116
 3901WAT     H111945   2.553   0.127   9.192
 3901WAT     H211946   2.636   0.086   9.057
 3902WAT      O11947   0.376   2.247   2.839
 3902WAT     H111948   0.473   2.267   2.829
 3902WAT     H211949   0.326   2.331   2.857
 3903WAT      O11950   3.940   7.809   0.006
 3903WAT     H111951   3.910   7.745  -0.065
 3903WAT     H211952   4.031   7.783   0.037
 3904WAT      O11953   0.193   5.931   0.277
 3904WAT     H111954   0.248   6.015   0.285
 3904WAT     H211955   0.141   5.917   0.361
 3905WAT      O11956   5.060   1.377   1.499
 3905WAT     H111957   5.030   1.393   1.405
 3905WAT     H211958   5.103   1.460   1.535
 3906WAT      O11959   4.650   2.200   2.023
 3906WAT     H111960   4.585   2.274   2.038
 3906WAT     H211961   4.734   2.237   1.984
 3907WAT      O11962   5.717   9.639   0.282
 3907WAT     H111963   5.648   9.604   0.346
 3907WAT     H211964   5.742   9.733   0.308
 3908WAT      O11965   2.212   1.298   9.823
 3908WAT     H111966   2.295   1.246   9.838
 3908WAT     H211967   2.133   1.238   9.828
 3909WAT      O11968   4.235   0.260   9.551
 3909WAT     H111969   4.254   0.241   9.648
 3909WAT     H211970   4.268   0.184   9.495
 3910WAT      O11971   0.323   4.798   5.403
 3910WAT     H111972   0.419   4.800   5.374
 3910WAT     H211973   0.295   4.703   5.418
 3911WAT      O11974   4.261   0.444   1.048
 3911WAT     H111975   4.203   0.435   0.967
 3911WAT     H211976   4.353   0.411   1.027
 3912WAT      O11977   5.154   9.130   9.802
 3912WAT     H111978   5.166   9.054   9.866
 3912WAT     H211979   5.224   9.199   9.821
 3913WAT      O11980   9.836   1.592   3.727
 3913WAT     H111981   9.781   1.564   3.648
 3913WAT     H211982   9.834   1.691   3.735
 3914WAT      O11983   7.234   9.726   7.585
 3914WAT     H111984   7.148   9.674   7.589
 3914WAT     H211985   7.217   9.819   7.618
 3915WAT      O11986   8.550   0.806   9.339
 3915WAT     H111987   8.553   0.841   9.245
 3915WAT     H211988   8.582   0.712   9.341
 3916WAT      O11989   0.832   5.591   8.145
 3916WAT     H111990   0.758   5.644   8.188
 3916WAT     H211991   0.916   5.605   8.197
 3917WAT      O11992   1.372   5.585   3.322
 3917WAT     H111993   1.460   5.631   3.310
 3917WAT     H211994   1.298   5.651   3.316
 3918WAT      O11995   8.188   2.719   3.472
 3918WAT     H111996   8.197   2.768   3.559
 3918WAT     H211997   8.188   2.620   3.490
 3919WAT      O11998   5.888   0.710   6.049
 3919WAT     H111999   5.950   0.719   5.971
 3919WAT     H212000   5.929   0.752   6.130
 3920WAT      O12001   7.318   6.599   0.864
 3920WAT     H112002   7.374   6.568   0.941
 3920WAT     H212003   7.375   6.610   0.783
 3921WAT      O12004   9.614   1.506   2.530
 3921WAT     H112005   9.553   1.465   2.462
 3921WAT     H212006   9.690   1.552   2.485
 3922WAT      O12007   9.249   5.486   2.800
 3922WAT     H112008   9.152   5.489   2.821
 3922WAT     H212009   9.266   5.414   2.733
 3923WAT      O12010   9.241   1.383   8.736
 3923WAT     H112011   9.313   1.373   8.805
 3923WAT     H212012   9.162   1.429   8.778
 3924WAT      O12013   0.992   7.962   0.502
 3924WAT     H112014   0.911   7.914   0.537
 3924WAT     H212015   1.002   8.049   0.550
 3925WAT      O12016   3.534   3.015   8.175
 3925WAT     H112017   3.474   3.085   8.213
 3925WAT     H212018   3.521   3.010   8.076
 3926WAT      O12019   7.361   1.422   3.541
 3926WAT     H112020   7.294   1.388   3.607
 3926WAT     H212021   7.453   1.395   3.569
 3927WAT      O12022   6.253   5.222   6.565
 3927WAT     H112023   6.252   5.236   6.665
 3927WAT     H212024   6.209   5.135   6.543
 3928WAT      O12025   6.550   5.637   0.129
 3928WAT     H112026   6.593   5.726   0.134
 3928WAT     H212027   6.467   5.636   0.184
 3929WAT      O12028   3.421   8.324   0.996
 3929WAT     H112029   3.500   8.375   0.963
 3929WAT     H212030   3.337   8.373   0.973
 3930WAT      O12031   7.883   3.424   5.287
 3930WAT     H112032   7.793   3.468   5.296
 3930WAT     H212033   7.905   3.377   5.373
 3931WAT      O12034   0.383   5.673   0.845
 3931WAT     H112035   0.329   5.652   0.764
 3931WAT     H212036   0.326   5.719   0.913
 3932WAT      O12037   8.058   4.544   0.682
 3932WAT     H112038   8.021   4.516   0.593
 3932WAT     H212039   8.112   4.628   0.670
 3933WAT      O12040   9.665   8.103   0.109
 3933WAT     H112041   9.600   8.127   0.181
 3933WAT     H212042   9.705   8.014   0.129
 3934WAT      O12043   0.933   5.073   7.041
 3934WAT     H112044   0.931   4.988   7.093
 3934WAT     H212045   0.976   5.057   6.952
 3935WAT      O12046   9.692   8.722   5.836
 3935WAT     H112047   9.670   8.627   5.861
 3935WAT     H212048   9.612   8.780   5.851
 3936WAT      O12049   1.148   6.434   1.549
 3936WAT     H112050   1.058   6.394   1.530
 3936WAT     H212051   1.207   6.365   1.592
 3937WAT      O12052   5.250   4.469   2.074
 3937WAT     H112053   5.217   4.375   2.075
 3937WAT     H212054   5.201   4.520   2.003
 3938WAT      O12055   7.464   3.001   6.356
 3938WAT     H112056   7.402   3.074   6.326
 3938WAT     H212057   7.485   2.942   6.278
 3939WAT      O12058   5.667   8.237   8.419
 3939WAT     H112059   5.741   8.222   8.485
 3939WAT     H212060   5.605   8.308   8.454
 3940WAT      O12061   9.010   8.901   8.798
 3940WAT     H112062   9.059   8.974   8.845
 3940WAT     H212063   9.071   8.861   8.729
 3941WAT      O12064   9.559   1.290   3.116
 3941WAT     H112065   9.585   1.223   3.186
 3941WAT     H212066   9.631   1.297   3.048
 3942WAT      O12067   0.224   9.093   8.345
 3942WAT     H112068   0.318   9.067   8.368
 3942WAT     H212069   0.225   9.162   8.273
 3943WAT      O12070   2.119   9.183   5.941
 3943WAT     H112071   2.067   9.135   6.011
 3943WAT     H212072   2.058   9.206   5.865
 3944WAT      O12073   3.499   6.180   3.609
 3944WAT     H112074   3.425   6.192   3.544
 3944WAT     H212075   3.583   6.155   3.561
 3945WAT      O12076   4.726   8.810   7.888
 3945WAT     H112077   4.776   8.822   7.802
 3945WAT     H212078   4.778   8.748   7.948
 3946WAT      O12079   4.829   3.618   0.743
 3946WAT     H112080   4.904   3.574   0.692
 3946WAT     H212081   4.860   3.640   0.835
 3947WAT      O12082   4.259   9.420   6.796
 3947WAT     H112083   4.287   9.330   6.766
 3947WAT     H212084   4.339   9.477   6.811
 3948WAT      O12085   7.902   5.595   7.005
 3948WAT     H112086   7.882   5.497   7.010
 3948WAT     H212087   7.847   5.643   7.074
 3949WAT      O12088   7.397   1.380   6.606
 3949WAT     H112089   7.436   1.401   6.696
 3949WAT     H212090   7.400   1.461   6.548
 3950WAT      O12091   8.350   2.985   8.534
 3950WAT     H112092   8.293   2.919   8.582
 3950WAT     H212093   8.440   2.990   8.577
 3951WAT      O12094   9.059   6.591   4.662
 3951WAT     H112095   9.018   6.521   4.720
 3951WAT     H212096   8.988   6.654   4.630
 3952WAT      O12097   1.326   3.224   9.633
 3952WAT     H112098   1.353   3.256   9.542
 3952WAT     H212099   1.347   3.295   9.701
 3953WAT      O12100   0.304   3.227   5.704
 3953WAT     H112101   0.371   3.213   5.777
 3953WAT     H212102   0.308   3.151   5.639
 3954WAT      O12103   1.463   6.442   3.710
 3954WAT     H112104   1.507   6.485   3.789
 3954WAT     H212105   1.364   6.459   3.714
 3955WAT      O12106   2.510   4.340   2.476
 3955WAT     H112107   2.417   4.326   2.510
 3955WAT     H212108   2.542   4.431   2.503
 3956WAT      O12109   3.484   0.924   7.725
 3956WAT     H112110   3.524   1.001   7.773
 3956WAT     H212111   3.446   0.860   7.792
 3957WAT      O12112   1.055   0.602   3.546
 3957WAT     H112113   0.962   0.625   3.575
 3957WAT     H212114   1.119   0.666   3.587
 3958WAT      O12115   7.287   6.083   0.825
 3958WAT     H112116   7.226   6.034   0.764
 3958WAT     H212117   7.382   6.065   0.800
 3959WAT      O12118   8.837   1.870   6.789
 3959WAT     H112119   8.848   1.897   6.885
 3959WAT     H212120   8.763   1.923   6.748
 3960WAT      O12121   6.306   3.250   5.646
 3960WAT     H112122   6.284   3.162   5.605
 3960WAT     H212123   6.403   3.253   5.669
 3961WAT      O12124   0.507   7.656   0.537
 3961WAT     H112125   0.569   7.625   0.465
 3961WAT     H212126   0.414   7.624   0.518
 3962WAT      O12127   5.412   6.993   0.478
 3962WAT     H112128   5.375   6.908   0.439
 3962WAT     H212129   5.452   7.049   0.405
 3963WAT      O12130   3.460   8.759   6.081
 3963WAT     H112131   3.365   8.753   6.111
 3963WAT     H212132   3.478   8.687   6.014
 3964WAT      O12133   1.393   2.250   4.963
 3964WAT     H112134   1.440   2.162   4.962
 3964WAT     H212135   1.458   2.323   4.942
 3965WAT      O12136   9.153   8.618   3.640
 3965WAT     H112137   9.101   8.666   3.570
 3965WAT     H212138   9.217   8.681   3.684
 3966WAT      O12139   1.713   6.338   2.539
 3966WAT     H112140   1.619   6.349   2.572
 3966WAT     H212141   1.735   6.411   2.474
 3967WAT      O12142   1.444   4.115   4.353
 3967WAT     H112143   1.475   4.203   4.387
 3967WAT     H212144   1.426   4.053   4.430
 3968WAT      O12145   0.284   8.800   6.347
 3968WAT     H112146   0.298   8.729   6.278
 3968WAT     H212147   0.208   8.774   6.407
 3969WAT      O12148   7.710   1.849   3.710
 3969WAT     H112149   7.729   1.948   3.710
 3969WAT     H212150   7.633   1.830   3.650
 3970WAT      O12151   3.096   8.752   6.955
 3970WAT     H112152   3.052   8.838   6.930
 3970WAT     H212153   3.034   8.699   7.013
 3971WAT      O12154   4.393   7.716   7.746
 3971WAT     H112155   4.492   7.719   7.758
 3971WAT     H212156   4.366   7.786   7.681
 3972WAT      O12157   6.795   3.536   0.712
 3972WAT     H112158   6.709   3.499   0.678
 3972WAT     H212159   6.851   3.566   0.634
 3973WAT      O12160   0.824   9.643   7.906
 3973WAT     H112161   0.836   9.742   7.898
 3973WAT     H212162   0.735   9.623   7.947
 3974WAT      O12163   9.347   3.514   5.907
 3974WAT     H112164   9.320   3.500   5.812
 3974WAT     H212165   9.436   3.471   5.924
 3975WAT      O12166   7.507   6.331   3.971
 3975WAT     H112167   7.448   6.304   3.894
 3975WAT     H212168   7.509   6.431   3.977
 3976WAT      O12169   8.022   9.136   0.031
 3976WAT     H112170   7.969   9.215   0.001
 3976WAT     H212171   8.111   9.136  -0.014
 3977WAT      O12172   1.621   6.762   6.137
 3977WAT     H112173   1.701   6.703   6.128
 3977WAT     H212174   1.647   6.857   6.119
 3978WAT      O12175   6.328   4.172   7.052
 3978WAT     H112176   6.314   4.260   7.097
 3978WAT     H212177   6.423   4.165   7.021
 3979WAT      O12178   4.400   4.593   2.521
 3979WAT     H112179   4.442   4.639   2.443
 3979WAT     H212180   4.337   4.656   2.567
 3980WAT      O12181   2.512   7.056   9.084
 3980WAT     H112182   2.434   7.028   9.029
 3980WAT     H212183   2.501   7.151   9.112
 3981WAT      O12184   8.197   4.261   9.437
 3981WAT     H112185   8.224   4.283   9.531
 3981WAT     H212186   8.259   4.191   9.401
 3982WAT      O12187   1.482   0.829   2.887
 3982WAT     H112188   1.428   0.890   2.830
 3982WAT     H212189   1.448   0.735   2.878
 3983WAT      O12190   1.944   6.035   4.427
 3983WAT     H112191   2.035   6.077   4.437
 3983WAT     H212192   1.926   6.015   4.331
 3984WAT      O12193   4.441   1.355   9.310
 3984WAT     H112194   4.492   1.373   9.394
 3984WAT     H212195   4.347   1.331   9.333
 3985WAT      O12196   9.648   0.031   8.963
 3985WAT     H112197   9.723   0.036   9.029
 3985WAT     H212198   9.566  -0.007   9.007
 3986WAT      O12199   8.782   9.464   1.836
 3986WAT     H112200   8.703   9.523   1.821
 3986WAT     H212201   8.826   9.489   1.922
 3987WAT      O12202   4.772   9.067   1.120
 3987WAT     H112203   4.771   9.090   1.023
 3987WAT     H212204   4.785   9.150   1.174
 3988WAT      O12205   2.922   3.574   3.285
 3988WAT     H112206   2.850   3.643   3.283
 3988WAT     H212207   2.968   3.572   3.196
 3989WAT      O12208   4.672   0.738   5.926
 3989WAT     H112209   4.752   0.718   5.983
 3989WAT     H212210   4.698   0.731   5.830
 3990WAT      O12211   3.913   9.286   6.421
 3990WAT     H112212   3.889   9.226   6.344
 3990WAT     H212213   3.913   9.232   6.505
 3991WAT      O12214   7.421   1.751   3.084
 3991WAT     H112215   7.391   1.675   3.141
 3991WAT     H212216   7.370   1.833   3.109
 3992WAT      O12217   8.345   3.882   0.441
 3992WAT     H112218   8.259   3.892   0.391
 3992WAT     H212219   8.361   3.964   0.497
 3993WAT      O12220   4.753   1.385   7.262
 3993WAT     H112221   4.675   1.335   7.226
 3993WAT     H212222   4.739   1.404   7.360
 3994WAT      O12223   5.682   5.776   9.552
 3994WAT     H112224   5.683   5.692   9.606
 3994WAT     H212225   5.775   5.811   9.544
 3995WAT      O12226   9.646   8.590   4.411
 3995WAT     H112227   9.715   8.543   4.356
 3995WAT     H212228   9.570   8.618   4.351
 3996WAT      O12229   5.713   5.276   3.994
 3996WAT     H112230   5.703   5.352   3.930
 3996WAT     H212231   5.623   5.240   4.017
 3997WAT      O12232   4.321   9.372   2.591
 3997WAT     H112233   4.414   9.335   2.589
 3997WAT     H212234   4.256   9.297   2.582
 3998WAT      O12235   4.529   6.930   1.399
 3998WAT     H112236   4.453   6.989   1.373
 3998WAT     H212237   4.494   6.849   1.445
 3999WAT      O12238   0.832   0.886   8.907
 3999WAT     H112239   0.843   0.788   8.921
 3999WAT     H212240   0.755   0.902   8.844
 4000WAT      O12241   8.055   7.804   8.235
 4000WAT     H112242   8.033   7.711   8.207
 4000WAT     H212243   8.063   7.862   8.154
 4001WAT      O12244   6.443   7.552   4.824
 4001WAT     H112245   6.517   7.616   4.843
 4001WAT     H212246   6.379   7.550   4.901
 4002WAT      O12247   8.899   4.286   3.668
 4002WAT     H112248   8.824   4.236   3.711
 4002WAT     H212249   8.960   4.220   3.622
 4003WAT      O12250   3.241   9.639   7.229
 4003WAT     H112251   3.239   9.555   7.282
 4003WAT     H212252   3.300   9.627   7.149
 4004WAT      O12253   5.210   5.369   3.863
 4004WAT     H112254   5.141   5.441   3.858
 4004WAT     H212255   5.293   5.399   3.814
 4005WAT      O12256   9.257   9.780   2.677
 4005WAT     H112257   9.332   9.821   2.624
 4005WAT     H212258   9.228   9.844   2.748
 4006WAT      O12259   6.071   6.467   0.166
 4006WAT     H112260   6.159   6.489   0.126
 4006WAT     H212261   5.998   6.498   0.105
 4007WAT      O12262   0.494   7.781   4.892
 4007WAT     H112263   0.465   7.799   4.986
 4007WAT     H212264   0.502   7.868   4.843
 4008WAT      O12265   6.940   0.759   6.233
 4008WAT     H112266   7.039   0.756   6.244
 4008WAT     H212267   6.908   0.852   6.252
 4009WAT      O12268   6.603   5.628   7.867
 4009WAT     H112269   6.556   5.608   7.781
 4009WAT     H212270   6.701   5.611   7.856
 4010WAT      O12271   3.962   6.811   3.846
 4010WAT     H112272   3.936   6.895   3.894
 4010WAT     H212273   3.946   6.732   3.906
 4011WAT      O12274   9.116   8.373   8.604
 4011WAT     H112275   9.055   8.362   8.682
 4011WAT     H212276   9.182   8.299   8.603
 4012WAT      O12277   3.600   2.580   9.408
 4012WAT     H112278   3.523   2.583   9.343
 4012WAT     H212279   3.584   2.507   9.475
 4013WAT      O12280   2.822   4.544   0.307
 4013WAT     H112281   2.774   4.554   0.220
 4013WAT     H212282   2.871   4.457   0.308
 4014WAT      O12283   4.603   9.631   6.200
 4014WAT     H112284   4.519   9.683   6.216
 4014WAT     H212285   4.581   9.548   6.148
 4015WAT      O12286   7.833   3.624   2.294
 4015WAT     H112287   7.916   3.677   2.308
 4015WAT     H212288   7.834   3.544   2.353
 4016WAT      O12289   1.467   0.180   9.103
 4016WAT     H112290   1.499   0.274   9.110
 4016WAT     H212291   1.372   0.174   9.135
 4017WAT      O12292   7.225   6.221   3.459
 4017WAT     H112293   7.318   6.187   3.444
 4017WAT     H212294   7.164   6.143   3.475
 4018WAT      O12295   5.228   9.554   3.048
 4018WAT     H112296   5.194   9.567   2.955
 4018WAT     H212297   5.250   9.643   3.088
 4019WAT      O12298   8.392   0.544   2.432
 4019WAT     H112299   8.411   0.460   2.483
 4019WAT     H212300   8.300   0.540   2.395
 4020WAT      O12301   4.902   7.242   0.545
 4020WAT     H112302   4.907   7.166   0.480
 4020WAT     H212303   4.991   7.251   0.592
 4021WAT      O12304   6.380   3.956   3.432
 4021WAT     H112305   6.455   3.910   3.479
 4021WAT     H212306   6.322   3.887   3.388
 4022WAT      O12307   6.917   5.974   7.985
 4022WAT     H112308   6.948   5.882   7.963
 4022WAT     H212309   6.820   5.971   8.010
 4023WAT      O12310   3.565   0.720   6.271
 4023WAT     H112311   3.489   0.657   6.286
 4023WAT     H212312   3.534   0.798   6.217
 4024WAT      O12313   5.623   4.060   3.925
 4024WAT     H112314   5.659   4.153   3.916
 4024WAT     H212315   5.527   4.063   3.951
 4025WAT      O12316   6.029   5.694   4.541
 4025WAT     H112317   6.098   5.658   4.479
 4025WAT     H212318   6.000   5.622   4.604
 4026WAT      O12319   0.796   6.945   0.065
 4026WAT     H112320   0.800   6.985   0.157
 4026WAT     H212321   0.728   6.871   0.064
 4027WAT      O12322   9.575   7.349   5.800
 4027WAT     H112323   9.553   7.264   5.753
 4027WAT     H212324   9.660   7.386   5.763
 4028WAT      O12325   8.149   4.848   1.329
 4028WAT     H112326   8.235   4.828   1.376
 4028WAT     H212327   8.077   4.788   1.364
 4029WAT      O12328   7.397   6.811   2.109
 4029WAT     H112329   7.488   6.840   2.079
 4029WAT     H212330   7.396   6.712   2.122
 4030WAT      O12331   1.842   4.003   1.872
 4030WAT     H112332   1.935   4.008   1.837
 4030WAT     H212333   1.800   4.094   1.870
 4031WAT      O12334   9.099   6.411   1.316
 4031WAT     H112335   9.035   6.424   1.391
 4031WAT     H212336   9.188   6.451   1.341
 4032WAT      O12337   1.112   8.716   8.676
 4032WAT     H112338   1.200   8.750   8.644
 4032WAT     H212339   1.080   8.643   8.615
 4033WAT      O12340   1.440   1.908   6.523
 4033WAT     H112341   1.437   1.920   6.423
 4033WAT     H212342   1.380   1.833   6.549
 4034WAT      O12343   1.731   3.975   1.429
 4034WAT     H112344   1.756   4.014   1.340
 4034WAT     H212345   1.808   3.924   1.466
 4035WAT      O12346   2.872   1.924   9.745
 4035WAT     H112347   2.835   1.834   9.768
 4035WAT     H212348   2.957   1.913   9.694
 4036WAT      O12349   1.825   6.362   2.152
 4036WAT     H112350   1.842   6.279   2.205
 4036WAT     H212351   1.772   6.426   2.206
 4037WAT      O12352   6.439   3.841   6.653
 4037WAT     H112353   6.458   3.863   6.749
 4037WAT     H212354   6.524   3.843   6.600
 4038WAT      O12355   8.328   2.224   2.391
 4038WAT     H112356   8.295   2.232   2.297
 4038WAT     H212357   8.281   2.291   2.449
 4039WAT      O12358   0.028   6.891   9.332
 4039WAT     H112359   0.026   6.942   9.246
 4039WAT     H212360   0.122   6.891   9.368
 4040WAT      O12361   9.183   2.156   5.879
 4040WAT     H112362   9.185   2.234   5.816
 4040WAT     H212363   9.093   2.149   5.921
 4041WAT      O12364   7.571   3.341   9.656
 4041WAT     H112365   7.602   3.428   9.695
 4041WAT     H212366   7.650   3.282   9.637
 4042WAT      O12367   2.382   3.499  -0.003
 4042WAT     H112368   2.371   3.462   0.089
 4042WAT     H212369   2.349   3.593  -0.006
 4043WAT      O12370   5.464   0.557   3.153
 4043WAT     H112371   5.455   0.606   3.240
 4043WAT     H212372   5.417   0.469   3.159
 4044WAT      O12373   7.744   4.150   2.944
 4044WAT     H112374   7.796   4.174   2.861
 4044WAT     H212375   7.657   4.110   2.918
 4045WAT      O12376   3.041   6.093   8.879
 4045WAT     H112377   2.941   6.090   8.881
 4045WAT     H212378   3.071   6.127   8.791
 4046WAT      O12379   5.483   1.739   8.260
 4046WAT     H112380   5.468   1.658   8.317
 4046WAT     H212381   5.397   1.786   8.246
 4047WAT      O12382   3.083   2.692   1.629
 4047WAT     H112383   3.128   2.770   1.672
 4047WAT     H212384   3.141   2.611   1.638
 4048WAT      O12385   3.630   4.375   9.313
 4048WAT     H112386   3.613   4.432   9.232
 4048WAT     H212387   3.685   4.296   9.286
 4049WAT      O12388   0.624   9.819   7.120
 4049WAT     H112389   0.662   9.743   7.173
 4049WAT     H212390   0.677   9.902   7.136
 4050WAT      O12391   4.002   8.581   4.021
 4050WAT     H112392   4.011   8.625   4.111
 4050WAT     H212393   4.078   8.610   3.963
 4051WAT      O12394   2.341   8.471   4.984
 4051WAT     H112395   2.400   8.404   4.938
 4051WAT     H212396   2.359   8.467   5.083
 4052WAT      O12397   7.982   6.489   0.362
 4052WAT     H112398   8.051   6.417   0.364
 4052WAT     H212399   7.994   6.545   0.280
 4053WAT      O12400   0.999   8.085   1.347
 4053WAT     H112401   1.081   8.137   1.323
 4053WAT     H212402   1.023   7.989   1.361
 4054WAT      O12403   3.231   8.974   4.362
 4054WAT     H112404   3.190   8.964   4.272
 4054WAT     H212405   3.330   8.985   4.353
 4055WAT      O12406   5.710   1.528   9.011
 4055WAT     H112407   5.733   1.441   9.055
 4055WAT     H212408   5.635   1.571   9.061
 4056WAT      O12409   1.533   2.345   1.484
 4056WAT     H112410   1.443   2.384   1.505
 4056WAT     H212411   1.551   2.266   1.543
 4057WAT      O12412   2.578   1.828   3.055
 4057WAT     H112413   2.625   1.743   3.033
 4057WAT     H212414   2.633   1.906   3.025
 4058WAT      O12415   1.752   8.448   1.583
 4058WAT     H112416   1.769   8.363   1.631
 4058WAT     H212417   1.762   8.525   1.646
 4059WAT      O12418   7.827   3.843   9.562
 4059WAT     H112419   7.826   3.743   9.559
 4059WAT     H212420   7.917   3.874   9.593
 4060WAT      O12421   3.423   9.286   3.732
 4060WAT     H112422   3.355   9.296   3.660
 4060WAT     H212423   3.503   9.237   3.697
 4061WAT      O12424   7.873   7.967   0.985
 4061WAT     H112425   7.883   8.039   0.916
 4061WAT     H212426   7.784   7.976   1.030
 4062WAT      O12427   3.450   8.436   1.863
 4062WAT     H112428   3.539   8.421   1.819
 4062WAT     H212429   3.447   8.526   1.904
 4063WAT      O12430   0.513   0.869   5.143
 4063WAT     H112431   0.430   0.835   5.187
 4063WAT     H212432   0.560   0.931   5.206
 4064WAT      O12433   3.404   3.983   7.272
 4064WAT     H112434   3.305   3.986   7.257
 4064WAT     H212435   3.422   3.959   7.368
 4065WAT      O12436   2.535   7.277   7.850
 4065WAT     H112437   2.462   7.258   7.916
 4065WAT     H212438   2.579   7.191   7.825
 4066WAT      O12439   9.553   4.215   7.417
 4066WAT     H112440   9.455   4.206   7.435
 4066WAT     H212441   9.573   4.179   7.325
 4067WAT      O12442   3.098   8.627   2.725
 4067WAT     H112443   3.170   8.580   2.775
 4067WAT     H212444   3.049   8.562   2.667
 4068WAT      O12445   3.261   9.536   7.845
 4068WAT     H112446   3.352   9.566   7.819
 4068WAT     H212447   3.221   9.602   7.909
 4069WAT      O12448   2.466   8.565   6.744
 4069WAT     H112449   2.536   8.619   6.791
 4069WAT     H212450   2.510   8.499   6.683
 4070WAT      O12451   3.479   0.013   0.918
 4070WAT     H112452   3.545   0.083   0.947
 4070WAT     H212453   3.486  -0.000   0.819
 4071WAT      O12454   1.008   5.361   9.077
 4071WAT     H112455   0.979   5.448   9.038
 4071WAT     H212456   0.961   5.286   9.029
 4072WAT      O12457   5.907   9.417   4.969
 4072WAT     H112458   5.861   9.383   5.051
 4072WAT     H212459   5.946   9.339   4.918
 4073WAT      O12460   4.455   6.046   6.461
 4073WAT     H112461   4.543   6.071   6.420
 4073WAT     H212462   4.394   6.012   6.389
 4074WAT      O12463   4.347   0.279   0.728
 4074WAT     H112464   4.274   0.213   0.748
 4074WAT     H212465   4.396   0.250   0.646
 4075WAT      O12466   2.561   8.132   0.677
 4075WAT     H112467   2.469   8.108   0.647
 4075WAT     H212468   2.571   8.110   0.774
 4076WAT      O12469   2.051   8.739   2.457
 4076WAT     H112470   2.050   8.773   2.363
 4076WAT     H212471   1.958   8.711   2.483
 4077WAT      O12472   8.230   4.861   5.938
 4077WAT     H112473   8.315   4.895   5.980
 4077WAT     H212474   8.224   4.893   5.844
 4078WAT      O12475   7.054   7.736   4.761
 4078WAT     H112476   7.083   7.652   4.806
 4078WAT     H212477   7.041   7.718   4.663
 4079WAT      O12478   6.889   3.226   0.345
 4079WAT     H112479   6.789   3.231   0.336
 4079WAT     H212480   6.913   3.217   0.441
 4080WAT      O12481   4.221   1.068   4.302
 4080WAT     H112482   4.276   0.992   4.337
 4080WAT     H212483   4.258   1.155   4.335
 4081WAT      O12484   2.996   6.434   7.065
 4081WAT     H112485   3.054   6.446   7.146
 4081WAT     H212486   2.933   6.512   7.058
 4082WAT      O12487   7.726   4.349   5.181
 4082WAT     H112488   7.820   4.317   5.192
 4082WAT     H212489   7.664   4.271   5.181
 4083WAT      O12490   3.884   3.817   2.730
 4083WAT     H112491   3.981   3.829   2.753
 4083WAT     H212492   3.833   3.898   2.759
 4084WAT      O12493   1.867   8.034   7.753
 4084WAT     H112494   1.876   8.060   7.849
 4084WAT     H212495   1.866   8.117   7.696
 4085WAT      O12496   1.438   3.471   7.610
 4085WAT     H112497   1.393   3.448   7.524
 4085WAT     H212498   1.371   3.514   7.672
 4086WAT      O12499   1.894   4.347   4.095
 4086WAT     H112500   1.879   4.252   4.068
 4086WAT     H212501   1.946   4.350   4.181
 4087WAT      O12502   1.393   8.574   2.913
 4087WAT     H112503   1.363   8.651   2.970
 4087WAT     H212504   1.344   8.577   2.825
 4088WAT      O12505   2.768   1.769   4.621
 4088WAT     H112506   2.826   1.691   4.600
 4088WAT     H212507   2.672   1.744   4.608
 4089WAT      O12508   2.062   4.556   2.083
 4089WAT     H112509   2.061   4.632   2.148
 4089WAT     H212510   2.141   4.497   2.104
 4090WAT      O12511   3.386   0.664   4.985
 4090WAT     H112512   3.455   0.601   5.021
 4090WAT     H212513   3.295   0.628   5.005
 4091WAT      O12514   8.461   2.217   0.070
 4091WAT     H112515   8.526   2.148   0.038
 4091WAT     H212516   8.433   2.196   0.164
 4092WAT      O12517   8.008   0.377   4.253
 4092WAT     H112518   7.927   0.342   4.300
 4092WAT     H212519   8.068   0.301   4.227
 4093WAT      O12520   1.348   5.554   1.065
 4093WAT     H112521   1.293   5.518   1.141
 4093WAT     H212522   1.289   5.567   0.985
 4094WAT      O12523   5.775   1.534   4.279
 4094WAT     H112524   5.806   1.602   4.345
 4094WAT     H212525   5.755   1.579   4.192
 4095WAT      O12526   6.936   7.113   3.803
 4095WAT     H112527   6.962   7.019   3.826
 4095WAT     H212528   6.899   7.157   3.884
 4096WAT      O12529   8.631   0.138   2.659
 4096WAT     H112530   8.675   0.112   2.744
 4096WAT     H212531   8.699   0.149   2.587
 4097WAT      O12532   9.133   2.594   0.923
 4097WAT     H112533   9.177   2.512   0.960
 4097WAT     H212534   9.187   2.629   0.846
 4098WAT      O12535   2.765   8.669   9.013
 4098WAT     H112536   2.725   8.640   9.100
 4098WAT     H212537   2.806   8.590   8.967
 4099WAT      O12538   5.451   0.684   1.135
 4099WAT     H112539   5.411   0.773   1.113
 4099WAT     H212540   5.490   0.686   1.227
 4100WAT      O12541   5.295   4.519   8.436
 4100WAT     H112542   5.264   4.556   8.524
 4100WAT     H212543   5.293   4.592   8.367
 4101WAT      O12544   1.959   9.828   3.401
 4101WAT     H112545   1.962   9.865   3.493
 4101WAT     H212546   1.888   9.758   3.394
 4102WAT      O12547   9.376   5.488   9.759
 4102WAT     H112548   9.284   5.503   9.722
 4102WAT     H212549   9.421   5.415   9.708
 4103WAT      O12550   2.036   5.410   3.863
 4103WAT     H112551   2.095   5.485   3.834
 4103WAT     H212552   1.943   5.445   3.877
 4104WAT      O12553   0.383   5.575   0.336
 4104WAT     H112554   0.302   5.521   0.316
 4104WAT     H212555   0.440   5.582   0.254
 4105WAT      O12556   9.075   3.189   0.247
 4105WAT     H112557   9.174   3.189   0.262
 4105WAT     H212558   9.047   3.100   0.212
 4106WAT      O12559   7.560   0.819   1.941
 4106WAT     H112560   7.470   0.803   1.982
 4106WAT     H212561   7.603   0.897   1.986
 4107WAT      O12562   6.927   3.402   4.980
 4107WAT     H112563   6.833   3.400   5.014
 4107WAT     H212564   6.936   3.338   4.904
 4108WAT      O12565   6.722   1.594   6.800
 4108WAT     H112566   6.726   1.691   6.824
 4108WAT     H212567   6.812   1.563   6.769
 4109WAT      O12568   0.367   1.657   5.422
 4109WAT     H112569   0.387   1.636   5.517
 4109WAT     H212570   0.281   1.614   5.394
 4110WAT      O12571   6.104   3.973   7.316
 4110WAT     H112572   6.197   4.000   7.344
 4110WAT     H212573   6.056   4.052   7.278
 4111WAT      O12574   0.594   7.447   1.252
 4111WAT     H112575   0.649   7.530   1.266
 4111WAT     H212576   0.637   7.390   1.182
 4112WAT      O12577   0.086   8.608   3.181
 4112WAT     H112578   0.096   8.652   3.270
 4112WAT     H212579   0.148   8.651   3.115
 4113WAT      O12580   3.429   5.476   0.243
 4113WAT     H112581   3.378   5.434   0.318
 4113WAT     H212582   3.369   5.539   0.194
 4114WAT      O12583   0.541   6.962   2.457
 4114WAT     H112584   0.477   7.038   2.463
 4114WAT     H212585   0.619   6.980   2.517
 4115WAT      O12586   5.661   2.337   0.809
 4115WAT     H112587   5.752   2.379   0.814
 4115WAT     H212588   5.665   2.256   0.751
 4116WAT      O12589   7.871   6.461   2.544
 4116WAT     H112590   7.833   6.402   2.616
 4116WAT     H212591   7.800   6.523   2.511
 4117WAT      O12592   5.678   2.168   8.762
 4117WAT     H112593   5.745   2.201   8.696
 4117WAT     H212594   5.599   2.229   8.763
 4118WAT      O12595   9.234   6.174   7.882
 4118WAT     H112596   9.183   6.246   7.836
 4118WAT     H212597   9.195   6.159   7.973
 4119WAT      O12598   1.267   2.362   9.828
 4119WAT     H112599   1.260   2.262   9.823
 4119WAT     H212600   1.318   2.387   9.910
 4120WAT      O12601   3.673   7.427   8.034
 4120WAT     H112602   3.695   7.412   7.938
 4120WAT     H212603   3.578   7.398   8.051
 4121WAT      O12604   4.443   0.091   8.911
 4121WAT     H112605   4.370   0.050   8.965
 4121WAT     H212606   4.456   0.186   8.940
 4122WAT      O12607   4.129   6.569   3.328
 4122WAT     H112608   4.063   6.603   3.395
 4122WAT     H212609   4.079   6.522   3.254
 4123WAT      O12610   7.479   6.020   3.172
 4123WAT     H112611   7.430   6.025   3.084
 4123WAT     H212612   7.536   6.101   3.183
 4124WAT      O12613   4.492   4.755   1.033
 4124WAT     H112614   4.532   4.822   0.970
 4124WAT     H212615   4.461   4.675   0.982
 4125WAT      O12616   9.602   3.733   3.955
 4125WAT     H112617   9.541   3.694   3.886
 4125WAT     H212618   9.623   3.663   4.024
 4126WAT      O12619   1.890   5.974   5.867
 4126WAT     H112620   1.855   5.889   5.825
 4126WAT     H212621   1.844   5.990   5.954
 4127WAT      O12622   9.383   9.693   4.726
 4127WAT     H112623   9.354   9.675   4.632
 4127WAT     H212624   9.327   9.765   4.765
 4128WAT      O12625   3.083   8.880   6.603
 4128WAT     H112626   3.049   8.931   6.524
 4128WAT     H212627   3.146   8.937   6.655
 4129WAT      O12628   1.188   2.465   5.432
 4129WAT     H112629   1.110   2.461   5.494
 4129WAT     H212630   1.212   2.372   5.401
 4130WAT      O12631   8.958   3.670   0.926
 4130WAT     H112632   8.988   3.761   0.897
 4130WAT     H212633   8.999   3.601   0.866
 4131WAT      O12634   7.529   9.710   1.042
 4131WAT     H112635   7.527   9.808   1.065
 4131WAT     H212636   7.481   9.695   0.955
 4132WAT      O12637   3.538   6.994   7.674
 4132WAT     H112638   3.530   6.929   7.750
 4132WAT     H212639   3.518   6.947   7.588
 4133WAT      O12640   2.543   0.936   4.225
 4133WAT     H112641   2.568   0.942   4.128
 4133WAT     H212642   2.620   0.897   4.277
 4134WAT      O12643   0.605   7.880   2.689
 4134WAT     H112644   0.547   7.869   2.770
 4134WAT     H212645   0.696   7.842   2.707
 4135WAT      O12646   1.826   6.135   9.509
 4135WAT     H112647   1.779   6.145   9.421
 4135WAT     H212648   1.924   6.152   9.495
 4136WAT      O12649   4.753   8.535   7.632
 4136WAT     H112650   4.778   8.632   7.637
 4136WAT     H212651   4.801   8.492   7.556
 4137WAT      O12652   4.317   8.516   8.455
 4137WAT     H112653   4.303   8.554   8.546
 4137WAT     H212654   4.373   8.433   8.462
 4138WAT      O12655   1.058   5.204   6.138
 4138WAT     H112656   0.970   5.232   6.176
 4138WAT     H212657   1.125   5.277   6.150
 4139WAT      O12658   5.241   1.133   9.110
 4139WAT     H112659   5.315   1.065   9.111
 4139WAT     H212660   5.252   1.194   9.031
 4140WAT      O12661   8.518   0.833   9.018
 4140WAT     H112662   8.579   0.757   9.041
 4140WAT     H212663   8.525   0.853   8.920
 4141WAT      O12664   8.071   0.650   3.711
 4141WAT     H112665   8.022   0.574   3.752
 4141WAT     H212666   8.169   0.631   3.712
 4142WAT      O12667   6.704   3.153   9.751
 4142WAT     H112668   6.676   3.121   9.660
 4142WAT     H212669   6.799   3.129   9.767
 4143WAT      O12670   1.789   9.576   2.337
 4143WAT     H112671   1.742   9.588   2.425
 4143WAT     H212672   1.780   9.659   2.282
 4144WAT      O12673   3.442   2.035   8.596
 4144WAT     H112674   3.496   2.008   8.517
 4144WAT     H212675   3.498   2.092   8.657
 4145WAT      O12676   2.241   1.719   8.516
 4145WAT     H112677   2.185   1.760   8.445
 4145WAT     H212678   2.244   1.779   8.596
 4146WAT      O12679   1.423   4.200   1.248
 4146WAT     H112680   1.400   4.293   1.278
 4146WAT     H212681   1.346   4.139   1.266
 4147WAT      O12682   9.855   7.362   5.736
 4147WAT     H112683   9.904   7.313   5.665
 4147WAT     H212684   9.877   7.459   5.732
 4148WAT      O12685   5.404   5.895   8.432
 4148WAT     H112686   5.366   5.985   8.408
 4148WAT     H212687   5.500   5.891   8.405
 4149WAT      O12688   3.927   3.612   5.806
 4149WAT     H112689   3.867   3.645   5.879
 4149WAT     H212690   4.015   3.586   5.844
 4150WAT      O12691   6.012   8.198   7.263
 4150WAT     H112692   5.916   8.197   7.236
 4150WAT     H212693   6.048   8.104   7.264
 4151WAT      O12694   4.667   6.063   9.275
 4151WAT     H112695   4.729   5.998   9.232
 4151WAT     H212696   4.613   6.109   9.204
 4152WAT      O12697   0.890   0.618   5.377
 4152WAT     H112698   0.812   0.627   5.438
 4152WAT     H212699   0.966   0.575   5.425
 4153WAT      O12700   0.791   7.805   1.593
 4153WAT     H112701   0.700   7.829   1.559
 4153WAT     H212702   0.846   7.888   1.603
 4154WAT      O12703   5.302   8.562   5.344
 4154WAT     H112704   5.311   8.572   5.443
 4154WAT     H212705   5.368   8.495   5.312
 4155WAT      O12706   9.414   4.498   6.678
 4155WAT     H112707   9.474   4.578   6.668
 4155WAT     H212708   9.353   4.491   6.599
 4156WAT      O12709   5.575   0.434   7.561
 4156WAT     H112710   5.559   0.480   7.648
 4156WAT     H212711   5.501   0.455   7.497
 4157WAT      O12712   4.739   7.958   0.073
 4157WAT     H112713   4.665   7.941   0.138
 4157WAT     H212714   4.794   8.036   0.104
 4158WAT      O12715   3.665   4.565   1.185
 4158WAT     H112716   3.613   4.639   1.141
 4158WAT     H212717   3.691   4.497   1.116
 4159WAT      O12718   5.951   2.693   1.270
 4159WAT     H112719   5.998   2.649   1.193
 4159WAT     H212720   5.859   2.656   1.279
 4160WAT      O12721   3.546   5.981   8.585
 4160WAT     H112722   3.592   5.951   8.669
 4160WAT     H212723   3.595   5.944   8.505
 4161WAT      O12724   8.474   7.932   0.724
 4161WAT     H112725   8.449   7.888   0.810
 4161WAT     H212726   8.435   7.880   0.648
 4162WAT      O12727   8.301   1.177   5.103
 4162WAT     H112728   8.292   1.238   5.025
 4162WAT     H212729   8.397   1.151   5.115
 4163WAT      O12730   7.728   4.589   3.702
 4163WAT     H112731   7.791   4.648   3.752
 4163WAT     H212732   7.694   4.638   3.621
 4164WAT      O12733   7.682   8.732   1.418
 4164WAT     H112734   7.781   8.720   1.416
 4164WAT     H212735   7.657   8.813   1.365
 4165WAT      O12736   8.416   5.644   2.253
 4165WAT     H112737   8.473   5.636   2.172
 4165WAT     H212738   8.332   5.590   2.240
 4166WAT      O12739   0.224   6.591   2.660
 4166WAT     H112740   0.203   6.494   2.673
 4166WAT     H212741   0.235   6.610   2.562
 4167WAT      O12742   6.658   8.120   1.395
 4167WAT     H112743   6.581   8.065   1.362
 4167WAT     H212744   6.743   8.084   1.357
 4168WAT      O12745   8.842   9.640   8.061
 4168WAT     H112746   8.898   9.625   8.143
 4168WAT     H212747   8.854   9.734   8.030
 4169WAT      O12748   2.960   9.545   9.894
 4169WAT     H112749   3.006   9.498   9.819
 4169WAT     H212750   2.872   9.502   9.911
 4170WAT      O12751   6.409   7.648   9.648
 4170WAT     H112752   6.492   7.665   9.596
 4170WAT     H212753   6.331   7.690   9.602
 4171WAT      O12754   7.651   7.106   0.121
 4171WAT     H112755   7.638   7.069   0.028
 4171WAT     H212756   7.562   7.127   0.161
 4172WAT      O12757   7.321   1.091   9.341
 4172WAT     H112758   7.272   1.161   9.290
 4172WAT     H212759   7.408   1.127   9.374
 4173WAT      O12760   1.462   7.236   1.706
 4173WAT     H112761   1.507   7.280   1.627
 4173WAT     H212762   1.399   7.166   1.673
 4174WAT      O12763   3.800   5.567   2.235
 4174WAT     H112764   3.713   5.559   2.187
 4174WAT     H212765   3.792   5.528   2.326
 4175WAT      O12766   7.997   1.423   4.266
 4175WAT     H112767   8.069   1.457   4.205
 4175WAT     H212768   8.025   1.435   4.361
 4176WAT      O12769   0.472   5.770   8.817
 4176WAT     H112770   0.425   5.733   8.897
 4176WAT     H212771   0.467   5.704   8.742
 4177WAT      O12772   0.584   6.403   7.171
 4177WAT     H112773   0.646   6.469   7.128
 4177WAT     H212774   0.492   6.416   7.135
 4178WAT      O12775   8.191   4.176   0.295
 4178WAT     H112776   8.127   4.231   0.349
 4178WAT     H212777   8.149   4.088   0.273
 4179WAT      O12778   8.805   1.215   5.832
 4179WAT     H112779   8.726   1.226   5.893
 4179WAT     H212780   8.806   1.289   5.765
 4180WAT      O12781   5.387   8.434   0.764
 4180WAT     H112782   5.455   8.426   0.837
 4180WAT     H212783   5.410   8.373   0.689
 4181WAT      O12784   8.916   2.546   8.963
 4181WAT     H112785   8.827   2.506   8.986
 4181WAT     H212786   8.914   2.644   8.985
 4182WAT      O12787   3.293   9.402   7.345
 4182WAT     H112788   3.384   9.436   7.371
 4182WAT     H212789   3.240   9.384   7.428
 4183WAT      O12790   8.468   5.477   3.489
 4183WAT     H112791   8.394   5.485   3.423
 4183WAT     H212792   8.550   5.442   3.443
 4184WAT      O12793   1.851   2.115   8.876
 4184WAT     H112794   1.868   2.214   8.872
 4184WAT     H212795   1.802   2.093   8.960
 4185WAT      O12796   3.238   4.900   1.688
 4185WAT     H112797   3.266   4.930   1.597
 4185WAT     H212798   3.320   4.878   1.742
 4186WAT      O12799   7.896   2.939   3.419
 4186WAT     H112800   7.942   2.992   3.347
 4186WAT     H212801   7.843   2.866   3.376
 4187WAT      O12802   1.394   9.196   4.938
 4187WAT     H112803   1.301   9.179   4.903
 4187WAT     H212804   1.395   9.283   4.988
 4188WAT      O12805   2.685   4.269   0.494
 4188WAT     H112806   2.683   4.215   0.578
 4188WAT     H212807   2.780   4.297   0.475
 4189WAT      O12808   8.285   4.715   8.237
 4189WAT     H112809   8.189   4.698   8.218
 4189WAT     H212810   8.323   4.638   8.289
 4190WAT      O12811   2.991   2.558   8.470
 4190WAT     H112812   2.938   2.637   8.497
 4190WAT     H212813   3.089   2.576   8.485
 4191WAT      O12814   3.372   3.436   4.684
 4191WAT     H112815   3.381   3.465   4.588
 4191WAT     H212816   3.394   3.339   4.692
 4192WAT      O12817   3.459   1.592   9.354
 4192WAT     H112818   3.385   1.557   9.297
 4192WAT     H212819   3.496   1.518   9.411
 4193WAT      O12820   1.177   0.478   9.858
 4193WAT     H112821   1.273   0.453   9.866
 4193WAT     H212822   1.151   0.537   9.935
 4194WAT      O12823   7.876   3.405   2.454
 4194WAT     H112824   7.867   3.323   2.397
 4194WAT     H212825   7.953   3.393   2.517
 4195WAT      O12826   3.697   6.634   3.689
 4195WAT     H112827   3.679   6.729   3.665
 4195WAT     H212828   3.722   6.583   3.607
 4196WAT      O12829   7.682   7.191   9.046
 4196WAT     H112830   7.677   7.290   9.028
 4196WAT     H212831   7.756   7.174   9.112
 4197WAT      O12832   3.592   0.142   9.852
 4197WAT     H112833   3.648   0.084   9.911
 4197WAT     H212834   3.652   0.206   9.803
 4198WAT      O12835   7.518   6.474   1.895
 4198WAT     H112836   7.527   6.562   1.849
 4198WAT     H212837   7.449   6.480   1.967
 4199WAT      O12838   5.204   0.692   0.380
 4199WAT     H112839   5.303   0.689   0.366
 4199WAT     H212840   5.158   0.671   0.293
 4200WAT      O12841   4.602   6.989   2.706
 4200WAT     H112842   4.660   6.919   2.664
 4200WAT     H212843   4.508   6.977   2.675
 4201WAT      O12844   5.038   0.145   1.387
 4201WAT     H112845   4.955   0.156   1.442
 4201WAT     H212846   5.016   0.095   1.303
 4202WAT      O12847   5.916   7.874   9.381
 4202WAT     H112848   5.943   7.781   9.404
 4202WAT     H212849   5.837   7.871   9.319
 4203WAT      O12850   6.048   9.638   4.499
 4203WAT     H112851   5.995   9.625   4.415
 4203WAT     H212852   5.989   9.675   4.571
 4204WAT      O12853   7.385   7.741   7.302
 4204WAT     H112854   7.330   7.742   7.386
 4204WAT     H212855   7.338   7.794   7.232
 4205WAT      O12856   5.365   2.393   5.973
 4205WAT     H112857   5.337   2.469   5.915
 4205WAT     H212858   5.373   2.310   5.917
 4206WAT      O12859   0.489   3.757   8.805
 4206WAT     H112860   0.476   3.811   8.888
 4206WAT     H212861   0.419   3.782   8.737
 4207WAT      O12862   6.157   5.125   1.591
 4207WAT     H112863   6.141   5.171   1.678
 4207WAT     H212864   6.070   5.094   1.553
 4208WAT      O12865   6.249   4.649   0.739
 4208WAT     H112866   6.337   4.688   0.768
 4208WAT     H212867   6.178   4.720   0.744
 4209WAT      O12868   3.323   8.527   2.895
 4209WAT     H112869   3.239   8.477   2.919
 4209WAT     H212870   3.356   8.575   2.976
 4210WAT      O12871   9.438   7.977   6.562
 4210WAT     H112872   9.505   7.940   6.497
 4210WAT     H212873   9.402   8.063   6.528
 4211WAT      O12874   8.531   9.357   8.999
 4211WAT     H112875   8.545   9.400   8.909
 4211WAT     H212876   8.558   9.420   9.071
 4212WAT      O12877   0.557   1.402   5.365
 4212WAT     H112878   0.493   1.378   5.292
 4212WAT     H212879   0.620   1.326   5.381
 4213WAT      O12880   3.366   3.650   7.647
 4213WAT     H112881   3.422   3.573   7.618
 4213WAT     H212882   3.269   3.623   7.645
 4214WAT      O12883   8.110   7.903   7.289
 4214WAT     H112884   8.124   7.879   7.386
 4214WAT     H212885   8.198   7.916   7.245
 4215WAT      O12886   7.554   9.705   4.312
 4215WAT     H112887   7.572   9.745   4.402
 4215WAT     H212888   7.542   9.606   4.321
 4216WAT      O12889   2.504   1.691   0.875
 4216WAT     H112890   2.476   1.786   0.890
 4216WAT     H212891   2.603   1.684   0.880
 4217WAT      O12892   4.386   2.093   6.432
 4217WAT     H112893   4.468   2.147   6.453
 4217WAT     H212894   4.406   1.996   6.448
 4218WAT      O12895   4.685   8.930   6.505
 4218WAT     H112896   4.664   8.947   6.409
 4218WAT     H212897   4.660   9.010   6.559
 4219WAT      O12898   1.042   2.242   6.450
 4219WAT     H112899   1.001   2.299   6.379
 4219WAT     H212900   0.976   2.228   6.523
 4220WAT      O12901   0.247   3.298   2.453
 4220WAT     H112902   0.300   3.219   2.422
 4220WAT     H212903   0.299   3.381   2.437
 4221WAT      O12904   7.784   8.535   5.522
 4221WAT     H112905   7.801   8.558   5.426
 4221WAT     H212906   7.851   8.581   5.580
 4222WAT      O12907   1.509   6.246   1.238
 4222WAT     H112908   1.499   6.188   1.157
 4222WAT     H212909   1.525   6.189   1.318
 4223WAT      O12910   2.571   9.596   5.632
 4223WAT     H112911   2.499   9.591   5.700
 4223WAT     H212912   2.599   9.691   5.619
 4224WAT      O12913   1.303   3.093   7.995
 4224WAT     H112914   1.366   3.168   8.015
 4224WAT     H212915   1.229   3.093   8.062
 4225WAT      O12916   6.849   8.090   4.064
 4225WAT     H112917   6.826   8.186   4.048
 4225WAT     H212918   6.940   8.072   4.025
 4226WAT      O12919   3.673   6.965   8.233
 4226WAT     H112920   3.715   7.011   8.155
 4226WAT     H212921   3.576   6.991   8.239
 4227WAT      O12922   9.297   1.078   3.671
 4227WAT     H112923   9.375   1.109   3.726
 4227WAT     H212924   9.306   1.111   3.578
 4228WAT      O12925   2.931   2.902   7.899
 4228WAT     H112926   2.900   2.872   7.989
 4228WAT     H212927   2.974   2.826   7.851
 4229WAT      O12928   5.250   2.942   7.239
 4229WAT     H112929   5.292   2.863   7.193
 4229WAT     H212930   5.304   3.024   7.220
 4230WAT      O12931   5.503   2.654   9.405
 4230WAT     H112932   5.512   2.752   9.420
 4230WAT     H212933   5.410   2.625   9.430
 4231WAT      O12934   5.070   3.903   2.805
 4231WAT     H112935   4.982   3.905   2.757
 4231WAT     H212936   5.139   3.865   2.743
 4232WAT      O12937   0.656   8.944   4.573
 4232WAT     H112938   0.691   9.025   4.621
 4232WAT     H212939   0.580   8.971   4.513
 4233WAT      O12940   9.884   5.421   8.892
 4233WAT     H112941   9.838   5.437   8.980
 4233WAT     H212942   9.827   5.363   8.834
 4234WAT      O12943   3.702   3.387   7.077
 4234WAT     H112944   3.640   3.310   7.064
 4234WAT     H212945   3.756   3.372   7.160
 4235WAT      O12946   0.162   0.022   0.006
 4235WAT     H112947   0.136   0.084   0.080
 4235WAT     H212948   0.262   0.023  -0.004
 4236WAT      O12949   4.753   7.195   8.163
 4236WAT     H112950   4.785   7.116   8.111
 4236WAT     H212951   4.767   7.179   8.261
 4237WAT      O12952   3.764   1.468   5.008
 4237WAT     H112953   3.818   1.445   4.927
 4237WAT     H212954   3.670   1.491   4.981
 4238WAT      O12955   9.048   0.927   5.272
 4238WAT     H112956   9.110   0.849   5.262
 4238WAT     H212957   9.034   0.946   5.369
 4239WAT      O12958   6.820   6.603   4.673
 4239WAT     H112959   6.820   6.696   4.636
 4239WAT     H212960   6.915   6.573   4.685
 4240WAT      O12961   0.316   8.062   6.406
 4240WAT     H112962   0.305   8.001   6.484
 4240WAT     H212963   0.239   8.050   6.344
 4241WAT      O12964   4.968   6.962   6.489
 4241WAT     H112965   5.064   6.967   6.461
 4241WAT     H212966   4.952   7.026   6.564
 4242WAT      O12967   9.170   4.826   3.792
 4242WAT     H112968   9.085   4.772   3.798
 4242WAT     H212969   9.245   4.766   3.764
 4243WAT      O12970   2.963   5.195   6.036
 4243WAT     H112971   2.958   5.169   5.939
 4243WAT     H212972   2.940   5.115   6.092
 4244WAT      O12973   5.221   5.675   0.436
 4244WAT     H112974   5.173   5.757   0.467
 4244WAT     H212975   5.201   5.658   0.340
 4245WAT      O12976   7.966   5.812   8.902
 4245WAT     H112977   8.064   5.797   8.889
 4245WAT     H212978   7.925   5.842   8.816
 4246WAT      O12979   3.226   3.920   4.238
 4246WAT     H112980   3.211   4.018   4.226
 4246WAT     H212981   3.282   3.886   4.163
 4247WAT      O12982   6.826   2.606   1.964
 4247WAT     H112983   6.750   2.669   1.950
 4247WAT     H212984   6.822   2.532   1.897
 4248WAT      O12985   7.632   8.275   8.395
 4248WAT     H112986   7.694   8.337   8.347
 4248WAT     H212987   7.649   8.181   8.366
 4249WAT      O12988   1.283   7.865   7.703
 4249WAT     H112989   1.241   7.914   7.626
 4249WAT     H212990   1.223   7.790   7.732
 4250WAT      O12991   7.621   3.401   6.183
 4250WAT     H112992   7.686   3.327   6.167
 4250WAT     H212993   7.630   3.434   6.277
 4251WAT      O12994   5.745   2.210   7.619
 4251WAT     H112995   5.698   2.298   7.620
 4251WAT     H212996   5.679   2.137   7.602
 4252WAT      O12997   3.679   5.355   1.997
 4252WAT     H112998   3.778   5.346   1.988
 4252WAT     H212999   3.656   5.449   2.019
 4253WAT      O13000   4.085   3.733   5.607
 4253WAT     H113001   4.068   3.831   5.620
 4253WAT     H213002   4.036   3.681   5.677
 4254WAT      O13003   7.512   7.426   3.092
 4254WAT     H113004   7.538   7.521   3.077
 4254WAT     H213005   7.593   7.368   3.089
 4255WAT      O13006   4.001   6.170   1.171
 4255WAT     H113007   3.986   6.199   1.077
 4255WAT     H213008   3.915   6.176   1.222
 4256WAT      O13009   0.965   1.131   1.424
 4256WAT     H113010   0.971   1.119   1.523
 4256WAT     H213011   0.872   1.109   1.393
 4257WAT      O13012   1.898   3.517   2.875
 4257WAT     H113013   1.912   3.552   2.968
 4257WAT     H213014   1.820   3.456   2.873
 4258WAT      O13015   7.130   8.086   8.703
 4258WAT     H113016   7.094   8.140   8.779
 4258WAT     H213017   7.098   7.991   8.711
 4259WAT      O13018   0.339   6.148   5.425
 4259WAT     H113019   0.408   6.094   5.377
 4259WAT     H213020   0.364   6.156   5.522
 4260WAT      O13021   1.392   5.992   6.375
 4260WAT     H113022   1.334   6.015   6.452
 4260WAT     H213023   1.374   5.898   6.346
 4261WAT      O13024   7.887   0.092   9.608
 4261WAT     H113025   7.794   0.124   9.595
 4261WAT     H213026   7.900   0.006   9.558
 4262WAT      O13027   2.855   3.277   0.752
 4262WAT     H113028   2.764   3.302   0.785
 4262WAT     H213029   2.894   3.207   0.813
 4263WAT      O13030   4.040   1.790   0.797
 4263WAT     H113031   3.977   1.867   0.810
 4263WAT     H213032   4.076   1.792   0.704
 4264WAT      O13033   0.537   3.852   0.243
 4264WAT     H113034   0.573   3.944   0.230
 4264WAT     H213035   0.540   3.829   0.341
 4265WAT      O13036   7.617   4.548   2.815
 4265WAT     H113037   7.541   4.557   2.749
 4265WAT     H213038   7.587   4.581   2.904
 4266WAT      O13039   7.732   0.984   5.890
 4266WAT     H113040   7.647   0.967   5.840
 4266WAT     H213041   7.721   1.065   5.947
 4267WAT      O13042   2.522   2.526   7.970
 4267WAT     H113043   2.556   2.582   7.894
 4267WAT     H213044   2.470   2.584   8.033
 4268WAT      O13045   6.234   9.091   1.421
 4268WAT     H113046   6.246   9.186   1.451
 4268WAT     H213047   6.188   9.090   1.332
 4269WAT      O13048   6.616   9.336   9.477
 4269WAT     H113049   6.597   9.238   9.472
 4269WAT     H213050   6.546   9.381   9.532
 4270WAT      O13051   4.960   7.823   5.561
 4270WAT     H113052   4.902   7.742   5.574
 4270WAT     H213053   5.054   7.799   5.583
 4271WAT      O13054   8.304   8.426   9.461
 4271WAT     H113055   8.282   8.504   9.520
 4271WAT     H213056   8.248   8.429   9.379
 4272WAT      O13057   7.450   3.875   9.232
 4272WAT     H113058   7.506   3.913   9.159
 4272WAT     H213059   7.481   3.910   9.320
 4273WAT      O13060   2.191   5.823   7.822
 4273WAT     H113061   2.103   5.778   7.839
 4273WAT     H213062   2.256   5.756   7.787
 4274WAT      O13063   1.036   5.363   9.709
 4274WAT     H113064   0.967   5.361   9.782
 4274WAT     H213065   0.997   5.326   9.625
 4275WAT      O13066   3.036   7.581   3.607
 4275WAT     H113067   3.097   7.626   3.672
 4275WAT     H213068   3.065   7.601   3.514
 4276WAT      O13069   2.637   5.919   3.287
 4276WAT     H113070   2.595   5.843   3.337
 4276WAT     H213071   2.618   6.005   3.336
 4277WAT      O13072   5.756   6.321   4.475
 4277WAT     H113073   5.804   6.406   4.454
 4277WAT     H213074   5.819   6.244   4.464
 4278WAT      O13075   0.965   1.789   0.698
 4278WAT     H113076   0.868   1.807   0.711
 4278WAT     H213077   0.990   1.704   0.745
 4279WAT      O13078   8.430   8.120   1.251
 4279WAT     H113079   8.361   8.053   1.279
 4279WAT     H213080   8.435   8.124   1.151
 4280WAT      O13081   4.605   4.940   2.816
 4280WAT     H113082   4.514   4.982   2.812
 4280WAT     H213083   4.608   4.876   2.893
 4281WAT      O13084   7.900   8.262   6.230
 4281WAT     H113085   7.817   8.215   6.199
 4281WAT     H213086   7.942   8.309   6.152
 4282WAT      O13087   5.649   1.198   7.988
 4282WAT     H113088   5.734   1.236   8.023
 4282WAT     H213089   5.574   1.262   8.005
 4283WAT      O13090   9.868   7.685   0.940
 4283WAT     H113091   9.867   7.588   0.914
 4283WAT     H213092   9.857   7.693   1.039
 4284WAT      O13093   1.369   9.487   7.757
 4284WAT     H113094   1.448   9.486   7.819
 4284WAT     H213095   1.348   9.394   7.729
 4285WAT      O13096   0.884   8.347   7.051
 4285WAT     H113097   0.837   8.365   6.965
 4285WAT     H213098   0.920   8.432   7.088
 4286WAT      O13099   2.752   6.543   6.480
 4286WAT     H113100   2.757   6.546   6.579
 4286WAT     H213101   2.788   6.628   6.441
 4287WAT      O13102   1.556   9.756   2.477
 4287WAT     H113103   1.517   9.839   2.516
 4287WAT     H213104   1.504   9.729   2.396
 4288WAT      O13105   4.041   2.579   6.347
 4288WAT     H113106   3.994   2.494   6.372
 4288WAT     H213107   4.024   2.648   6.417
 4289WAT      O13108   0.163   7.352   6.832
 4289WAT     H113109   0.075   7.368   6.876
 4289WAT     H213110   0.148   7.336   6.734
 4290WAT      O13111   4.349   2.530   2.650
 4290WAT     H113112   4.359   2.585   2.567
 4290WAT     H213113   4.294   2.580   2.717
 4291WAT      O13114   8.192   1.549   9.104
 4291WAT     H113115   8.132   1.596   9.169
 4291WAT     H213116   8.247   1.617   9.055
 4292WAT      O13117   2.539   1.729   8.561
 4292WAT     H113118   2.440   1.731   8.578
 4292WAT     H213119   2.582   1.807   8.606
 4293WAT      O13120   1.411   4.373   2.883
 4293WAT     H113121   1.460   4.419   2.809
 4293WAT     H213122   1.474   4.312   2.931
 4294WAT      O13123   7.585   7.797   6.985
 4294WAT     H113124   7.628   7.882   7.014
 4294WAT     H213125   7.603   7.726   7.053
 4295WAT      O13126   9.162   5.564   5.549
 4295WAT     H113127   9.145   5.617   5.632
 4295WAT     H213128   9.217   5.619   5.486
 4296WAT      O13129   0.142   9.703   6.476
 4296WAT     H113130   0.178   9.778   6.532
 4296WAT     H213131   0.217   9.646   6.445
 4297WAT      O13132   7.370   0.469   1.365
 4297WAT     H113133   7.463   0.456   1.331
 4297WAT     H213134   7.308   0.488   1.288
 4298WAT      O13135   9.602   9.569   0.415
 4298WAT     H113136   9.538   9.621   0.471
 4298WAT     H213137   9.628   9.485   0.464
 4299WAT      O13138   7.091   2.642   8.726
 4299WAT     H113139   7.020   2.692   8.675
 4299WAT     H213140   7.072   2.648   8.824
 4300WAT      O13141   3.530   1.344   9.422
 4300WAT     H113142   3.630   1.356   9.417
 4300WAT     H213143   3.508   1.247   9.414
 4301WAT      O13144   6.723   3.182   1.851
 4301WAT     H113145   6.638   3.208   1.898
 4301WAT     H213146   6.703   3.113   1.782
 4302WAT      O13147   1.142   2.861   3.507
 4302WAT     H113148   1.136   2.897   3.414
 4302WAT     H213149   1.063   2.893   3.560
 4303WAT      O13150   0.919   4.109   2.399
 4303WAT     H113151   0.877   4.175   2.337
 4303WAT     H213152   0.939   4.025   2.349
 4304WAT      O13153   2.929   7.479   4.369
 4304WAT     H113154   2.922   7.569   4.413
 4304WAT     H213155   2.982   7.487   4.285
 4305WAT      O13156   0.565   8.806   2.723
 4305WAT     H113157   0.582   8.810   2.625
 4305WAT     H213158   0.627   8.740   2.765
 4306WAT      O13159   1.881   0.826   1.100
 4306WAT     H113160   1.938   0.899   1.062
 4306WAT     H213161   1.861   0.846   1.196
 4307WAT      O13162   7.040   8.628   1.298
 4307WAT     H113163   7.059   8.721   1.268
 4307WAT     H213164   7.000   8.629   1.389
 4308WAT      O13165   8.934   1.581   2.009
 4308WAT     H113166   9.010   1.617   1.955
 4308WAT     H213167   8.945   1.608   2.105
 4309WAT      O13168   0.599   7.137   1.480
 4309WAT     H113169   0.594   7.235   1.498
 4309WAT     H213170   0.631   7.090   1.563
 4310WAT      O13171   4.780   0.933   7.894
 4310WAT     H113172   4.742   0.840   7.899
 4310WAT     H213173   4.815   0.959   7.984
 4311WAT      O13174   1.988   4.796   5.248
 4311WAT     H113175   1.955   4.848   5.169
 4311WAT     H213176   1.937   4.710   5.255
 4312WAT      O13177   9.729   5.385   5.986
 4312WAT     H113178   9.675   5.395   5.902
 4312WAT     H213179   9.801   5.454   5.987
 4313WAT      O13180   2.398   0.172   2.288
 4313WAT     H113181   2.367   0.177   2.193
 4313WAT     H213182   2.458   0.092   2.300
 4314WAT      O13183   5.378   9.520   0.329
 4314WAT     H113184   5.318   9.449   0.291
 4314WAT     H213185   5.452   9.476   0.380
 4315WAT      O13186   5.624   4.238   4.403
 4315WAT     H113187   5.541   4.259   4.352
 4315WAT     H213188   5.692   4.199   4.341
 4316WAT      O13189   7.492   7.855   8.623
 4316WAT     H113190   7.431   7.862   8.544
 4316WAT     H213191   7.583   7.829   8.592
 4317WAT      O13192   1.483   3.782   8.220
 4317WAT     H113193   1.551   3.847   8.187
 4317WAT     H213194   1.411   3.831   8.269
 4318WAT      O13195   4.818   3.639   3.074
 4318WAT     H113196   4.828   3.579   3.154
 4318WAT     H213197   4.898   3.699   3.068
 4319WAT      O13198   4.383   3.253   6.755
 4319WAT     H113199   4.348   3.336   6.711
 4319WAT     H213200   4.308   3.192   6.777
 4320WAT      O13201   8.341   1.309   6.874
 4320WAT     H113202   8.343   1.226   6.929
 4320WAT     H213203   8.247   1.330   6.848
 4321WAT      O13204   9.141   3.001   6.940
 4321WAT     H113205   9.187   2.924   6.984
 4321WAT     H213206   9.132   2.983   6.842
 4322WAT      O13207   7.905   3.866   8.583
 4322WAT     H113208   7.953   3.952   8.599
 4322WAT     H213209   7.899   3.815   8.669
 4323WAT      O13210   2.356   4.951   1.313
 4323WAT     H113211   2.351   5.022   1.384
 4323WAT     H213212   2.360   4.995   1.223
 4324WAT      O13213   4.988   8.928   6.358
 4324WAT     H113214   4.945   8.848   6.398
 4324WAT     H213215   5.077   8.903   6.319
 4325WAT      O13216   1.934   0.764   9.545
 4325WAT     H113217   1.926   0.750   9.446
 4325WAT     H213218   1.971   0.682   9.587
 4326WAT      O13219   2.543   4.127   5.014
 4326WAT     H113220   2.452   4.085   5.016
 4326WAT     H213221   2.612   4.056   4.997
 4327WAT      O13222   4.355   0.328   3.549
 4327WAT     H113223   4.371   0.426   3.556
 4327WAT     H213224   4.432   0.278   3.589
 4328WAT      O13225   7.437   5.830   4.356
 4328WAT     H113226   7.526   5.784   4.345
 4328WAT     H213227   7.392   5.837   4.267
 4329WAT      O13228   6.633   0.341   0.236
 4329WAT     H113229   6.543   0.320   0.274
 4329WAT     H213230   6.661   0.268   0.173
 4330WAT      O13231   0.255   0.446   5.597
 4330WAT     H113232   0.208   0.418   5.680
 4330WAT     H213233   0.296   0.366   5.553
 4331WAT      O13234   2.905   9.513   2.975
 4331WAT     H113235   2.825   9.481   3.025
 4331WAT     H213236   2.877   9.562   2.893
 4332WAT      O13237   3.544   8.708   0.336
 4332WAT     H113238   3.554   8.630   0.398
 4332WAT     H213239   3.571   8.792   0.383
 4333WAT      O13240   9.476   5.214   3.874
 4333WAT     H113241   9.410   5.235   3.802
 4333WAT     H213242   9.431   5.165   3.948
 4334WAT      O13243   8.438   0.915   2.501
 4334WAT     H113244   8.507   0.978   2.539
 4334WAT     H213245   8.419   0.843   2.567
 4335WAT      O13246   3.889   7.804   9.022
 4335WAT     H113247   3.914   7.810   9.118
 4335WAT     H213248   3.886   7.896   8.982
 4336WAT      O13249   1.569   9.698   8.116
 4336WAT     H113250   1.511   9.746   8.182
 4336WAT     H213251   1.652   9.751   8.098
 4337WAT      O13252   1.861   2.729   5.948
 4337WAT     H113253   1.904   2.797   5.889
 4337WAT     H213254   1.927   2.657   5.969
 4338WAT      O13255   3.378   7.200   1.458
 4338WAT     H113256   3.283   7.214   1.488
 4338WAT     H213257   3.388   7.109   1.418
 4339WAT      O13258   9.490   8.671   1.570
 4339WAT     H113259   9.411   8.649   1.513
 4339WAT     H213260   9.500   8.770   1.576
 4340WAT      O13261   8.486   9.592   2.901
 4340WAT     H113262   8.515   9.513   2.846
 4340WAT     H213263   8.437   9.657   2.842
 4341WAT      O13264   6.577   5.868   9.297
 4341WAT     H113265   6.639   5.797   9.332
 4341WAT     H213266   6.554   5.848   9.202
 4342WAT      O13267   4.094   2.081   7.158
 4342WAT     H113268   4.094   2.181   7.162
 4342WAT     H213269   4.150   2.044   7.232
 4343WAT      O13270   3.670   6.977   2.150
 4343WAT     H113271   3.670   7.062   2.096
 4343WAT     H213272   3.711   6.995   2.239
 4344WAT      O13273   0.191   5.369   6.398
 4344WAT     H113274   0.268   5.416   6.353
 4344WAT     H213275   0.208   5.270   6.399
 4345WAT      O13276   9.494   8.141   8.951
 4345WAT     H113277   9.564   8.151   9.022
 4345WAT     H213278   9.454   8.050   8.956
 4346WAT      O13279   7.624   1.266   4.547
 4346WAT     H113280   7.720   1.236   4.548
 4346WAT     H213281   7.609   1.330   4.622
 4347WAT      O13282   6.000   1.691   1.659
 4347WAT     H113283   5.951   1.604   1.660
 4347WAT     H213284   5.987   1.735   1.570
 4348WAT      O13285   1.142   9.464   3.579
 4348WAT     H113286   1.055   9.422   3.605
 4348WAT     H213287   1.213   9.393   3.572
 4349WAT      O13288   6.215   8.904   6.833
 4349WAT     H113289   6.281   8.898   6.908
 4349WAT     H213290   6.218   8.995   6.792
 4350WAT      O13291   1.941   2.119   4.644
 4350WAT     H113292   1.996   2.080   4.717
 4350WAT     H213293   1.847   2.133   4.677
 4351WAT      O13294   5.264   3.713   3.786
 4351WAT     H113295   5.235   3.773   3.860
 4351WAT     H213296   5.275   3.767   3.702
 4352WAT      O13297   8.873   1.912   1.153
 4352WAT     H113298   8.780   1.937   1.180
 4352WAT     H213299   8.936   1.927   1.229
 4353WAT      O13300   0.862   2.796   5.126
 4353WAT     H113301   0.829   2.770   5.217
 4353WAT     H213302   0.868   2.714   5.068
 4354WAT      O13303   5.330   4.153   0.806
 4354WAT     H113304   5.281   4.094   0.871
 4354WAT     H213305   5.414   4.108   0.777
 4355WAT      O13306   9.023   6.971   8.217
 4355WAT     H113307   9.068   7.054   8.248
 4355WAT     H213308   8.925   6.976   8.239
 4356WAT      O13309   3.842   4.912   0.638
 4356WAT     H113310   3.858   4.818   0.609
 4356WAT     H213311   3.823   4.914   0.736
 4357WAT      O13312   4.103   1.066   9.823
 4357WAT     H113313   4.052   1.068   9.737
 4357WAT     H213314   4.186   1.013   9.812
 4358WAT      O13315   2.683   9.608   0.263
 4358WAT     H113316   2.595   9.620   0.216
 4358WAT     H213317   2.703   9.511   0.273
 4359WAT      O13318   5.196   4.588   0.845
 4359WAT     H113319   5.290   4.574   0.815
 4359WAT     H213320   5.148   4.646   0.779
 4360WAT      O13321   2.094   2.765   1.511
 4360WAT     H113322   2.172   2.827   1.502
 4360WAT     H213323   2.043   2.763   1.425
 4361WAT      O13324   9.786   6.621   1.969
 4361WAT     H113325   9.763   6.548   1.904
 4361WAT     H213326   9.850   6.684   1.927
 4362WAT      O13327   9.366   3.884   0.952
 4362WAT     H113328   9.323   3.960   1.002
 4362WAT     H213329   9.465   3.892   0.961
 4363WAT      O13330   6.525   3.172   5.850
 4363WAT     H113331   6.608   3.210   5.890
 4363WAT     H213332   6.445   3.218   5.887
 4364WAT      O13333   0.633   3.033   3.340
 4364WAT     H113334   0.713   3.056   3.395
 4364WAT     H213335   0.656   3.034   3.243
 4365WAT      O13336   8.686   3.091   2.157
 4365WAT     H113337   8.635   3.064   2.238
 4365WAT     H213338   8.717   3.186   2.167
 4366WAT      O13339   9.758   1.397   0.635
 4366WAT     H113340   9.796   1.475   0.586
 4366WAT     H213341   9.819   1.371   0.710
 4367WAT      O13342   5.115   6.344   3.575
 4367WAT     H113343   5.188   6.368   3.510
 4367WAT     H213344   5.079   6.253   3.552
 4368WAT      O13345   9.854   5.605   5.318
 4368WAT     H113346   9.785   5.565   5.258
 4368WAT     H213347   9.852   5.705   5.308
 4369WAT      O13348   0.590   9.275   8.377
 4369WAT     H113349   0.635   9.231   8.300
 4369WAT     H213350   0.643   9.260   8.460
 4370WAT      O13351   5.396   0.076   6.719
 4370WAT     H113352   5.315   0.038   6.674
 4370WAT     H213353   5.414   0.168   6.684
 4371WAT      O13354   3.397   4.958   2.987
 4371WAT     H113355   3.368   5.052   2.972
 4371WAT     H213356   3.320   4.896   2.976
 4372WAT      O13357   2.104   9.810   5.755
 4372WAT     H113358   2.155   9.888   5.793
 4372WAT     H213359   2.139   9.789   5.663
 4373WAT      O13360   4.086   0.145   3.263
 4373WAT     H113361   4.077   0.079   3.189
 4373WAT     H213362   4.122   0.099   3.345
 4374WAT      O13363   7.608   2.540   8.147
 4374WAT     H113364   7.535   2.531   8.080
 4374WAT     H213365   7.592   2.477   8.223
 4375WAT      O13366   1.811   3.598   6.936
 4375WAT     H113367   1.872   3.567   6.863
 4375WAT     H213368   1.744   3.526   6.955
 4376WAT      O13369   1.678   3.287   7.386
 4376WAT     H113370   1.725   3.202   7.410
 4376WAT     H213371   1.702   3.359   7.451
 4377WAT      O13372   1.124   7.837   3.650
 4377WAT     H113373   1.037   7.833   3.601
 4377WAT     H213374   1.173   7.751   3.638
 4378WAT      O13375   1.400   4.325   5.698
 4378WAT     H113376   1.428   4.386   5.772
 4378WAT     H213377   1.317   4.276   5.725
 4379WAT      O13378   4.232   7.525   6.887
 4379WAT     H113379   4.228   7.465   6.807
 4379WAT     H213380   4.150   7.583   6.889
 4380WAT      O13381   4.155   5.029   3.242
 4380WAT     H113382   4.255   5.036   3.243
 4380WAT     H213383   4.115   5.108   3.288
 4381WAT      O13384   6.479   2.240   2.886
 4381WAT     H113385   6.418   2.244   2.807
 4381WAT     H213386   6.573   2.255   2.856
 4382WAT      O13387   3.177   4.401   1.747
 4382WAT     H113388   3.250   4.439   1.804
 4382WAT     H213389   3.192   4.429   1.652
 4383WAT      O13390   5.635   8.655   8.031
 4383WAT     H113391   5.646   8.594   7.953
 4383WAT     H213392   5.720   8.705   8.047
 4384WAT      O13393   6.277   0.459   1.197
 4384WAT     H113394   6.191   0.432   1.153
 4384WAT     H213395   6.354   0.416   1.150
 4385WAT      O13396   7.807   0.147   7.920
 4385WAT     H113397   7.834   0.147   7.824
 4385WAT     H213398   7.801   0.241   7.953
 4386WAT      O13399   2.599   7.332   0.245
 4386WAT     H113400   2.634   7.381   0.165
 4386WAT     H213401   2.575   7.238   0.219
 4387WAT      O13402   4.887   4.371   3.020
 4387WAT     H113403   4.846   4.371   3.111
 4387WAT     H213404   4.983   4.345   3.026
 4388WAT      O13405   4.105   2.004   9.212
 4388WAT     H113406   4.041   2.063   9.163
 4388WAT     H213407   4.055   1.936   9.264
 4389WAT      O13408   4.139   7.521   5.451
 4389WAT     H113409   4.144   7.494   5.355
 4389WAT     H213410   4.090   7.451   5.503
 4390WAT      O13411   0.330   6.582   3.118
 4390WAT     H113412   0.353   6.498   3.167
 4390WAT     H213413   0.413   6.633   3.097
 4391WAT      O13414   2.447   7.567   1.651
 4391WAT     H113415   2.360   7.523   1.672
 4391WAT     H213416   2.461   7.565   1.552
 4392WAT      O13417   6.274   0.314   9.295
 4392WAT     H113418   6.199   0.293   9.358
 4392WAT     H213419   6.355   0.262   9.321
 4393WAT      O13420   1.193   7.897   9.736
 4393WAT     H113421   1.231   7.989   9.730
 4393WAT     H213422   1.179   7.861   9.644
 4394WAT      O13423   5.945   5.132   8.176
 4394WAT     H113424   6.018   5.157   8.240
 4394WAT     H213425   5.931   5.033   8.178
 4395WAT      O13426   9.848   3.335   7.921
 4395WAT     H113427   9.942   3.369   7.915
 4395WAT     H213428   9.785   3.411   7.934
 4396WAT      O13429   0.736   6.667   8.547
 4396WAT     H113430   0.829   6.634   8.564
 4396WAT     H213431   0.740   6.754   8.499
 4397WAT      O13432   5.198   1.856   2.838
 4397WAT     H113433   5.144   1.789   2.788
 4397WAT     H213434   5.253   1.810   2.908
 4398WAT      O13435   8.529   1.810   2.267
 4398WAT     H113436   8.543   1.837   2.363
 4398WAT     H213437   8.454   1.863   2.229
 4399WAT      O13438   0.737   8.447   8.502
 4399WAT     H113439   0.745   8.347   8.512
 4399WAT     H213440   0.642   8.474   8.509
 4400WAT      O13441   4.291   4.341   5.762
 4400WAT     H113442   4.253   4.348   5.854
 4400WAT     H213443   4.389   4.321   5.767
 4401WAT      O13444   2.923   2.597   6.253
 4401WAT     H113445   2.995   2.651   6.296
 4401WAT     H213446   2.862   2.657   6.202
 4402WAT      O13447   0.469   4.146   8.758
 4402WAT     H113448   0.559   4.143   8.801
 4402WAT     H213449   0.441   4.241   8.745
 4403WAT      O13450   4.756   7.655   1.802
 4403WAT     H113451   4.734   7.628   1.896
 4403WAT     H213452   4.803   7.579   1.756
 4404WAT      O13453   3.747   0.105   4.007
 4404WAT     H113454   3.832   0.067   4.041
 4404WAT     H213455   3.752   0.205   4.008
 4405WAT      O13456   9.077   6.352   2.363
 4405WAT     H113457   9.130   6.269   2.348
 4405WAT     H213458   9.081   6.378   2.459
 4406WAT      O13459   7.328   0.979   7.289
 4406WAT     H113460   7.310   0.955   7.194
 4406WAT     H213461   7.260   1.045   7.320
 4407WAT      O13462   2.033   6.508   4.384
 4407WAT     H113463   2.004   6.415   4.408
 4407WAT     H213464   1.957   6.571   4.399
 4408WAT      O13465   9.289   9.438   9.731
 4408WAT     H113466   9.340   9.352   9.725
 4408WAT     H213467   9.346   9.507   9.775
 4409WAT      O13468   2.243   6.256   5.774
 4409WAT     H113469   2.258   6.185   5.705
 4409WAT     H213470   2.180   6.325   5.737
 4410WAT      O13471   6.591   8.428   4.356
 4410WAT     H113472   6.574   8.373   4.437
 4410WAT     H213473   6.675   8.397   4.312
 4411WAT      O13474   9.101   2.222   6.523
 4411WAT     H113475   9.157   2.285   6.470
 4411WAT     H213476   9.007   2.255   6.527
 4412WAT      O13477   1.003   8.461   1.492
 4412WAT     H113478   1.011   8.520   1.413
 4412WAT     H213479   1.094   8.440   1.528
 4413WAT      O13480   1.045   8.636   0.936
 4413WAT     H113481   1.058   8.712   1.001
 4413WAT     H213482   1.000   8.560   0.982
 4414WAT      O13483   3.857   5.389   6.542
 4414WAT     H113484   3.765   5.365   6.509
 4414WAT     H213485   3.854   5.479   6.585
 4415WAT      O13486   1.664   8.000   1.344
 4415WAT     H113487   1.648   8.075   1.407
 4415WAT     H213488   1.711   8.034   1.262
 4416WAT      O13489   4.659   8.401   3.887
 4416WAT     H113490   4.676   8.474   3.820
 4416WAT     H213491   4.665   8.439   3.979
 4417WAT      O13492   5.474   8.855   5.374
 4417WAT     H113493   5.445   8.849   5.470
 4417WAT     H213494   5.394   8.848   5.314
 4418WAT      O13495   7.980   2.247   1.300
 4418WAT     H113496   7.975   2.303   1.382
 4418WAT     H213497   7.892   2.247   1.253
 4419WAT      O13498   2.527   3.050   4.654
 4419WAT     H113499   2.436   3.076   4.686
 4419WAT     H213500   2.531   2.950   4.645
 4420WAT      O13501   6.637   1.724   1.555
 4420WAT     H113502   6.619   1.643   1.610
 4420WAT     H213503   6.560   1.740   1.494
 4421WAT      O13504   2.056   2.768   3.500
 4421WAT     H113505   1.991   2.723   3.439
 4421WAT     H213506   2.013   2.849   3.541
 4422WAT      O13507   4.301   5.483   7.550
 4422WAT     H113508   4.384   5.431   7.534
 4422WAT     H213509   4.240   5.432   7.611
 4423WAT      O13510   4.751   3.427   6.469
 4423WAT     H113511   4.828   3.386   6.519
 4423WAT     H213512   4.783   3.507   6.418
 4424WAT      O13513   4.183   4.963   5.049
 4424WAT     H113514   4.160   4.867   5.035
 4424WAT     H213515   4.139   4.997   5.132
 4425WAT      O13516   9.594   6.622   3.965
 4425WAT     H113517   9.563   6.703   3.915
 4425WAT     H213518   9.621   6.551   3.901
 4426WAT      O13519   7.171   2.426   8.537
 4426WAT     H113520   7.150   2.493   8.609
 4426WAT     H213521   7.119   2.448   8.455
 4427WAT      O13522   7.194   1.963   8.776
 4427WAT     H113523   7.158   2.056   8.787
 4427WAT     H213524   7.172   1.930   8.684
 4428WAT      O13525   6.706   0.491   0.800
 4428WAT     H113526   6.797   0.500   0.758
 4428WAT     H213527   6.675   0.397   0.793
 4429WAT      O13528   8.462   1.058   6.144
 4429WAT     H113529   8.560   1.058   6.161
 4429WAT     H213530   8.443   1.083   6.049
 4430WAT      O13531   1.212   8.257   8.676
 4430WAT     H113532   1.154   8.337   8.665
 4430WAT     H213533   1.275   8.250   8.599
 4431WAT      O13534   2.871   4.479   6.267
 4431WAT     H113535   2.877   4.421   6.186
 4431WAT     H213536   2.786   4.532   6.265
 4432WAT      O13537   3.772   3.724   9.043
 4432WAT     H113538   3.708   3.741   9.118
 4432WAT     H213539   3.736   3.653   8.983
 4433WAT      O13540   9.528   2.340   2.347
 4433WAT     H113541   9.480   2.291   2.420
 4433WAT     H213542   9.462   2.384   2.287
 4434WAT      O13543   5.184   7.569   9.178
 4434WAT     H113544   5.118   7.588   9.105
 4434WAT     H213545   5.165   7.629   9.256
 4435WAT      O13546   2.121   9.525   4.527
 4435WAT     H113547   2.021   9.528   4.527
 4435WAT     H213548   2.157   9.580   4.452
 4436WAT      O13549   8.435   8.917   7.860
 4436WAT     H113550   8.513   8.970   7.894
 4436WAT     H213551   8.411   8.847   7.927
 4437WAT      O13552   3.394   2.245   9.114
 4437WAT     H113553   3.384   2.279   9.020
 4437WAT     H213554   3.304   2.234   9.155
 4438WAT      O13555   2.549   6.232   6.893
 4438WAT     H113556   2.524   6.202   6.985
 4438WAT     H213557   2.469   6.232   6.834
 4439WAT      O13558   8.476   9.553   0.838
 4439WAT     H113559   8.496   9.630   0.777
 4439WAT     H213560   8.462   9.587   0.931
 4440WAT      O13561   4.690   1.130   4.702
 4440WAT     H113562   4.608   1.158   4.752
 4440WAT     H213563   4.725   1.045   4.741
 4441WAT      O13564   5.014   2.019   0.642
 4441WAT     H113565   5.088   1.962   0.678
 4441WAT     H213566   4.927   1.991   0.684
 4442WAT      O13567   8.255   1.645   4.663
 4442WAT     H113568   8.274   1.742   4.678
 4442WAT     H213569   8.338   1.600   4.629
 4443WAT      O13570   2.033   3.463   2.364
 4443WAT     H113571   1.953   3.517   2.338
 4443WAT     H213572   2.004   3.392   2.429
 4444WAT      O13573   5.010   8.562   6.874
 4444WAT     H113574   5.007   8.645   6.930
 4444WAT     H213575   4.928   8.508   6.890
 4445WAT      O13576   6.535   8.896   3.619
 4445WAT     H113577   6.574   8.945   3.697
 4445WAT     H213578   6.522   8.960   3.543
 4446WAT      O13579   3.994   9.622   4.265
 4446WAT     H113580   3.897   9.606   4.285
 4446WAT     H213581   4.044   9.629   4.351
 4447WAT      O13582   2.915   0.452   4.874
 4447WAT     H113583   2.853   0.503   4.815
 4447WAT     H213584   2.971   0.391   4.818
 4448WAT      O13585   2.553   4.836   6.346
 4448WAT     H113586   2.591   4.927   6.362
 4448WAT     H213587   2.490   4.813   6.419
 4449WAT      O13588   6.928   2.816   6.660
 4449WAT     H113589   6.925   2.908   6.621
 4449WAT     H213590   7.023   2.784   6.662
 4450WAT      O13591   2.619   5.607   1.899
 4450WAT     H113592   2.714   5.597   1.872
 4450WAT     H213593   2.562   5.543   1.847
 4451WAT      O13594   3.587   3.082   3.481
 4451WAT     H113595   3.542   3.128   3.557
 4451WAT     H213596   3.527   3.082   3.401
 4452WAT      O13597   5.124   4.120   8.549
 4452WAT     H113598   5.185   4.182   8.499
 4452WAT     H213599   5.173   4.081   8.627
 4453WAT      O13600   3.653   9.720   2.413
 4453WAT     H113601   3.694   9.659   2.345
 4453WAT     H213602   3.578   9.673   2.459
 4454WAT      O13603   9.763   4.635   8.946
 4454WAT     H113604   9.747   4.610   8.851
 4454WAT     H213605   9.688   4.601   9.003
 4455WAT      O13606   1.128   0.916   1.354
 4455WAT     H113607   1.078   0.982   1.410
 4455WAT     H213608   1.160   0.841   1.411
 4456WAT      O13609   9.009   1.919   0.202
 4456WAT     H113610   8.983   1.843   0.141
 4456WAT     H213611   9.064   1.884   0.278
 4457WAT      O13612   4.719   1.371   2.559
 4457WAT     H113613   4.753   1.440   2.495
 4457WAT     H213614   4.783   1.294   2.563
 4458WAT      O13615   2.124   7.598   0.421
 4458WAT     H113616   2.074   7.657   0.358
 4458WAT     H213617   2.202   7.556   0.374
 4459WAT      O13618   7.580   9.598   6.123
 4459WAT     H113619   7.661   9.641   6.084
 4459WAT     H213620   7.523   9.667   6.167
 4460WAT      O13621   0.087   6.046   8.738
 4460WAT     H113622   0.172   6.020   8.784
 4460WAT     H213623   0.069   6.143   8.752
 4461WAT      O13624   0.994   6.492   6.090
 4461WAT     H113625   0.954   6.418   6.037
 4461WAT     H213626   0.932   6.518   6.164
 4462WAT      O13627   4.079   0.340   2.395
 4462WAT     H113628   4.052   0.338   2.491
 4462WAT     H213629   4.167   0.294   2.383
 4463WAT      O13630   8.987   6.367   2.108
 4463WAT     H113631   9.014   6.380   2.204
 4463WAT     H213632   8.954   6.454   2.071
 4464WAT      O13633   4.548   5.788   8.722
 4464WAT     H113634   4.474   5.851   8.699
 4464WAT     H213635   4.522   5.734   8.802
 4465WAT      O13636   2.261   9.774   0.394
 4465WAT     H113637   2.326   9.811   0.461
 4465WAT     H213638   2.173   9.819   0.405
 4466WAT      O13639   0.344   5.341   5.440
 4466WAT     H113640   0.340   5.241   5.438
 4466WAT     H213641   0.391   5.374   5.358
 4467WAT      O13642   8.092   4.195   1.841
 4467WAT     H113643   8.117   4.290   1.858
 4467WAT     H213644   8.163   4.152   1.785
 4468WAT      O13645   5.077   4.215   2.227
 4468WAT     H113646   5.115   4.122   2.229
 4468WAT     H213647   5.057   4.241   2.132
 4469WAT      O13648   6.837   1.968   6.399
 4469WAT     H113649   6.901   1.964   6.476
 4469WAT     H213650   6.767   2.038   6.417
 4470WAT      O13651   3.877   3.716   4.542
 4470WAT     H113652   3.787   3.713   4.499
 4470WAT     H213653   3.868   3.740   4.639
 4471WAT      O13654   1.792   0.287   4.430
 4471WAT     H113655   1.758   0.342   4.354
 4471WAT     H213656   1.878   0.243   4.403
 4472WAT      O13657   1.835   2.386   3.307
 4472WAT     H113658   1.823   2.434   3.394
 4472WAT     H213659   1.896   2.439   3.248
 4473WAT      O13660   0.883   6.053   7.845
 4473WAT     H113661   0.837   6.142   7.838
 4473WAT     H213662   0.844   5.990   7.778
 4474WAT      O13663   1.619   0.678   4.026
 4474WAT     H113664   1.605   0.716   4.118
 4474WAT     H213665   1.544   0.615   4.005
 4475WAT      O13666   9.424   8.500   6.856
 4475WAT     H113667   9.459   8.593   6.861
 4475WAT     H213668   9.462   8.446   6.932
 4476WAT      O13669   0.198   9.057   1.074
 4476WAT     H113670   0.264   9.067   1.149
 4476WAT     H213671   0.210   9.133   1.010
 4477WAT      O13672   5.602   5.310   9.021
 4477WAT     H113673   5.594   5.234   9.085
 4477WAT     H213674   5.634   5.392   9.069
 4478WAT      O13675   4.049   9.248   5.786
 4478WAT     H113676   3.959   9.288   5.800
 4478WAT     H213677   4.112   9.283   5.856
 4479WAT      O13678   2.071   1.920   5.484
 4479WAT     H113679   2.070   1.908   5.583
 4479WAT     H213680   2.075   2.018   5.462
 4480WAT      O13681   3.950   5.777   1.920
 4480WAT     H113682   3.882   5.715   1.882
 4480WAT     H213683   4.030   5.725   1.950
 4481WAT      O13684   4.072   0.238   1.442
 4481WAT     H113685   4.031   0.265   1.354
 4481WAT     H213686   4.145   0.303   1.465
 4482WAT      O13687   2.358   7.092   3.312
 4482WAT     H113688   2.402   7.004   3.332
 4482WAT     H213689   2.345   7.143   3.397
 4483WAT      O13690   0.293   1.691   8.020
 4483WAT     H113691   0.333   1.649   8.101
 4483WAT     H213692   0.366   1.713   7.954
 4484WAT      O13693   4.785   0.729   3.074
 4484WAT     H113694   4.757   0.704   3.167
 4484WAT     H213695   4.715   0.789   3.034
 4485WAT      O13696   6.183   4.508   2.918
 4485WAT     H113697   6.246   4.444   2.874
 4485WAT     H213698   6.235   4.576   2.970
 4486WAT      O13699   6.414   7.661   5.293
 4486WAT     H113700   6.434   7.753   5.328
 4486WAT     H213701   6.475   7.595   5.335
 4487WAT      O13702   9.582   1.401   1.993
 4487WAT     H113703   9.576   1.349   2.078
 4487WAT     H213704   9.490   1.421   1.960
 4488WAT      O13705   9.168   7.584   9.157
 4488WAT     H113706   9.180   7.582   9.058
 4488WAT     H213707   9.078   7.546   9.181
 4489WAT      O13708   6.424   4.331   6.686
 4489WAT     H113709   6.368   4.249   6.670
 4489WAT     H213710   6.500   4.333   6.621
 4490WAT      O13711   6.180   2.750   0.006
 4490WAT     H113712   6.181   2.813  -0.071
 4490WAT     H213713   6.112   2.679  -0.009
 4491WAT      O13714   2.108   1.445   6.327
 4491WAT     H113715   2.022   1.428   6.376
 4491WAT     H213716   2.088   1.474   6.234
 4492WAT      O13717   0.111   1.468   2.380
 4492WAT     H113718   0.177   1.409   2.427
 4492WAT     H213719   0.133   1.471   2.282
 4493WAT      O13720   7.913   1.204   0.552
 4493WAT     H113721   7.831   1.154   0.525
 4493WAT     H213722   7.970   1.222   0.472
 4494WAT      O13723   5.589   4.233   3.626
 4494WAT     H113724   5.666   4.171   3.613
 4494WAT     H213725   5.503   4.182   3.615
 4495WAT      O13726   0.126   3.732   3.106
 4495WAT     H113727   0.082   3.674   3.038
 4495WAT     H213728   0.127   3.827   3.073
 4496WAT      O13729   4.075   2.796   1.114
 4496WAT     H113730   4.169   2.799   1.146
 4496WAT     H213731   4.039   2.889   1.106
 4497WAT      O13732   5.995   7.736   1.830
 4497WAT     H113733   6.069   7.680   1.866
 4497WAT     H213734   5.912   7.720   1.885
 4498WAT      O13735   3.831   8.017   6.536
 4498WAT     H113736   3.819   8.105   6.490
 4498WAT     H213737   3.853   7.947   6.469
 4499WAT      O13738   3.874   9.616   6.952
 4499WAT     H113739   3.950   9.679   6.937
 4499WAT     H213740   3.895   9.557   7.030
 4500WAT      O13741   9.681   4.683   4.268
 4500WAT     H113742   9.618   4.612   4.299
 4500WAT     H213743   9.680   4.759   4.333
 4501WAT      O13744   2.070   0.193   6.185
 4501WAT     H113745   2.053   0.239   6.098
 4501WAT     H213746   2.137   0.120   6.172
 4502WAT      O13747   2.372   5.087   4.540
 4502WAT     H113748   2.326   5.133   4.616
 4502WAT     H213749   2.447   5.143   4.507
 4503WAT      O13750   4.267   4.914   1.640
 4503WAT     H113751   4.244   4.833   1.694
 4503WAT     H213752   4.184   4.967   1.623
 4504WAT      O13753   6.398   3.465   2.257
 4504WAT     H113754   6.465   3.538   2.248
 4504WAT     H213755   6.445   3.378   2.276
 4505WAT      O13756   3.613   1.108   6.750
 4505WAT     H113757   3.643   1.196   6.786
 4505WAT     H213758   3.689   1.042   6.756
 4506WAT      O13759   2.472   3.919   4.771
 4506WAT     H113760   2.443   3.996   4.716
 4506WAT     H213761   2.572   3.911   4.767
 4507WAT      O13762   2.340   0.552   1.733
 4507WAT     H113763   2.284   0.508   1.804
 4507WAT     H213764   2.300   0.535   1.643
 4508WAT      O13765   8.220   5.847   3.021
 4508WAT     H113766   8.163   5.850   2.939
 4508WAT     H213767   8.285   5.923   3.021
 4509WAT      O13768   5.725   4.466   4.868
 4509WAT     H113769   5.804   4.413   4.899
 4509WAT     H213770   5.699   4.436   4.776
 4510WAT      O13771   6.245   2.988   6.378
 4510WAT     H113772   6.263   3.070   6.432
 4510WAT     H213773   6.260   3.008   6.281
 4511WAT      O13774   6.979   9.664   7.238
 4511WAT     H113775   6.915   9.710   7.177
 4511WAT     H213776   6.984   9.567   7.213
 4512WAT      O13777   2.083   5.559   7.483
 4512WAT     H113778   2.048   5.472   7.449
 4512WAT     H213779   2.168   5.582   7.435
 4513WAT      O13780   0.878   5.743   0.066
 4513WAT     H113781   0.855   5.649   0.091
 4513WAT     H213782   0.902   5.746  -0.031
 4514WAT      O13783   2.537   0.591   6.705
 4514WAT     H113784   2.523   0.495   6.680
 4514WAT     H213785   2.616   0.600   6.765
 4515WAT      O13786   7.669   0.387   8.048
 4515WAT     H113787   7.592   0.339   8.006
 4515WAT     H213788   7.650   0.402   8.145
 4516WAT      O13789   1.820   0.537   0.001
 4516WAT     H113790   1.740   0.569  -0.051
 4516WAT     H213791   1.793   0.463   0.062
 4517WAT      O13792   2.999   3.337   9.640
 4517WAT     H113793   3.093   3.309   9.657
 4517WAT     H213794   2.941   3.309   9.717
 4518WAT      O13795   0.157   3.931   1.148
 4518WAT     H113796   0.232   3.976   1.099
 4518WAT     H213797   0.109   3.869   1.085
 4519WAT      O13798   3.385   4.824   2.453
 4519WAT     H113799   3.418   4.741   2.498
 4519WAT     H213800   3.290   4.840   2.479
 4520WAT      O13801   2.278   2.216   0.668
 4520WAT     H113802   2.369   2.191   0.637
 4520WAT     H213803   2.264   2.183   0.762
 4521WAT      O13804   8.363   7.126   1.281
 4521WAT     H113805   8.363   7.045   1.340
 4521WAT     H213806   8.439   7.121   1.217
 4522WAT      O13807   0.799   5.987   1.488
 4522WAT     H113808   0.860   5.969   1.411
 4522WAT     H213809   0.731   6.055   1.461
 4523WAT      O13810   3.165   1.462   0.375
 4523WAT     H113811   3.098   1.423   0.438
 4523WAT     H213812   3.120   1.527   0.314
 4524WAT      O13813   5.616   8.445   4.104
 4524WAT     H113814   5.646   8.532   4.067
 4524WAT     H213815   5.522   8.427   4.074
 4525WAT      O13816   6.470   1.149   4.672
 4525WAT     H113817   6.568   1.136   4.685
 4525WAT     H213818   6.422   1.122   4.756
 4526WAT      O13819   1.757   3.285   3.529
 4526WAT     H113820   1.723   3.358   3.470
 4526WAT     H213821   1.721   3.197   3.497
 4527WAT      O13822   2.657   7.046   7.830
 4527WAT     H113823   2.622   6.993   7.753
 4527WAT     H213824   2.757   7.044   7.829
 4528WAT      O13825   2.849   6.012   9.577
 4528WAT     H113826   2.814   6.062   9.656
 4528WAT     H213827   2.938   6.049   9.550
 4529WAT      O13828   9.553   1.286   9.697
 4529WAT     H113829   9.564   1.358   9.765
 4529WAT     H213830   9.546   1.197   9.743
 4530WAT      O13831   9.624   0.440   9.086
 4530WAT     H113832   9.724   0.450   9.083
 4530WAT     H213833   9.585   0.467   8.998
 4531WAT      O13834   5.574   0.515   0.010
 4531WAT     H113835   5.524   0.542  -0.072
 4531WAT     H213836   5.650   0.578   0.025
 4532WAT      O13837   2.555   6.812   4.698
 4532WAT     H113838   2.591   6.905   4.697
 4532WAT     H213839   2.559   6.775   4.790
 4533WAT      O13840   3.190   7.505   3.083
 4533WAT     H113841   3.159   7.524   3.176
 4533WAT     H213842   3.112   7.502   3.022
 4534WAT      O13843   3.484   6.827   8.603
 4534WAT     H113844   3.485   6.921   8.636
 4534WAT     H213845   3.463   6.826   8.505
 4535WAT      O13846   1.009   1.732   7.844
 4535WAT     H113847   1.094   1.753   7.891
 4535WAT     H213848   0.948   1.682   7.906
 4536WAT      O13849   8.492   4.203   2.335
 4536WAT     H113850   8.420   4.235   2.396
 4536WAT     H213851   8.509   4.272   2.265
 4537WAT      O13852   9.742   9.641   8.785
 4537WAT     H113853   9.792   9.567   8.740
 4537WAT     H213854   9.783   9.729   8.760
 4538WAT      O13855   9.215   3.496   2.830
 4538WAT     H113856   9.222   3.549   2.915
 4538WAT     H213857   9.272   3.415   2.836
 4539WAT      O13858   7.265   7.908   2.696
 4539WAT     H113859   7.204   7.834   2.668
 4539WAT     H213860   7.351   7.870   2.729
 4540WAT      O13861   9.434   2.318   1.819
 4540WAT     H113862   9.367   2.330   1.892
 4540WAT     H213863   9.474   2.227   1.825
 4541WAT      O13864   2.285   2.763   2.197
 4541WAT     H113865   2.284   2.835   2.267
 4541WAT     H213866   2.231   2.685   2.229
 4542WAT      O13867   5.551   6.597   4.749
 4542WAT     H113868   5.649   6.611   4.736
 4542WAT     H213869   5.536   6.554   4.838
 4543WAT      O13870   7.020   4.779   2.233
 4543WAT     H113871   6.932   4.733   2.244
 4543WAT     H213872   7.052   4.768   2.139
 4544WAT      O13873   3.563   7.537   8.420
 4544WAT     H113874   3.557   7.487   8.506
 4544WAT     H213875   3.658   7.550   8.395
 4545WAT      O13876   9.043   7.971   9.293
 4545WAT     H113877   9.060   8.057   9.244
 4545WAT     H213878   8.979   7.989   9.368
 4546WAT      O13879   8.776   3.031   5.042
 4546WAT     H113880   8.736   3.026   5.134
 4546WAT     H213881   8.861   3.083   5.046
 4547WAT      O13882   0.031   3.868   1.922
 4547WAT     H113883  -0.047   3.855   1.860
 4547WAT     H213884   0.046   3.784   1.974
 4548WAT      O13885   0.103   7.290   5.011
 4548WAT     H113886   0.099   7.196   4.977
 4548WAT     H213887   0.164   7.295   5.090
 4549WAT      O13888   3.541   3.287   2.117
 4549WAT     H113889   3.630   3.253   2.088
 4549WAT     H213890   3.469   3.232   2.074
 4550WAT      O13891   6.948   7.275   3.506
 4550WAT     H113892   6.958   7.226   3.419
 4550WAT     H213893   6.904   7.215   3.573
 4551WAT      O13894   5.820   3.987   4.326
 4551WAT     H113895   5.881   3.952   4.397
 4551WAT     H213896   5.819   3.924   4.249
 4552WAT      O13897   1.767   5.502   3.863
 4552WAT     H113898   1.744   5.599   3.875
 4552WAT     H213899   1.718   5.448   3.930
 4553WAT      O13900   2.290   3.860   0.937
 4553WAT     H113901   2.289   3.843   0.839
 4553WAT     H213902   2.263   3.955   0.955
 4554WAT      O13903   4.316   0.266   9.807
 4554WAT     H113904   4.385   0.337   9.795
 4554WAT     H213905   4.251   0.294   9.877
 4555WAT      O13906   6.257   6.126   9.032
 4555WAT     H113907   6.161   6.133   9.005
 4555WAT     H213908   6.264   6.077   9.119
 4556WAT      O13909   3.805   2.388   7.166
 4556WAT     H113910   3.750   2.471   7.162
 4556WAT     H213911   3.760   2.316   7.113
 4557WAT      O13912   2.423   0.410   0.280
 4557WAT     H113913   2.363   0.447   0.351
 4557WAT     H213914   2.440   0.313   0.298
 4558WAT      O13915   8.912   0.336   7.698
 4558WAT     H113916   8.823   0.339   7.653
 4558WAT     H213917   8.974   0.277   7.646
 4559WAT      O13918   3.647   5.350   8.463
 4559WAT     H113919   3.728   5.377   8.514
 4559WAT     H213920   3.620   5.257   8.491
 4560WAT      O13921   6.747   7.329   7.779
 4560WAT     H113922   6.770   7.405   7.718
 4560WAT     H213923   6.754   7.243   7.729
 4561WAT      O13924   9.372   1.801   1.933
 4561WAT     H113925   9.386   1.803   2.032
 4561WAT     H213926   9.410   1.884   1.892
 4562WAT      O13927   0.818   2.792   6.838
 4562WAT     H113928   0.749   2.720   6.839
 4562WAT     H213929   0.775   2.880   6.820
 4563WAT      O13930   0.611   2.626   6.810
 4563WAT     H113931   0.524   2.656   6.770
 4563WAT     H213932   0.596   2.594   6.903
 4564WAT      O13933   0.195   2.477   3.000
 4564WAT     H113934   0.097   2.458   2.990
 4564WAT     H213935   0.210   2.525   3.087
 4565WAT      O13936   4.560   2.866   5.038
 4565WAT     H113937   4.601   2.781   5.003
 4565WAT     H213938   4.610   2.944   5.002
 4566WAT      O13939   1.394   0.978   7.552
 4566WAT     H113940   1.447   1.023   7.624
 4566WAT     H213941   1.327   0.917   7.594
 4567WAT      O13942   6.949   2.801   1.444
 4567WAT     H113943   7.023   2.772   1.383
 4567WAT     H213944   6.925   2.726   1.506
 4568WAT      O13945   3.464   1.135   1.265
 4568WAT     H113946   3.452   1.037   1.248
 4568WAT     H213947   3.555   1.152   1.302
 4569WAT      O13948   5.827   6.941   6.275
 4569WAT     H113949   5.819   6.967   6.178
 4569WAT     H213950   5.790   6.849   6.288
 4570WAT      O13951   1.149   4.355   6.417
 4570WAT     H113952   1.213   4.387   6.488
 4570WAT     H213953   1.200   4.329   6.336
 4571WAT      O13954   5.754   3.984   1.711
 4571WAT     H113955   5.709   3.902   1.746
 4571WAT     H213956   5.685   4.050   1.683
 4572WAT      O13957   6.623   3.933   3.757
 4572WAT     H113958   6.651   3.897   3.668
 4572WAT     H213959   6.523   3.929   3.765
 4573WAT      O13960   9.571   7.925   3.474
 4573WAT     H113961   9.594   7.859   3.546
 4573WAT     H213962   9.572   8.017   3.512
 4574WAT      O13963   5.303   1.597   5.944
 4574WAT     H113964   5.370   1.628   6.012
 4574WAT     H213965   5.341   1.522   5.891
 4575WAT      O13966   8.633   8.108   8.329
 4575WAT     H113967   8.639   8.066   8.419
 4575WAT     H213968   8.561   8.178   8.329
 4576WAT      O13969   8.703   3.402   7.041
 4576WAT     H113970   8.714   3.307   7.012
 4576WAT     H213971   8.778   3.428   7.101
 4577WAT      O13972   7.712   6.958   0.479
 4577WAT     H113973   7.725   6.864   0.446
 4577WAT     H213974   7.616   6.973   0.500
 4578WAT      O13975   4.690   2.856   4.047
 4578WAT     H113976   4.675   2.932   3.985
 4578WAT     H213977   4.616   2.789   4.037
 4579WAT      O13978   4.082   5.688   9.223
 4579WAT     H113979   4.103   5.612   9.162
 4579WAT     H213980   4.141   5.682   9.304
 4580WAT      O13981   6.005   7.606   3.892
 4580WAT     H113982   5.911   7.597   3.859
 4580WAT     H213983   6.028   7.527   3.949
 4581WAT      O13984   2.577   8.089   1.799
 4581WAT     H113985   2.493   8.125   1.839
 4581WAT     H213986   2.562   7.994   1.770
 4582WAT      O13987   5.506   5.406   8.738
 4582WAT     H113988   5.512   5.368   8.830
 4582WAT     H213989   5.546   5.497   8.736
 4583WAT      O13990   0.985   4.934   7.745
 4583WAT     H113991   0.978   4.970   7.652
 4583WAT     H213992   0.895   4.938   7.789
 4584WAT      O13993   1.426   1.799   3.387
 4584WAT     H113994   1.405   1.759   3.476
 4584WAT     H213995   1.523   1.824   3.383
 4585WAT      O13996   2.568   0.350   2.787
 4585WAT     H113997   2.506   0.386   2.716
 4585WAT     H213998   2.518   0.288   2.846
 4586WAT      O13999   9.594   4.168   1.547
 4586WAT     H114000   9.670   4.180   1.612
 4586WAT     H214001   9.622   4.200   1.457
 4587WAT      O14002   9.028   7.986   3.275
 4587WAT     H114003   8.952   7.944   3.326
 4587WAT     H214004   9.106   7.998   3.336
 4588WAT      O14005   2.162   4.703   2.500
 4588WAT     H114006   2.168   4.609   2.467
 4588WAT     H214007   2.254   4.741   2.510
 4589WAT      O14008   7.330   6.393   4.585
 4589WAT     H114009   7.276   6.410   4.502
 4589WAT     H214010   7.375   6.304   4.577
 4590WAT      O14011   3.841   8.573   6.966
 4590WAT     H114012   3.869   8.481   6.992
 4590WAT     H214013   3.746   8.588   6.993
 4591WAT      O14014   1.949   8.811   8.048
 4591WAT     H114015   1.935   8.850   7.957
 4591WAT     H214016   1.952   8.712   8.041
 4592WAT      O14017   6.005   9.097   0.910
 4592WAT     H114018   5.940   9.108   0.834
 4592WAT     H214019   6.087   9.151   0.891
 4593WAT      O14020   6.127   4.626   5.631
 4593WAT     H114021   6.146   4.701   5.568
 4593WAT     H214022   6.199   4.622   5.701
 4594WAT      O14023   5.585   9.105   4.614
 4594WAT     H114024   5.644   9.045   4.667
 4594WAT     H214025   5.638   9.184   4.582
 4595WAT      O14026   4.569   1.107   3.250
 4595WAT     H114027   4.469   1.095   3.247
 4595WAT     H214028   4.597   1.167   3.175
 4596WAT      O14029   5.600   1.694   7.564
 4596WAT     H114030   5.617   1.735   7.653
 4596WAT     H214031   5.641   1.749   7.492
 4597WAT      O14032   2.367   6.861   0.649
 4597WAT     H114033   2.375   6.904   0.559
 4597WAT     H214034   2.458   6.832   0.679
 4598WAT      O14035   4.887   7.164   4.192
 4598WAT     H114036   4.812   7.098   4.192
 4598WAT     H214037   4.926   7.171   4.284
 4599WAT      O14038   7.309   9.803   5.857
 4599WAT     H114039   7.350   9.853   5.933
 4599WAT     H214040   7.343   9.709   5.857
 4600WAT      O14041   1.569   6.488   3.077
 4600WAT     H114042   1.522   6.527   2.998
 4600WAT     H214043   1.503   6.473   3.150
 4601WAT      O14044   0.313   7.532   3.067
 4601WAT     H114045   0.384   7.476   3.024
 4601WAT     H214046   0.260   7.578   2.996
 4602WAT      O14047   8.921   6.400   0.275
 4602WAT     H114048   9.008   6.351   0.273
 4602WAT     H214049   8.877   6.394   0.186
 4603WAT      O14050   3.082   6.936   5.644
 4603WAT     H114051   3.008   6.999   5.668
 4603WAT     H214052   3.055   6.882   5.564
 4604WAT      O14053   1.887   6.611   8.148
 4604WAT     H114054   1.927   6.693   8.189
 4604WAT     H214055   1.814   6.638   8.085
 4605WAT      O14056   1.425   5.274   1.956
 4605WAT     H114057   1.423   5.174   1.955
 4605WAT     H214058   1.339   5.310   1.921
 4606WAT      O14059   0.955   3.568   5.329
 4606WAT     H114060   1.030   3.601   5.387
 4606WAT     H214061   0.987   3.491   5.274
 4607WAT      O14062   3.714   9.059   7.097
 4607WAT     H114063   3.736   9.123   7.024
 4607WAT     H214064   3.779   8.983   7.096
 4608WAT      O14065   5.666   8.567   9.152
 4608WAT     H114066   5.669   8.641   9.085
 4608WAT     H214067   5.608   8.594   9.229
 4609WAT      O14068   3.397   1.984   3.512
 4609WAT     H114069   3.442   2.066   3.548
 4609WAT     H214070   3.457   1.905   3.523
 4610WAT      O14071   6.001   9.489   5.654
 4610WAT     H114072   6.008   9.493   5.554
 4610WAT     H214073   5.949   9.567   5.687
 4611WAT      O14074   0.206   0.246   8.052
 4611WAT     H114075   0.193   0.342   8.031
 4611WAT     H214076   0.148   0.190   7.993
 4612WAT      O14077   9.796   5.604   0.450
 4612WAT     H114078   9.893   5.618   0.434
 4612WAT     H214079   9.757   5.685   0.494
 4613WAT      O14080   6.165   9.418   6.112
 4613WAT     H114081   6.097   9.466   6.057
 4613WAT     H214082   6.237   9.482   6.140
 4614WAT      O14083   4.616   6.207   0.066
 4614WAT     H114084   4.549   6.176  -0.001
 4614WAT     H214085   4.676   6.275   0.025
 4615WAT      O14086   0.004   9.003   3.639
 4615WAT     H114087  -0.093   8.994   3.615
 4615WAT     H214088   0.045   9.078   3.586
 4616WAT      O14089   9.683   7.080   4.809
 4616WAT     H114090   9.666   7.009   4.877
 4616WAT     H214091   9.620   7.068   4.732
 4617WAT      O14092   7.288   0.043   7.315
 4617WAT     H114093   7.280  -0.050   7.350
 4617WAT     H214094   7.288   0.107   7.391
 4618WAT      O14095   8.981   5.911   5.288
 4618WAT     H114096   8.976   5.937   5.191
 4618WAT     H214097   9.073   5.931   5.323
 4619WAT      O14098   4.130   1.044   1.486
 4619WAT     H114099   4.047   1.027   1.538
 4619WAT     H214100   4.202   1.077   1.547
 4620WAT      O14101   0.837   4.397   3.488
 4620WAT     H114102   0.836   4.465   3.416
 4620WAT     H214103   0.892   4.430   3.565
 4621WAT      O14104   4.943   2.814   2.959
 4621WAT     H114105   4.967   2.768   2.874
 4621WAT     H214106   4.854   2.858   2.949
 4622WAT      O14107   2.984   2.441   8.091
 4622WAT     H114108   2.891   2.473   8.108
 4622WAT     H214109   2.985   2.383   8.009
 4623WAT      O14110   4.459   3.448   9.106
 4623WAT     H114111   4.549   3.404   9.104
 4623WAT     H214112   4.412   3.424   9.191
 4624WAT      O14113   6.035   9.477   0.623
 4624WAT     H114114   6.067   9.562   0.665
 4624WAT     H214115   6.054   9.401   0.685
 4625WAT      O14116   7.086   1.127   3.335
 4625WAT     H114117   7.111   1.062   3.406
 4625WAT     H214118   7.169   1.166   3.295
 4626WAT      O14119   7.278   1.894   4.666
 4626WAT     H114120   7.315   1.900   4.759
 4626WAT     H214121   7.181   1.917   4.667
 4627WAT      O14122   5.129   7.644   6.098
 4627WAT     H114123   5.186   7.685   6.169
 4627WAT     H214124   5.164   7.552   6.078
 4628WAT      O14125   5.347   8.478   6.349
 4628WAT     H114126   5.307   8.387   6.348
 4628WAT     H214127   5.447   8.471   6.343
 4629WAT      O14128   7.653   8.838   5.645
 4629WAT     H114129   7.665   8.782   5.727
 4629WAT     H214130   7.668   8.782   5.564
 4630WAT      O14131   2.258   7.053   6.936
 4630WAT     H114132   2.309   7.133   6.969
 4630WAT     H214133   2.320   6.975   6.929
 4631WAT      O14134   1.712   9.819   9.547
 4631WAT     H114135   1.647   9.847   9.476
 4631WAT     H214136   1.661   9.798   9.631
 4632WAT      O14137   6.183   6.825   6.315
 4632WAT     H114138   6.251   6.752   6.313
 4632WAT     H214139   6.190   6.874   6.402
 4633WAT      O14140   1.911   4.514   0.929
 4633WAT     H114141   1.941   4.600   0.889
 4633WAT     H214142   1.863   4.532   1.015
 4634WAT      O14143   6.184   3.426   9.770
 4634WAT     H114144   6.115   3.382   9.714
 4634WAT     H214145   6.208   3.515   9.730
 4635WAT      O14146   1.836   3.786   7.819
 4635WAT     H114147   1.881   3.775   7.730
 4635WAT     H214148   1.858   3.876   7.857
 4636WAT      O14149   8.493   7.865   8.157
 4636WAT     H114150   8.454   7.914   8.080
 4636WAT     H214151   8.572   7.916   8.193
 4637WAT      O14152   5.933   0.153   6.318
 4637WAT     H114153   6.020   0.143   6.271
 4637WAT     H214154   5.866   0.195   6.256
 4638WAT      O14155   9.612   5.173   8.278
 4638WAT     H114156   9.603   5.259   8.328
 4638WAT     H214157   9.705   5.137   8.288
 4639WAT      O14158   9.719   4.201   9.801
 4639WAT     H114159   9.690   4.111   9.770
 4639WAT     H214160   9.639   4.258   9.817
 4640WAT      O14161   1.652   8.680   0.701
 4640WAT     H114162   1.680   8.697   0.795
 4640WAT     H214163   1.715   8.614   0.659
 4641WAT      O14164   0.496   3.163   5.898
 4641WAT     H114165   0.577   3.221   5.902
 4641WAT     H214166   0.498   3.097   5.973
 4642WAT      O14167   8.428   5.083   4.038
 4642WAT     H114168   8.347   5.037   4.002
 4642WAT     H214169   8.508   5.024   4.026
 4643WAT      O14170   5.240   3.899   7.424
 4643WAT     H114171   5.197   3.984   7.393
 4643WAT     H214172   5.202   3.822   7.374
 4644WAT      O14173   5.168   9.831   4.683
 4644WAT     H114174   5.076   9.807   4.714
 4644WAT     H214175   5.181   9.930   4.691
 4645WAT      O14176   3.647   4.613   5.196
 4645WAT     H114177   3.744   4.631   5.210
 4645WAT     H214178   3.611   4.677   5.128
 4646WAT      O14179   3.247   8.942   5.673
 4646WAT     H114180   3.288   9.032   5.658
 4646WAT     H214181   3.206   8.939   5.764
 4647WAT      O14182   1.058   8.255   6.724
 4647WAT     H114183   1.097   8.333   6.774
 4647WAT     H214184   1.021   8.288   6.637
 4648WAT      O14185   0.825   7.407   4.161
 4648WAT     H114186   0.891   7.471   4.200
 4648WAT     H214187   0.841   7.398   4.063
 4649WAT      O14188   3.136   0.093   7.180
 4649WAT     H114189   3.195   0.091   7.100
 4649WAT     H214190   3.045   0.060   7.156
 4650WAT      O14191   1.381   6.815   5.852
 4650WAT     H114192   1.360   6.900   5.900
 4650WAT     H214193   1.394   6.741   5.918
 4651WAT      O14194   8.726   5.301   4.570
 4651WAT     H114195   8.728   5.303   4.670
 4651WAT     H214196   8.718   5.394   4.535
 4652WAT      O14197   6.739   8.601   1.606
 4652WAT     H114198   6.713   8.512   1.569
 4652WAT     H214199   6.688   8.673   1.558
 4653WAT      O14200   9.760   5.017   7.460
 4653WAT     H114201   9.853   4.982   7.474
 4653WAT     H214202   9.764   5.103   7.410
 4654WAT      O14203   8.480   2.146   3.386
 4654WAT     H114204   8.381   2.154   3.394
 4654WAT     H214205   8.505   2.135   3.290
 4655WAT      O14206   4.291   1.122   4.898
 4655WAT     H114207   4.360   1.194   4.892
 4655WAT     H214208   4.271   1.102   4.994
 4656WAT      O14209   2.613   1.865   4.863
 4656WAT     H114210   2.563   1.803   4.922
 4656WAT     H214211   2.638   1.818   4.778
 4657WAT      O14212   1.975   8.243   6.806
 4657WAT     H114213   1.941   8.195   6.725
 4657WAT     H214214   1.954   8.340   6.799
 4658WAT      O14215   9.654   1.755   6.249
 4658WAT     H114216   9.554   1.757   6.241
 4658WAT     H214217   9.693   1.714   6.166
 4659WAT      O14218   4.012   4.813   3.065
 4659WAT     H114219   4.054   4.869   3.136
 4659WAT     H214220   4.083   4.765   3.014
 4660WAT      O14221   5.287   2.061   2.705
 4660WAT     H114222   5.216   2.130   2.723
 4660WAT     H214223   5.260   1.974   2.747
 4661WAT      O14224   3.234   3.650   2.834
 4661WAT     H114225   3.278   3.661   2.744
 4661WAT     H214226   3.305   3.645   2.904
 4662WAT      O14227   6.690   4.977   9.325
 4662WAT     H114228   6.645   4.888   9.334
 4662WAT     H214229   6.750   4.976   9.246
 4663WAT      O14230   0.572   4.642   0.729
 4663WAT     H114231   0.628   4.563   0.704
 4663WAT     H214232   0.629   4.724   0.732
 4664WAT      O14233   5.063   3.153   3.932
 4664WAT     H114234   4.994   3.137   3.861
 4664WAT     H214235   5.062   3.249   3.959
 4665WAT      O14236   4.481   7.662   2.387
 4665WAT     H114237   4.529   7.739   2.428
 4665WAT     H214238   4.455   7.685   2.293
 4666WAT      O14239   4.884   6.278   6.905
 4666WAT     H114240   4.930   6.259   6.992
 4666WAT     H214241   4.842   6.194   6.870
 4667WAT      O14242   9.317   0.774   7.812
 4667WAT     H114243   9.241   0.731   7.860
 4667WAT     H214244   9.357   0.709   7.747
 4668WAT      O14245   5.252   0.163   1.566
 4668WAT     H114246   5.280   0.250   1.608
 4668WAT     H214247   5.168   0.178   1.514
 4669WAT      O14248   4.108   6.105   5.484
 4669WAT     H114249   4.131   6.082   5.578
 4669WAT     H214250   4.159   6.045   5.421
 4670WAT      O14251   4.154   7.375   7.928
 4670WAT     H114252   4.184   7.328   7.845
 4670WAT     H214253   4.192   7.467   7.930
 4671WAT      O14254   6.493   8.355   8.534
 4671WAT     H114255   6.488   8.363   8.634
 4671WAT     H214256   6.401   8.337   8.498
 4672WAT      O14257   6.633   5.567   5.099
 4672WAT     H114258   6.550   5.622   5.104
 4672WAT     H214259   6.638   5.507   5.179
 4673WAT      O14260   6.320   5.590   0.301
 4673WAT     H114261   6.346   5.495   0.287
 4673WAT     H214262   6.227   5.605   0.266
 4674WAT      O14263   4.478   9.080   8.850
 4674WAT     H114264   4.521   9.160   8.891
 4674WAT     H214265   4.512   8.997   8.896
 4675WAT      O14266   1.217   2.846   7.180
 4675WAT     H114267   1.291   2.873   7.242
 4675WAT     H214268   1.256   2.804   7.098
 4676WAT      O14269   7.224   0.141   8.091
 4676WAT     H114270   7.289   0.189   8.032
 4676WAT     H214271   7.226   0.181   8.183
 4677WAT      O14272   9.568   5.503   4.883
 4677WAT     H114273   9.526   5.534   4.968
 4677WAT     H214274   9.594   5.406   4.892
 4678WAT      O14275   6.929   7.454   9.346
 4678WAT     H114276   6.973   7.365   9.354
 4678WAT     H214277   6.917   7.478   9.250
 4679WAT      O14278   5.814   1.543   0.743
 4679WAT     H114279   5.725   1.574   0.774
 4679WAT     H214280   5.831   1.577   0.650
 4680WAT      O14281   7.907   4.457   1.606
 4680WAT     H114282   7.830   4.515   1.632
 4680WAT     H214283   7.989   4.486   1.656
 4681WAT      O14284   3.843   5.132   0.151
 4681WAT     H114285   3.830   5.057   0.216
 4681WAT     H214286   3.908   5.103   0.080
 4682WAT      O14287   0.409   5.552   6.725
 4682WAT     H114288   0.451   5.486   6.663
 4682WAT     H214289   0.455   5.549   6.813
 4683WAT      O14290   1.960   1.202   9.410
 4683WAT     H114291   1.877   1.180   9.461
 4683WAT     H214292   2.030   1.133   9.428
 4684WAT      O14293   3.165   1.557   8.216
 4684WAT     H114294   3.185   1.649   8.182
 4684WAT     H214295   3.245   1.499   8.205
 4685WAT      O14296   2.922   7.826   3.988
 4685WAT     H114297   3.000   7.858   4.042
 4685WAT     H214298   2.945   7.831   3.891
 4686WAT      O14299   1.352   0.303   3.729
 4686WAT     H114300   1.348   0.206   3.753
 4686WAT     H214301   1.259   0.338   3.715
 4687WAT      O14302   8.021   9.064   9.166
 4687WAT     H114303   7.953   9.089   9.235
 4687WAT     H214304   8.070   9.145   9.136
 4688WAT      O14305   4.014   7.305   5.547
 4688WAT     H114306   3.919   7.293   5.518
 4688WAT     H214307   4.075   7.255   5.485
 4689WAT      O14308   3.454   4.569   9.089
 4689WAT     H114309   3.515   4.498   9.054
 4689WAT     H214310   3.363   4.530   9.104
 4690WAT      O14311   0.693   8.240   4.755
 4690WAT     H114312   0.712   8.259   4.852
 4690WAT     H214313   0.635   8.312   4.718
 4691WAT      O14314   5.938   3.154   7.584
 4691WAT     H114315   5.863   3.094   7.556
 4691WAT     H214316   5.950   3.148   7.683
 4692WAT      O14317   3.236   0.584   8.671
 4692WAT     H114318   3.283   0.641   8.738
 4692WAT     H214319   3.139   0.575   8.697
 4693WAT      O14320   0.822   9.634   0.288
 4693WAT     H114321   0.753   9.698   0.323
 4693WAT     H214322   0.786   9.541   0.293
 4694WAT      O14323   6.365   3.537   7.101
 4694WAT     H114324   6.293   3.602   7.078
 4694WAT     H214325   6.325   3.456   7.143
 4695WAT      O14326   7.665   8.786   2.803
 4695WAT     H114327   7.657   8.871   2.854
 4695WAT     H214328   7.702   8.805   2.712
 4696WAT      O14329   2.240   9.666   5.103
 4696WAT     H114330   2.225   9.592   5.169
 4696WAT     H214331   2.288   9.741   5.148
 4697WAT      O14332   3.589   7.910   1.937
 4697WAT     H114333   3.633   7.925   2.026
 4697WAT     H214334   3.603   7.815   1.909
 4698WAT      O14335   9.789   5.573   0.016
 4698WAT     H114336   9.716   5.553   0.081
 4698WAT     H214337   9.878   5.561   0.062
 4699WAT      O14338   5.184   7.335   7.421
 4699WAT     H114339   5.090   7.364   7.440
 4699WAT     H214340   5.220   7.388   7.344
 4700WAT      O14341   5.760   3.346   5.268
 4700WAT     H114342   5.818   3.274   5.230
 4700WAT     H214343   5.712   3.311   5.348
 4701WAT      O14344   2.152   0.548   4.495
 4701WAT     H114345   2.176   0.631   4.444
 4701WAT     H214346   2.129   0.573   4.589
 4702WAT      O14347   4.197   7.785   5.803
 4702WAT     H114348   4.154   7.873   5.819
 4702WAT     H214349   4.295   7.791   5.825
 4703WAT      O14350   7.598   0.081   9.097
 4703WAT     H114351   7.662   0.097   9.172
 4703WAT     H214352   7.649   0.065   9.013
 4704WAT      O14353   4.024   3.479   1.557
 4704WAT     H114354   4.117   3.507   1.535
 4704WAT     H214355   4.008   3.386   1.523
 4705WAT      O14356   1.699   3.859   5.955
 4705WAT     H114357   1.712   3.836   5.859
 4705WAT     H214358   1.724   3.955   5.971
 4706WAT      O14359   0.979   9.337   4.653
 4706WAT     H114360   1.013   9.386   4.733
 4706WAT     H214361   1.049   9.274   4.620
 4707WAT      O14362   0.688   8.921   0.564
 4707WAT     H114363   0.744   9.001   0.545
 4707WAT     H214364   0.747   8.847   0.598
 4708WAT      O14365   2.292   9.774   1.762
 4708WAT     H114366   2.387   9.742   1.761
 4708WAT     H214367   2.255   9.764   1.855
 4709WAT      O14368   5.164   3.104   4.280
 4709WAT     H114369   5.166   3.004   4.273
 4709WAT     H214370   5.069   3.135   4.276
 4710WAT      O14371   0.984   6.692   7.433
 4710WAT     H114372   0.898   6.684   7.484
 4710WAT     H214373   0.978   6.640   7.348
 4711WAT      O14374   0.321   0.893   7.723
 4711WAT     H114375   0.332   0.796   7.744
 4711WAT     H214376   0.229   0.910   7.689
 4712WAT      O14377   4.260   1.760   3.582
 4712WAT     H114378   4.245   1.839   3.642
 4712WAT     H214379   4.330   1.701   3.622
 4713WAT      O14380   0.281   3.434   9.060
 4713WAT     H114381   0.334   3.379   9.125
 4713WAT     H214382   0.191   3.453   9.098
 4714WAT      O14383   8.575   8.347   1.795
 4714WAT     H114384   8.581   8.349   1.895
 4714WAT     H214385   8.660   8.308   1.758
 4715WAT      O14386   0.143   8.970   9.132
 4715WAT     H114387   0.209   8.919   9.188
 4715WAT     H214388   0.080   8.906   9.088
 4716WAT      O14389   6.030   3.964   9.101
 4716WAT     H114390   5.964   3.908   9.151
 4716WAT     H214391   5.989   3.994   9.015
 4717WAT      O14392   9.399   4.721   3.694
 4717WAT     H114393   9.451   4.672   3.765
 4717WAT     H214394   9.462   4.773   3.637
 4718WAT      O14395   9.829   5.924   4.193
 4718WAT     H114396   9.831   5.964   4.101
 4718WAT     H214397   9.824   5.824   4.185
 4719WAT      O14398   2.400   5.218   3.732
 4719WAT     H114399   2.377   5.260   3.819
 4719WAT     H214400   2.345   5.136   3.719
 4720WAT      O14401   5.485   1.128   0.231
 4720WAT     H114402   5.417   1.174   0.173
 4720WAT     H214403   5.496   1.179   0.316
 4721WAT      O14404   3.634   2.337   7.847
 4721WAT     H114405   3.597   2.429   7.851
 4721WAT     H214406   3.690   2.326   7.766
 4722WAT      O14407   3.335   3.352   7.203
 4722WAT     H114408   3.383   3.270   7.170
 4722WAT     H214409   3.241   3.328   7.227
 4723WAT      O14410   7.969   1.111   5.351
 4723WAT     H114411   7.954   1.078   5.258
 4723WAT     H214412   7.914   1.057   5.415
 4724WAT      O14413   4.701   8.262   7.152
 4724WAT     H114414   4.609   8.225   7.166
 4724WAT     H214415   4.768   8.188   7.158
 4725WAT      O14416   8.549   9.192   7.029
 4725WAT     H114417   8.526   9.287   7.047
 4725WAT     H214418   8.634   9.187   6.977
 4726WAT      O14419   1.452   8.762   6.875
 4726WAT     H114420   1.359   8.744   6.842
 4726WAT     H214421   1.502   8.813   6.805
 4727WAT      O14422   7.237   8.210   3.757
 4727WAT     H114423   7.255   8.113   3.736
 4727WAT     H214424   7.323   8.261   3.753
 4728WAT      O14425   7.167   0.402   5.339
 4728WAT     H114426   7.081   0.372   5.381
 4728WAT     H214427   7.162   0.391   5.240
 4729WAT      O14428   8.003   8.970   0.241
 4729WAT     H114429   7.993   9.030   0.161
 4729WAT     H214430   8.057   9.017   0.311
 4730WAT      O14431   1.013   0.919   5.308
 4730WAT     H114432   1.065   0.859   5.248
 4730WAT     H214433   0.956   0.864   5.369
 4731WAT      O14434   0.477   8.741   3.252
 4731WAT     H114435   0.574   8.729   3.274
 4731WAT     H214436   0.426   8.761   3.336
 4732WAT      O14437   8.757   7.966   4.897
 4732WAT     H114438   8.690   8.016   4.952
 4732WAT     H214439   8.729   7.966   4.801
 4733WAT      O14440   3.047   4.195   2.805
 4733WAT     H114441   3.127   4.136   2.793
 4733WAT     H214442   3.073   4.290   2.788
 4734WAT      O14443   0.006   6.976   6.698
 4734WAT     H114444  -0.025   7.005   6.789
 4734WAT     H214445   0.081   7.035   6.668
 4735WAT      O14446   5.796   0.180   5.225
 4735WAT     H114447   5.878   0.151   5.176
 4735WAT     H214448   5.720   0.119   5.202
 4736WAT      O14449   2.185   4.582   5.790
 4736WAT     H114450   2.263   4.563   5.730
 4736WAT     H214451   2.146   4.671   5.767
 4737WAT      O14452   1.390   5.324   9.503
 4737WAT     H114453   1.477   5.340   9.550
 4737WAT     H214454   1.331   5.267   9.560
 4738WAT      O14455   9.318   5.520   5.217
 4738WAT     H114456   9.237   5.462   5.225
 4738WAT     H214457   9.325   5.555   5.123
 4739WAT      O14458   5.584   8.923   0.872
 4739WAT     H114459   5.628   8.995   0.926
 4739WAT     H214460   5.558   8.847   0.932
 4740WAT      O14461   3.808   3.588   1.007
 4740WAT     H114462   3.718   3.572   0.966
 4740WAT     H214463   3.877   3.536   0.956
 4741WAT      O14464   6.832   5.488   9.857
 4741WAT     H114465   6.735   5.478   9.834
 4741WAT     H214466   6.840   5.533   9.947
 4742WAT      O14467   2.178   5.905   0.815
 4742WAT     H114468   2.214   5.875   0.903
 4742WAT     H214469   2.078   5.898   0.816
 4743WAT      O14470   0.267   9.379   4.221
 4743WAT     H114471   0.235   9.420   4.135
 4743WAT     H214472   0.199   9.395   4.293
 4744WAT      O14473   9.486   7.139   4.606
 4744WAT     H114474   9.496   7.122   4.508
 4744WAT     H214475   9.517   7.231   4.628
 4745WAT      O14476   2.858   0.090   1.434
 4745WAT     H114477   2.803   0.045   1.363
 4745WAT     H214478   2.931   0.143   1.392
 4746WAT      O14479   1.716   9.100   5.227
 4746WAT     H114480   1.719   9.183   5.283
 4746WAT     H214481   1.623   9.085   5.194
 4747WAT      O14482   7.760   3.752   2.546
 4747WAT     H114483   7.690   3.822   2.563
 4747WAT     H214484   7.756   3.723   2.450
 4748WAT      O14485   9.837   6.546   6.182
 4748WAT     H114486   9.890   6.478   6.131
 4748WAT     H214487   9.742   6.545   6.150
 4749WAT      O14488   5.604   3.647   5.139
 4749WAT     H114489   5.559   3.596   5.065
 4749WAT     H214490   5.537   3.705   5.184
 4750WAT      O14491   6.418   5.664   4.014
 4750WAT     H114492   6.453   5.639   3.924
 4750WAT     H214493   6.469   5.614   4.084
 4751WAT      O14494   6.872   8.330   2.769
 4751WAT     H114495   6.910   8.422   2.764
 4751WAT     H214496   6.945   8.263   2.783
 4752WAT      O14497   3.547   0.027   6.307
 4752WAT     H114498   3.515   0.039   6.213
 4752WAT     H214499   3.633  -0.024   6.307
 4753WAT      O14500   4.194   5.414   6.935
 4753WAT     H114501   4.135   5.334   6.950
 4753WAT     H214502   4.137   5.493   6.914
 4754WAT      O14503   7.259   1.562   4.019
 4754WAT     H114504   7.252   1.657   4.048
 4754WAT     H214505   7.179   1.511   4.052
 4755WAT      O14506   8.116   6.782   0.510
 4755WAT     H114507   8.096   6.686   0.529
 4755WAT     H214508   8.059   6.840   0.568
 4756WAT      O14509   4.009   7.170   7.173
 4756WAT     H114510   4.008   7.267   7.146
 4756WAT     H214511   4.063   7.118   7.106
 4757WAT      O14512   4.081   3.605   2.931
 4757WAT     H114513   4.109   3.696   2.900
 4757WAT     H214514   4.160   3.557   2.969
 4758WAT      O14515   1.876   8.408   1.082
 4758WAT     H114516   1.815   8.470   1.031
 4758WAT     H214517   1.970   8.423   1.052
 4759WAT      O14518   3.911   7.033   5.106
 4759WAT     H114519   3.962   6.949   5.087
 4759WAT     H214520   3.957   7.084   5.179
 4760WAT      O14521   6.713   9.236   2.752
 4760WAT     H114522   6.653   9.284   2.816
 4760WAT     H214523   6.801   9.218   2.795
 4761WAT      O14524   3.864   6.294   4.538
 4761WAT     H114525   3.815   6.308   4.452
 4761WAT     H214526   3.918   6.375   4.560
 4762WAT      O14527   2.154   4.462   2.942
 4762WAT     H114528   2.208   4.482   2.861
 4762WAT     H214529   2.199   4.501   3.023
 4763WAT      O14530   0.939   9.316   0.019
 4763WAT     H114531   0.981   9.404  -0.002
 4763WAT     H214532   0.951   9.296   0.116
 4764WAT      O14533   6.263   6.334   6.608
 4764WAT     H114534   6.359   6.326   6.581
 4764WAT     H214535   6.236   6.253   6.661
 4765WAT      O14536   1.012   4.517   7.418
 4765WAT     H114537   1.093   4.460   7.409
 4765WAT     H214538   1.040   4.611   7.438
 4766WAT      O14539   0.325   1.851   6.369
 4766WAT     H114540   0.346   1.756   6.391
 4766WAT     H214541   0.248   1.882   6.425
 4767WAT      O14542   4.761   3.145   6.084
 4767WAT     H114543   4.694   3.219   6.086
 4767WAT     H214544   4.832   3.166   6.016
 4768WAT      O14545   2.230   7.203   9.661
 4768WAT     H114546   2.280   7.191   9.576
 4768WAT     H214547   2.160   7.273   9.649
 4769WAT      O14548   9.237   3.587   1.332
 4769WAT     H114549   9.289   3.605   1.248
 4769WAT     H214550   9.163   3.654   1.340
 4770WAT      O14551   1.091   4.085   4.397
 4770WAT     H114552   1.077   4.051   4.305
 4770WAT     H214553   1.009   4.070   4.452
 4771WAT      O14554   5.994   1.185   9.688
 4771WAT     H114555   5.958   1.092   9.682
 4771WAT     H214556   6.094   1.183   9.688
 4772WAT      O14557   7.436   6.503   3.341
 4772WAT     H114558   7.338   6.485   3.339
 4772WAT     H214559   7.469   6.518   3.248
 4773WAT      O14560   4.879   9.622   6.180
 4773WAT     H114561   4.902   9.572   6.096
 4773WAT     H214562   4.780   9.632   6.187
 4774WAT      O14563   8.945   8.386   4.623
 4774WAT     H114564   8.996   8.303   4.646
 4774WAT     H214565   9.007   8.455   4.587
 4775WAT      O14566   7.694   2.912   0.910
 4775WAT     H114567   7.688   3.004   0.950
 4775WAT     H214568   7.761   2.913   0.835
 4776WAT      O14569   1.004   2.395   9.840
 4776WAT     H114570   1.101   2.404   9.815
 4776WAT     H214571   0.995   2.328   9.914
 4777WAT      O14572   4.259   5.602   8.557
 4777WAT     H114573   4.340   5.544   8.553
 4777WAT     H214574   4.204   5.576   8.636
 4778WAT      O14575   5.486   2.561   0.444
 4778WAT     H114576   5.538   2.476   0.457
 4778WAT     H214577   5.399   2.540   0.399
 4779WAT      O14578   4.790   2.120   4.328
 4779WAT     H114579   4.754   2.156   4.414
 4779WAT     H214580   4.813   2.023   4.340
 4780WAT      O14581   7.271   4.974   3.627
 4780WAT     H114582   7.239   4.979   3.721
 4780WAT     H214583   7.332   5.051   3.608
 4781WAT      O14584   3.184   9.818   0.876
 4781WAT     H114585   3.275   9.850   0.848
 4781WAT     H214586   3.162   9.734   0.827
 4782WAT      O14587   3.456   9.281   2.293
 4782WAT     H114588   3.425   9.366   2.251
 4782WAT     H214589   3.551   9.291   2.323
 4783WAT      O14590   9.135   1.939   6.414
 4783WAT     H114591   9.123   1.946   6.513
 4783WAT     H214592   9.220   1.983   6.388
 4784WAT      O14593   9.682   3.437   0.154
 4784WAT     H114594   9.710   3.373   0.083
 4784WAT     H214595   9.699   3.531   0.123
 4785WAT      O14596   0.197   1.091   1.464
 4785WAT     H114597   0.239   1.181   1.462
 4785WAT     H214598   0.122   1.088   1.397
 4786WAT      O14599   3.537   4.749   9.273
 4786WAT     H114600   3.628   4.774   9.238
 4786WAT     H214601   3.500   4.675   9.217
 4787WAT      O14602   9.598   8.492   5.913
 4787WAT     H114603   9.578   8.405   5.867
 4787WAT     H214604   9.537   8.502   5.992
 4788WAT      O14605   1.894   7.424   7.146
 4788WAT     H114606   1.893   7.416   7.246
 4788WAT     H214607   1.804   7.400   7.109
 4789WAT      O14608   7.061   8.779   3.093
 4789WAT     H114609   6.990   8.710   3.106
 4789WAT     H214610   7.124   8.750   3.021
 4790WAT      O14611   0.837   4.860   2.742
 4790WAT     H114612   0.805   4.886   2.833
 4790WAT     H214613   0.856   4.762   2.739
 4791WAT      O14614   7.734   7.159   4.111
 4791WAT     H114615   7.644   7.120   4.091
 4791WAT     H214616   7.802   7.121   4.049
 4792WAT      O14617   3.090   6.917   7.647
 4792WAT     H114618   3.103   6.996   7.588
 4792WAT     H214619   3.173   6.861   7.646
 4793WAT      O14620   2.060   1.136   5.010
 4793WAT     H114621   2.034   1.106   5.101
 4793WAT     H214622   1.982   1.124   4.948
 4794WAT      O14623   8.300   3.489   5.165
 4794WAT     H114624   8.213   3.521   5.202
 4794WAT     H214625   8.290   3.393   5.136
 4795WAT      O14626   9.682   5.919   2.888
 4795WAT     H114627   9.757   5.879   2.835
 4795WAT     H214628   9.702   5.909   2.986
 4796WAT      O14629   5.053   7.227   7.841
 4796WAT     H114630   5.114   7.156   7.877
 4796WAT     H214631   4.964   7.188   7.820
 4797WAT      O14632   4.917   9.624   9.347
 4797WAT     H114633   4.896   9.542   9.293
 4797WAT     H214634   4.949   9.596   9.437
 4798WAT      O14635   6.459   4.106   3.236
 4798WAT     H114636   6.555   4.127   3.255
 4798WAT     H214637   6.422   4.048   3.309
 4799WAT      O14638   5.396   5.576   0.152
 4799WAT     H114639   5.459   5.654   0.156
 4799WAT     H214640   5.393   5.531   0.241
 4800WAT      O14641   5.115   7.190   3.110
 4800WAT     H114642   5.208   7.156   3.126
 4800WAT     H214643   5.061   7.119   3.066
 4801WAT      O14644   4.128   0.213   7.013
 4801WAT     H114645   4.091   0.302   6.985
 4801WAT     H214646   4.078   0.140   6.966
 4802WAT      O14647   8.150   5.234   3.692
 4802WAT     H114648   8.130   5.327   3.661
 4802WAT     H214649   8.219   5.236   3.764
 4803WAT      O14650   8.350   1.794   2.559
 4803WAT     H114651   8.335   1.700   2.526
 4803WAT     H214652   8.324   1.859   2.488
 4804WAT      O14653   4.284   9.131   7.058
 4804WAT     H114654   4.232   9.058   7.015
 4804WAT     H214655   4.359   9.160   6.998
 4805WAT      O14656   8.158   3.923   1.278
 4805WAT     H114657   8.169   4.010   1.326
 4805WAT     H214658   8.247   3.892   1.244
 4806WAT      O14659   0.497   9.112   7.518
 4806WAT     H114660   0.423   9.061   7.560
 4806WAT     H214661   0.533   9.179   7.583
 4807WAT      O14662   9.470   0.775   7.015
 4807WAT     H114663   9.419   0.738   7.093
 4807WAT     H214664   9.430   0.862   6.987
 4808WAT      O14665   9.680   9.520   9.217
 4808WAT     H114666   9.633   9.537   9.130
 4808WAT     H214667   9.756   9.584   9.226
 4809WAT      O14668   1.024   1.253   4.834
 4809WAT     H114669   1.080   1.225   4.911
 4809WAT     H214670   1.077   1.311   4.773
 4810WAT      O14671   0.873   1.282   7.510
 4810WAT     H114672   0.845   1.243   7.422
 4810WAT     H214673   0.832   1.230   7.584
 4811WAT      O14674   5.262   6.642   5.908
 4811WAT     H114675   5.299   6.732   5.886
 4811WAT     H214676   5.165   6.639   5.886
 4812WAT      O14677   6.597   1.075   3.349
 4812WAT     H114678   6.531   1.139   3.387
 4812WAT     H214679   6.624   1.010   3.420
 4813WAT      O14680   9.355   9.769   5.560
 4813WAT     H114681   9.261   9.747   5.534
 4813WAT     H214682   9.356   9.846   5.624
 4814WAT      O14683   3.346   8.034   3.846
 4814WAT     H114684   3.295   8.111   3.885
 4814WAT     H214685   3.428   8.068   3.801
 4815WAT      O14686   2.224   5.442   8.680
 4815WAT     H114687   2.192   5.348   8.689
 4815WAT     H214688   2.148   5.500   8.649
 4816WAT      O14689   0.785   0.884   8.562
 4816WAT     H114690   0.740   0.869   8.475
 4816WAT     H214691   0.722   0.929   8.625
 4817WAT      O14692   3.392   4.121   4.909
 4817WAT     H114693   3.413   4.199   4.968
 4817WAT     H214694   3.476   4.069   4.892
 4818WAT      O14695   4.060   7.231   2.645
 4818WAT     H114696   3.977   7.281   2.621
 4818WAT     H214697   4.070   7.231   2.745
 4819WAT      O14698   8.852   9.628   4.651
 4819WAT     H114699   8.942   9.590   4.632
 4819WAT     H214700   8.797   9.626   4.568
 4820WAT      O14701   8.147   2.525   9.381
 4820WAT     H114702   8.176   2.430   9.373
 4820WAT     H214703   8.048   2.531   9.368
 4821WAT      O14704   3.258   7.172   3.457
 4821WAT     H114705   3.303   7.261   3.442
 4821WAT     H214706   3.176   7.186   3.512
 4822WAT      O14707   5.318   9.077   1.157
 4822WAT     H114708   5.220   9.065   1.145
 4822WAT     H214709   5.357   9.120   1.075
 4823WAT      O14710   9.604   5.248   4.554
 4823WAT     H114711   9.532   5.190   4.593
 4823WAT     H214712   9.693   5.220   4.591
 4824WAT      O14713   2.916   1.096   1.753
 4824WAT     H114714   2.903   0.999   1.730
 4824WAT     H214715   2.944   1.103   1.849
 4825WAT      O14716   6.428   5.014   7.759
 4825WAT     H114717   6.349   4.953   7.748
 4825WAT     H214718   6.459   5.009   7.854
 4826WAT      O14719   4.055   1.662   2.244
 4826WAT     H114720   4.108   1.734   2.289
 4826WAT     H214721   4.096   1.573   2.264
 4827WAT      O14722   3.304   7.183   1.146
 4827WAT     H114723   3.389   7.173   1.197
 4827WAT     H214724   3.236   7.120   1.182
 4828WAT      O14725   3.386   8.766   6.982
 4828WAT     H114726   3.403   8.855   7.024
 4828WAT     H214727   3.299   8.729   7.015
 4829WAT      O14728   7.852   4.717   5.723
 4829WAT     H114729   7.910   4.652   5.674
 4829WAT     H214730   7.805   4.776   5.658
 4830WAT      O14731   5.970   7.668   8.376
 4830WAT     H114732   6.006   7.718   8.455
 4830WAT     H214733   6.044   7.617   8.332
 4831WAT      O14734   9.721   0.694   3.866
 4831WAT     H114735   9.742   0.608   3.818
 4831WAT     H214736   9.671   0.674   3.950
 4832WAT      O14737   4.489   5.023   6.858
 4832WAT     H114738   4.558   4.957   6.828
 4832WAT     H214739   4.398   4.990   6.834
 4833WAT      O14740   0.743   6.051   9.030
 4833WAT     H114741   0.725   6.062   8.933
 4833WAT     H214742   0.739   6.140   9.076
 4834WAT      O14743   4.916   8.455   1.818
 4834WAT     H114744   4.987   8.445   1.748
 4834WAT     H214745   4.826   8.442   1.777
 4835WAT      O14746   3.876   2.456   2.587
 4835WAT     H114747   3.831   2.533   2.632
 4835WAT     H214748   3.812   2.412   2.524
 4836WAT      O14749   4.343   4.644   6.519
 4836WAT     H114750   4.423   4.585   6.511
 4836WAT     H214751   4.303   4.634   6.610
 4837WAT      O14752   6.851   2.412   4.990
 4837WAT     H114753   6.804   2.419   4.902
 4837WAT     H214754   6.921   2.341   4.985
 4838WAT      O14755   8.455   7.317   1.523
 4838WAT     H114756   8.461   7.222   1.491
 4838WAT     H214757   8.373   7.360   1.484
 4839WAT      O14758   2.605   8.957   3.409
 4839WAT     H114759   2.659   8.937   3.327
 4839WAT     H214760   2.572   9.051   3.405
 4840WAT      O14761   9.169   7.014   7.451
 4840WAT     H114762   9.183   6.937   7.513
 4840WAT     H214763   9.163   6.980   7.357
 4841WAT      O14764   1.247   1.444   0.223
 4841WAT     H114765   1.341   1.467   0.197
 4841WAT     H214766   1.214   1.512   0.289
 4842WAT      O14767   2.731   3.731   8.951
 4842WAT     H114768   2.758   3.820   8.988
 4842WAT     H214769   2.780   3.714   8.865
 4843WAT      O14770   5.965   7.547   3.011
 4843WAT     H114771   5.931   7.564   2.918
 4843WAT     H214772   5.944   7.453   3.037
 4844WAT      O14773   0.116   2.174   9.273
 4844WAT     H114774   0.124   2.075   9.285
 4844WAT     H214775   0.190   2.206   9.214
 4845WAT      O14776   6.464   2.288   5.105
 4845WAT     H114777   6.481   2.193   5.131
 4845WAT     H214778   6.369   2.311   5.123
 4846WAT      O14779   5.989   8.401   1.927
 4846WAT     H114780   5.930   8.437   1.855
 4846WAT     H214781   6.028   8.314   1.897
 4847WAT      O14782   3.727   0.472   3.143
 4847WAT     H114783   3.762   0.418   3.220
 4847WAT     H214784   3.721   0.415   3.062
 4848WAT      O14785   8.861   3.185   1.922
 4848WAT     H114786   8.831   3.236   1.840
 4848WAT     H214787   8.795   3.200   1.995
 4849WAT      O14788   4.843   5.009   7.092
 4849WAT     H114789   4.839   5.109   7.090
 4849WAT     H214790   4.788   4.973   7.017
 4850WAT      O14791   7.782   9.076   1.447
 4850WAT     H114792   7.699   9.049   1.397
 4850WAT     H214793   7.800   9.173   1.432
 4851WAT      O14794   7.697   1.158   0.874
 4851WAT     H114795   7.705   1.060   0.894
 4851WAT     H214796   7.636   1.201   0.941
 4852WAT      O14797   1.941   3.608   7.296
 4852WAT     H114798   1.844   3.631   7.283
 4852WAT     H214799   1.987   3.609   7.207
 4853WAT      O14800   4.120   8.553   9.639
 4853WAT     H114801   4.083   8.645   9.626
 4853WAT     H214802   4.051   8.486   9.612
 4854WAT      O14803   7.143   3.277   2.518
 4854WAT     H114804   7.125   3.193   2.467
 4854WAT     H214805   7.160   3.352   2.454
 4855WAT      O14806   2.615   1.750   6.026
 4855WAT     H114807   2.584   1.767   5.932
 4855WAT     H214808   2.705   1.705   6.023
 4856WAT      O14809   5.985   8.215   8.825
 4856WAT     H114810   5.954   8.303   8.860
 4856WAT     H214811   6.064   8.184   8.877
 4857WAT      O14812   8.580   6.192   8.839
 4857WAT     H114813   8.493   6.239   8.855
 4857WAT     H214814   8.576   6.143   8.752
 4858WAT      O14815   8.069   3.290   9.062
 4858WAT     H114816   8.054   3.283   9.161
 4858WAT     H214817   8.014   3.366   9.025
 4859WAT      O14818   7.089   2.228   4.989
 4859WAT     H114819   7.096   2.143   4.938
 4859WAT     H214820   7.129   2.302   4.935
 4860WAT      O14821   0.864   4.058   1.534
 4860WAT     H114822   0.951   4.108   1.522
 4860WAT     H214823   0.824   4.081   1.622
 4861WAT      O14824   4.046   9.342   0.429
 4861WAT     H114825   4.042   9.409   0.504
 4861WAT     H214826   3.972   9.276   0.440
 4862WAT      O14827   5.811   1.622   2.097
 4862WAT     H114828   5.779   1.612   2.003
 4862WAT     H214829   5.894   1.569   2.110
 4863WAT      O14830   5.854   8.502   6.754
 4863WAT     H114831   5.896   8.566   6.819
 4863WAT     H214832   5.834   8.415   6.800
 4864WAT      O14833   3.693   7.994   1.414
 4864WAT     H114834   3.698   7.941   1.499
 4864WAT     H214835   3.666   7.934   1.339
 4865WAT      O14836   6.261   2.617   2.788
 4865WAT     H114837   6.218   2.592   2.875
 4865WAT     H214838   6.286   2.714   2.789
 4866WAT      O14839   3.760   6.221   9.514
 4866WAT     H114840   3.728   6.196   9.423
 4866WAT     H214841   3.852   6.260   9.508
 4867WAT      O14842   9.429   1.507   1.648
 4867WAT     H114843   9.444   1.600   1.613
 4867WAT     H214844   9.383   1.513   1.737
 4868WAT      O14845   7.574   1.003   7.353
 4868WAT     H114846   7.479   1.002   7.323
 4868WAT     H214847   7.613   1.094   7.341
 4869WAT      O14848   2.559   6.265   3.963
 4869WAT     H114849   2.551   6.362   3.987
 4869WAT     H214850   2.597   6.257   3.871
 4870WAT      O14851   0.872   0.731   7.532
 4870WAT     H114852   0.834   0.658   7.588
 4870WAT     H214853   0.954   0.767   7.576
 4871WAT      O14854   3.309   3.895   9.060
 4871WAT     H114855   3.235   3.917   8.997
 4871WAT     H214856   3.300   3.949   9.143
 4872WAT      O14857   5.014   7.494   5.707
 4872WAT     H114858   4.939   7.554   5.680
 4872WAT     H214859   4.998   7.459   5.799
 4873WAT      O14860   2.109   1.198   6.930
 4873WAT     H114861   2.045   1.217   7.004
 4873WAT     H214862   2.201   1.228   6.958
 4874WAT      O14863   9.756   0.491   4.719
 4874WAT     H114864   9.736   0.430   4.796
 4874WAT     H214865   9.704   0.462   4.639
 4875WAT      O14866   0.653   7.073   6.613
 4875WAT     H114867   0.753   7.083   6.610
 4875WAT     H214868   0.615   7.095   6.523
 4876WAT      O14869   9.492   5.793   8.636
 4876WAT     H114870   9.500   5.890   8.661
 4876WAT     H214871   9.535   5.738   8.708
 4877WAT      O14872   9.641   3.817   3.047
 4877WAT     H114873   9.660   3.817   3.145
 4877WAT     H214874   9.544   3.836   3.032
 4878WAT      O14875   9.842   2.473   2.910
 4878WAT     H114876   9.810   2.565   2.934
 4878WAT     H214877   9.778   2.431   2.845
 4879WAT      O14878   4.453   3.631   5.428
 4879WAT     H114879   4.495   3.628   5.338
 4879WAT     H214880   4.454   3.540   5.469
 4880WAT      O14881   7.887   0.114   4.725
 4880WAT     H114882   7.888   0.214   4.726
 4880WAT     H214883   7.848   0.082   4.639
 4881WAT      O14884   7.344   7.080   2.199
 4881WAT     H114885   7.442   7.100   2.193
 4881WAT     H214886   7.330   6.981   2.195
 4882WAT      O14887   2.877   7.421   1.751
 4882WAT     H114888   2.941   7.359   1.797
 4882WAT     H214889   2.904   7.516   1.769
 4883WAT      O14890   1.243   6.682   7.106
 4883WAT     H114891   1.282   6.611   7.164
 4883WAT     H214892   1.177   6.640   7.043
 4884WAT      O14893   8.314   1.719   8.631
 4884WAT     H114894   8.338   1.772   8.550
 4884WAT     H214895   8.397   1.694   8.680
 4885WAT      O14896   6.819   9.245   3.322
 4885WAT     H114897   6.817   9.197   3.234
 4885WAT     H214898   6.757   9.323   3.319
 4886WAT      O14899   4.684   5.876   3.253
 4886WAT     H114900   4.700   5.797   3.193
 4886WAT     H214901   4.660   5.955   3.198
 4887WAT      O14902   2.033   9.618   6.508
 4887WAT     H114903   1.941   9.632   6.543
 4887WAT     H214904   2.071   9.705   6.477
 4888WAT      O14905   3.082   4.534   0.603
 4888WAT     H114906   2.999   4.533   0.659
 4888WAT     H214907   3.136   4.615   0.626
 4889WAT      O14908   7.210   9.598   6.173
 4889WAT     H114909   7.263   9.527   6.128
 4889WAT     H214910   7.112   9.578   6.164
 4890WAT      O14911   2.164   2.953   8.672
 4890WAT     H114912   2.105   3.025   8.709
 4890WAT     H214913   2.259   2.969   8.701
 4891WAT      O14914   1.615   1.306   6.561
 4891WAT     H114915   1.527   1.265   6.587
 4891WAT     H214916   1.689   1.258   6.608
 4892WAT      O14917   2.077   2.494   5.226
 4892WAT     H114918   2.169   2.477   5.262
 4892WAT     H214919   2.051   2.419   5.164
 4893WAT      O14920   9.460   9.136   0.745
 4893WAT     H114921   9.417   9.225   0.732
 4893WAT     H214922   9.520   9.139   0.825
 4894WAT      O14923   1.296   6.040   1.143
 4894WAT     H114924   1.365   5.967   1.137
 4894WAT     H214925   1.266   6.065   1.051
 4895WAT      O14926   1.872   8.541   4.365
 4895WAT     H114927   1.807   8.470   4.338
 4895WAT     H214928   1.859   8.563   4.462
 4896WAT      O14929   6.075   4.406   6.219
 4896WAT     H114930   6.147   4.474   6.230
 4896WAT     H214931   5.989   4.442   6.254
 4897WAT      O14932   7.624   5.744   5.509
 4897WAT     H114933   7.525   5.757   5.512
 4897WAT     H214934   7.659   5.771   5.419
 4898WAT      O14935   9.889   6.108   5.944
 4898WAT     H114936   9.793   6.085   5.927
 4898WAT     H214937   9.948   6.042   5.897
 4899WAT      O14938   0.172   7.652   7.035
 4899WAT     H114939   0.208   7.650   7.128
 4899WAT     H214940   0.116   7.734   7.023
 4900WAT      O14941   8.053   6.862   2.573
 4900WAT     H114942   8.043   6.841   2.476
 4900WAT     H214943   7.998   6.941   2.596
 4901WAT      O14944   0.481   0.736   1.067
 4901WAT     H114945   0.465   0.660   1.005
 4901WAT     H214946   0.535   0.806   1.020
 4902WAT      O14947   7.810   0.516   0.143
 4902WAT     H114948   7.776   0.467   0.063
 4902WAT     H214949   7.854   0.451   0.206
 4903WAT      O14950   2.871   8.497   0.399
 4903WAT     H114951   2.845   8.561   0.471
 4903WAT     H214952   2.902   8.411   0.440
 4904WAT      O14953   5.630   7.190   8.858
 4904WAT     H114954   5.718   7.163   8.896
 4904WAT     H214955   5.637   7.195   8.758
 4905WAT      O14956   7.230   2.319   0.288
 4905WAT     H114957   7.149   2.312   0.230
 4905WAT     H214958   7.241   2.415   0.316
 4906WAT      O14959   7.921   0.889   1.188
 4906WAT     H114960   7.976   0.826   1.243
 4906WAT     H214961   7.975   0.971   1.169
 4907WAT      O14962   0.388   7.772   8.101
 4907WAT     H114963   0.327   7.732   8.033
 4907WAT     H214964   0.345   7.768   8.191
 4908WAT      O14965   2.527   3.506   1.631
 4908WAT     H114966   2.617   3.548   1.621
 4908WAT     H214967   2.509   3.488   1.728
 4909WAT      O14968   3.011   4.593   2.991
 4909WAT     H114969   3.068   4.541   2.928
 4909WAT     H214970   2.926   4.619   2.947
 4910WAT      O14971   9.206   4.451   4.587
 4910WAT     H114972   9.303   4.467   4.603
 4910WAT     H214973   9.157   4.538   4.589
 4911WAT      O14974   6.985   6.297   8.467
 4911WAT     H114975   7.079   6.310   8.498
 4911WAT     H214976   6.979   6.319   8.370
 4912WAT      O14977   6.153   5.268   3.056
 4912WAT     H114978   6.106   5.185   3.085
 4912WAT     H214979   6.176   5.261   2.959
 4913WAT      O14980   1.929   6.114   5.639
 4913WAT     H114981   2.028   6.119   5.624
 4913WAT     H214982   1.910   6.058   5.719
 4914WAT      O14983   7.131   8.429   3.553
 4914WAT     H114984   7.187   8.374   3.491
 4914WAT     H214985   7.160   8.524   3.550
 4915WAT      O14986   6.456   9.654   4.604
 4915WAT     H114987   6.546   9.665   4.563
 4915WAT     H214988   6.390   9.713   4.556
 4916WAT      O14989   3.633   6.141   4.590
 4916WAT     H114990   3.710   6.136   4.527
 4916WAT     H214991   3.557   6.189   4.546
 4917WAT      O14992   2.573   0.972   2.014
 4917WAT     H114993   2.671   0.954   2.022
 4917WAT     H214994   2.525   0.886   2.000
 4918WAT      O14995   3.429   2.166   0.604
 4918WAT     H114996   3.346   2.111   0.595
 4918WAT     H214997   3.406   2.256   0.640
 4919WAT      O14998   6.294   3.418   7.417
 4919WAT     H114999   6.334   3.510   7.419
 4919WAT     H215000   6.362   3.353   7.383
 4920WAT      O15001   9.765   3.254   2.115
 4920WAT     H115002   9.684   3.210   2.152
 4920WAT     H215003   9.815   3.189   2.057
 4921WAT      O15004   2.916   7.482   2.128
 4921WAT     H115005   2.991   7.541   2.096
 4921WAT     H215006   2.829   7.527   2.109
 4922WAT      O15007   5.536   1.055   2.983
 4922WAT     H115008   5.521   1.144   2.941
 4922WAT     H215009   5.634   1.041   2.999
 4923WAT      O15010   5.595   6.838   9.022
 4923WAT     H115011   5.662   6.804   8.955
 4923WAT     H215012   5.504   6.807   8.996
 4924WAT      O15013   6.198   5.248   8.953
 4924WAT     H115014   6.294   5.229   8.976
 4924WAT     H215015   6.153   5.291   9.031
 4925WAT      O15016   3.430   0.748   1.966
 4925WAT     H115017   3.510   0.769   2.022
 4925WAT     H215018   3.385   0.666   2.001
 4926WAT      O15019   7.776   1.409   5.959
 4926WAT     H115020   7.809   1.463   6.036
 4926WAT     H215021   7.778   1.466   5.876
 4927WAT      O15022   9.274   6.805   0.360
 4927WAT     H115023   9.208   6.758   0.418
 4927WAT     H215024   9.252   6.902   0.355
 4928WAT      O15025   0.793   5.529   6.698
 4928WAT     H115026   0.711   5.544   6.754
 4928WAT     H215027   0.867   5.494   6.756
 4929WAT      O15028   2.223   9.636   8.217
 4929WAT     H115029   2.265   9.723   8.189
 4929WAT     H215030   2.140   9.621   8.163
 4930WAT      O15031   3.652   9.307   9.016
 4930WAT     H115032   3.740   9.322   8.970
 4930WAT     H215033   3.580   9.301   8.947
 4931WAT      O15034   7.045   8.557   8.190
 4931WAT     H115035   7.025   8.463   8.163
 4931WAT     H215036   7.089   8.557   8.280
 4932WAT      O15037   8.719   2.440   6.147
 4932WAT     H115038   8.809   2.419   6.186
 4932WAT     H215039   8.648   2.397   6.203
 4933WAT      O15040   3.690   0.543   1.358
 4933WAT     H115041   3.597   0.530   1.322
 4933WAT     H215042   3.756   0.530   1.285
 4934WAT      O15043   1.476   9.746   4.245
 4934WAT     H115044   1.524   9.824   4.285
 4934WAT     H215045   1.539   9.695   4.186
 4935WAT      O15046   6.154   0.149   5.930
 4935WAT     H115047   6.170   0.050   5.935
 4935WAT     H215048   6.242   0.196   5.924
 4936WAT      O15049   7.860   2.466   9.715
 4936WAT     H115050   7.828   2.415   9.635
 4936WAT     H215051   7.955   2.442   9.734
 4937WAT      O15052   0.294   7.298   7.696
 4937WAT     H115053   0.370   7.355   7.726
 4937WAT     H215054   0.208   7.347   7.709
 4938WAT      O15055   5.149   2.582   7.496
 4938WAT     H115056   5.080   2.635   7.446
 4938WAT     H215057   5.105   2.526   7.566
 4939WAT      O15058   4.809   8.418   9.525
 4939WAT     H115059   4.858   8.339   9.562
 4939WAT     H215060   4.760   8.464   9.598
 4940WAT      O15061   0.496   6.539   1.690
 4940WAT     H115062   0.551   6.611   1.646
 4940WAT     H215063   0.448   6.578   1.769
 4941WAT      O15064   4.485   9.263   5.838
 4941WAT     H115065   4.540   9.323   5.897
 4941WAT     H215066   4.540   9.184   5.811
 4942WAT      O15067   8.527   9.130   5.017
 4942WAT     H115068   8.448   9.079   5.050
 4942WAT     H215069   8.498   9.196   4.948
 4943WAT      O15070   2.702   8.690   9.867
 4943WAT     H115071   2.679   8.784   9.892
 4943WAT     H215072   2.794   8.687   9.827
 4944WAT      O15073   5.894   4.230   2.230
 4944WAT     H115074   5.912   4.152   2.171
 4944WAT     H215075   5.831   4.202   2.303
 4945WAT      O15076   9.726   4.271   4.766
 4945WAT     H115077   9.770   4.347   4.812
 4945WAT     H215078   9.682   4.211   4.833
 4946WAT      O15079   0.108   9.335   4.972
 4946WAT     H115080   0.125   9.323   5.070
 4946WAT     H215081   0.014   9.366   4.958
 4947WAT      O15082   5.045   5.862   3.892
 4947WAT     H115083   5.045   5.864   3.792
 4947WAT     H215084   5.132   5.898   3.926
 4948WAT      O15085   2.369   0.273   4.299
 4948WAT     H115086   2.398   0.183   4.331
 4948WAT     H215087   2.445   0.338   4.310
 4949WAT      O15088   3.415   5.904   4.408
 4949WAT     H115089   3.457   5.937   4.324
 4949WAT     H215090   3.366   5.979   4.453
 4950WAT      O15091   2.830   5.901   2.246
 4950WAT     H115092   2.826   5.806   2.277
 4950WAT     H215093   2.889   5.906   2.165
 4951WAT      O15094   9.301   0.325   7.675
 4951WAT     H115095   9.387   0.370   7.651
 4951WAT     H215096   9.230   0.395   7.688
 4952WAT      O15097   9.058   7.215   1.623
 4952WAT     H115098   9.028   7.135   1.572
 4952WAT     H215099   9.144   7.194   1.670
 4953WAT      O15100   1.360   9.581   1.419
 4953WAT     H115101   1.262   9.595   1.430
 4953WAT     H215102   1.409   9.649   1.474
 4954WAT      O15103   2.471   3.699   2.417
 4954WAT     H115104   2.516   3.702   2.506
 4954WAT     H215105   2.386   3.647   2.424
 4955WAT      O15106   4.032   5.236   2.402
 4955WAT     H115107   4.085   5.208   2.322
 4955WAT     H215108   4.089   5.227   2.484
 4956WAT      O15109   4.807   4.055   3.018
 4956WAT     H115110   4.904   4.032   3.013
 4956WAT     H215111   4.791   4.140   2.966
 4957WAT      O15112   8.291   0.702   9.890
 4957WAT     H115113   8.300   0.789   9.841
 4957WAT     H215114   8.198   0.666   9.876
 4958WAT      O15115   0.120   8.874   8.064
 4958WAT     H115116   0.037   8.819   8.076
 4958WAT     H215117   0.173   8.873   8.149
 4959WAT      O15118   0.548   8.025   7.536
 4959WAT     H115119   0.514   7.986   7.622
 4959WAT     H215120   0.625   8.086   7.556
 4960WAT      O15121   3.140   8.436   0.945
 4960WAT     H115122   3.154   8.392   0.856
 4960WAT     H215123   3.101   8.370   1.009
 4961WAT      O15124   7.850   7.525   1.821
 4961WAT     H115125   7.929   7.559   1.872
 4961WAT     H215126   7.874   7.516   1.725
 4962WAT      O15127   5.239   4.637   7.869
 4962WAT     H115128   5.215   4.654   7.773
 4962WAT     H215129   5.227   4.721   7.921
 4963WAT      O15130   8.527   7.272   2.576
 4963WAT     H115131   8.624   7.262   2.602
 4963WAT     H215132   8.521   7.292   2.478
 4964WAT      O15133   7.723   6.422   1.225
 4964WAT     H115134   7.714   6.514   1.264
 4964WAT     H215135   7.739   6.429   1.127
 4965WAT      O15136   4.449   3.778   7.225
 4965WAT     H115137   4.547   3.768   7.208
 4965WAT     H215138   4.427   3.744   7.316
 4966WAT      O15139   9.368   2.859   8.254
 4966WAT     H115140   9.279   2.902   8.264
 4966WAT     H215141   9.365   2.767   8.293
 4967WAT      O15142   9.607   0.377   8.221
 4967WAT     H115143   9.623   0.341   8.129
 4967WAT     H215144   9.675   0.447   8.243
 4968WAT      O15145   5.182   1.278   5.912
 4968WAT     H115146   5.136   1.345   5.854
 4968WAT     H215147   5.236   1.216   5.855
 4969WAT      O15148   2.334  -0.001   9.873
 4969WAT     H115149   2.378   0.089   9.878
 4969WAT     H215150   2.290  -0.012   9.784
 4970WAT      O15151   6.817   3.449   1.493
 4970WAT     H115152   6.872   3.366   1.497
 4970WAT     H215153   6.720   3.424   1.483
 4971WAT      O15154   9.408   3.242   8.998
 4971WAT     H115155   9.478   3.172   8.984
 4971WAT     H215156   9.444   3.331   8.970
 4972WAT      O15157   0.420   9.237   9.837
 4972WAT     H115158   0.437   9.159   9.776
 4972WAT     H215159   0.354   9.210   9.908
 4973WAT      O15160   1.314   6.370   2.167
 4973WAT     H115161   1.371   6.406   2.093
 4973WAT     H215162   1.264   6.445   2.210
 4974WAT      O15163   9.616   2.088   8.365
 4974WAT     H115164   9.538   2.150   8.355
 4974WAT     H215165   9.604   2.009   8.305
 4975WAT      O15166   7.173   2.189   3.666
 4975WAT     H115167   7.119   2.115   3.706
 4975WAT     H215168   7.114   2.265   3.641
 4976WAT      O15169   7.864   8.233   9.543
 4976WAT     H115170   7.864   8.278   9.632
 4976WAT     H215171   7.868   8.134   9.555
 4977WAT      O15172   0.432   2.870   3.414
 4977WAT     H115173   0.496   2.930   3.367
 4977WAT     H215174   0.423   2.899   3.509
 4978WAT      O15175   8.681   7.125   3.748
 4978WAT     H115176   8.757   7.063   3.769
 4978WAT     H215177   8.606   7.109   3.811
 4979WAT      O15178   6.255   1.721   6.932
 4979WAT     H115179   6.229   1.818   6.938
 4979WAT     H215180   6.303   1.695   7.015
 4980WAT      O15181   7.883   3.835   0.831
 4980WAT     H115182   7.944   3.906   0.867
 4980WAT     H215183   7.920   3.745   0.854
 4981WAT      O15184   9.615   5.876   6.228
 4981WAT     H115185   9.695   5.934   6.246
 4981WAT     H215186   9.646   5.782   6.210
 4982WAT      O15187   6.136   0.158   4.609
 4982WAT     H115188   6.057   0.195   4.658
 4982WAT     H215189   6.219   0.173   4.663
 4983WAT      O15190   2.271   7.706   4.256
 4983WAT     H115191   2.339   7.745   4.194
 4983WAT     H215192   2.317   7.658   4.331
 4984WAT      O15193   7.236   4.783   2.413
 4984WAT     H115194   7.286   4.697   2.400
 4984WAT     H215195   7.152   4.782   2.360
 4985WAT      O15196   4.753   0.798   2.382
 4985WAT     H115197   4.660   0.766   2.404
 4985WAT     H215198   4.751   0.847   2.296
 4986WAT      O15199   7.705   5.156   9.632
 4986WAT     H115200   7.737   5.116   9.718
 4986WAT     H215201   7.638   5.228   9.652
 4987WAT      O15202   8.403   2.410   8.970
 4987WAT     H115203   8.434   2.467   9.046
 4987WAT     H215204   8.310   2.436   8.944
 4988WAT      O15205   0.078   4.404   2.594
 4988WAT     H115206   0.178   4.404   2.601
 4988WAT     H215207   0.050   4.355   2.511
 4989WAT      O15208   7.547   7.828   3.317
 4989WAT     H115209   7.570   7.915   3.275
 4989WAT     H215210   7.610   7.757   3.284
 4990WAT      O15211   2.183   8.031   8.315
 4990WAT     H115212   2.172   8.000   8.221
 4990WAT     H215213   2.218   8.125   8.315
 4991WAT      O15214   0.597   7.223   7.704
 4991WAT     H115215   0.678   7.279   7.724
 4991WAT     H215216   0.578   7.226   7.606
 4992WAT      O15217   8.526   5.537   0.091
 4992WAT     H115218   8.524   5.484   0.007
 4992WAT     H215219   8.606   5.511   0.146
 4993WAT      O15220   6.753   6.151   1.098
 4993WAT     H115221   6.653   6.157   1.100
 4993WAT     H215222   6.784   6.088   1.170
 4994WAT      O15223   7.711   7.027   6.709
 4994WAT     H115224   7.737   7.104   6.651
 4994WAT     H215225   7.645   7.058   6.778
 4995WAT      O15226   3.640   7.847   4.437
 4995WAT     H115227   3.550   7.880   4.467
 4995WAT     H215228   3.628   7.779   4.365
 4996WAT      O15229   5.777   4.303   1.495
 4996WAT     H115230   5.842   4.336   1.563
 4996WAT     H215231   5.703   4.254   1.541
 4997WAT      O15232   5.030   0.782   1.640
 4997WAT     H115233   4.937   0.743   1.639
 4997WAT     H215234   5.035   0.856   1.573
 4998WAT      O15235   7.357   9.824   6.128
 4998WAT     H115236   7.343   9.892   6.200
 4998WAT     H215237   7.293   9.748   6.140
 4999WAT      O15238   4.210   7.255   5.128
 4999WAT     H115239   4.293   7.208   5.160
 4999WAT     H215240   4.172   7.206   5.050
 5000WAT      O15241   2.030   5.181   7.406
 5000WAT     H115242   1.980   5.249   7.351
 5000WAT     H215243   2.116   5.220   7.438
 5001WAT      O15244   5.065   1.708   5.878
 5001WAT     H115245   5.155   1.665   5.876
 5001WAT     H215246   5.075   1.806   5.896
 5002WAT      O15247   1.713   1.588   5.214
 5002WAT     H115248   1.780   1.655   5.245
 5002WAT     H215249   1.631   1.635   5.181
 5003WAT      O15250   5.812   8.162   9.520
 5003WAT     H115251   5.798   8.154   9.421
 5003WAT     H215252   5.875   8.237   9.539
 5004WAT      O15253   8.572   5.635   7.123
 5004WAT     H115254   8.548   5.732   7.119
 5004WAT     H215255   8.627   5.612   7.042
 5005WAT      O15256   8.957   7.359   1.812
 5005WAT     H115257   8.884   7.316   1.864
 5005WAT     H215258   8.991   7.295   1.742
 5006WAT      O15259   4.700   9.605   8.616
 5006WAT     H115260   4.617   9.629   8.565
 5006WAT     H215261   4.755   9.542   8.562
 5007WAT      O15262   1.377   6.410   5.002
 5007WAT     H115263   1.432   6.330   5.027
 5007WAT     H215264   1.427   6.493   5.024
 5008WAT      O15265   4.702   9.615   1.102
 5008WAT     H115266   4.744   9.529   1.075
 5008WAT     H215267   4.758   9.691   1.067
 5009WAT      O15268   4.427   0.926   9.750
 5009WAT     H115269   4.449   0.934   9.653
 5009WAT     H215270   4.502   0.963   9.805
 5010WAT      O15271   6.667   4.503   3.114
 5010WAT     H115272   6.576   4.520   3.152
 5010WAT     H215273   6.683   4.567   3.038
 5011WAT      O15274   8.122   5.236   6.057
 5011WAT     H115275   8.207   5.230   6.005
 5011WAT     H215276   8.052   5.180   6.012
 5012WAT      O15277   9.292   0.721   3.319
 5012WAT     H115278   9.268   0.750   3.412
 5012WAT     H215279   9.307   0.622   3.317
 5013WAT      O15280   8.405   4.789   1.448
 5013WAT     H115281   8.462   4.753   1.375
 5013WAT     H215282   8.420   4.737   1.532
 5014WAT      O15283   4.262   3.897   4.415
 5014WAT     H115284   4.340   3.835   4.407
 5014WAT     H215285   4.295   3.991   4.423
 5015WAT      O15286   3.227   1.965   0.606
 5015WAT     H115287   3.277   1.905   0.544
 5015WAT     H215288   3.135   1.982   0.570
 5016WAT      O15289   4.296   8.444   0.383
 5016WAT     H115290   4.260   8.351   0.373
 5016WAT     H215291   4.260   8.502   0.310
 5017WAT      O15292   8.631   7.576   6.350
 5017WAT     H115293   8.556   7.518   6.382
 5017WAT     H215294   8.609   7.610   6.258
 5018WAT      O15295   0.396   4.405   5.519
 5018WAT     H115296   0.341   4.326   5.491
 5018WAT     H215297   0.425   4.393   5.614
 5019WAT      O15298   5.422   3.185   0.238
 5019WAT     H115299   5.369   3.127   0.177
 5019WAT     H215300   5.399   3.281   0.223
 5020WAT      O15301   7.949   6.106   7.340
 5020WAT     H115302   7.859   6.081   7.374
 5020WAT     H215303   7.943   6.132   7.244
 5021WAT      O15304   5.648   7.582   2.493
 5021WAT     H115305   5.744   7.569   2.514
 5021WAT     H215306   5.612   7.658   2.548
 5022WAT      O15307   5.029   9.086   6.559
 5022WAT     H115308   5.024   9.045   6.468
 5022WAT     H215309   5.035   9.014   6.628
 5023WAT      O15310   0.138   6.371   0.494
 5023WAT     H115311   0.135   6.277   0.529
 5023WAT     H215312   0.087   6.377   0.409
 5024WAT      O15313   2.810   3.448   9.083
 5024WAT     H115314   2.868   3.408   9.012
 5024WAT     H215315   2.788   3.542   9.059
 5025WAT      O15316   7.612   8.739   0.190
 5025WAT     H115317   7.681   8.740   0.261
 5025WAT     H215318   7.656   8.741   0.100
 5026WAT      O15319   6.118   4.992   8.899
 5026WAT     H115320   6.093   4.946   8.984
 5026WAT     H215321   6.140   5.088   8.919
 5027WAT      O15322   4.854   2.460   7.312
 5027WAT     H115323   4.821   2.408   7.391
 5027WAT     H215324   4.948   2.433   7.292
 5028WAT      O15325   0.335   2.265   0.232
 5028WAT     H115326   0.251   2.309   0.263
 5028WAT     H215327   0.350   2.285   0.135
 5029WAT      O15328   4.689   0.453   1.291
 5029WAT     H115329   4.714   0.403   1.208
 5029WAT     H215330   4.765   0.453   1.355
 5030WAT      O15331   2.565   0.250   9.317
 5030WAT     H115332   2.635   0.228   9.385
 5030WAT     H215333   2.478   0.265   9.363
 5031WAT      O15334   1.158   4.326   5.960
 5031WAT     H115335   1.146   4.283   5.870
 5031WAT     H215336   1.162   4.425   5.949
 5032WAT      O15337   4.352   6.022   3.066
 5032WAT     H115338   4.259   5.987   3.060
 5032WAT     H215339   4.417   5.946   3.069
 5033WAT      O15340   5.296   6.337   8.167
 5033WAT     H115341   5.197   6.352   8.167
 5033WAT     H215342   5.341   6.407   8.112
 5034WAT      O15343   4.406   5.779   5.928
 5034WAT     H115344   4.410   5.878   5.917
 5034WAT     H215345   4.333   5.742   5.871
 5035WAT      O15346   1.378   1.948   8.210
 5035WAT     H115347   1.439   1.948   8.289
 5035WAT     H215348   1.307   2.017   8.223
 5036WAT      O15349   6.697   4.481   6.990
 5036WAT     H115350   6.768   4.411   7.000
 5036WAT     H215351   6.687   4.504   6.893
 5037WAT      O15352   4.106   4.765   6.411
 5037WAT     H115353   4.190   4.712   6.425
 5037WAT     H215354   4.129   4.862   6.409
 5038WAT      O15355   7.968   7.085   3.977
 5038WAT     H115356   8.059   7.114   3.946
 5038WAT     H215357   7.932   7.016   3.915
 5039WAT      O15358   6.619   2.780   0.810
 5039WAT     H115359   6.707   2.776   0.764
 5039WAT     H215360   6.632   2.804   0.906
 5040WAT      O15361   5.656   5.469   3.810
 5040WAT     H115362   5.711   5.540   3.766
 5040WAT     H215363   5.652   5.389   3.750
 5041WAT      O15364   7.499   5.132   5.452
 5041WAT     H115365   7.516   5.059   5.519
 5041WAT     H215366   7.437   5.199   5.491
 5042WAT      O15367   7.115   6.999   2.966
 5042WAT     H115368   7.062   7.063   2.910
 5042WAT     H215369   7.062   6.975   3.048
 5043WAT      O15370   8.191   6.296   0.385
 5043WAT     H115371   8.219   6.323   0.477
 5043WAT     H215372   8.199   6.197   0.375
 5044WAT      O15373   3.005   8.962   0.131
 5044WAT     H115374   3.036   8.931   0.221
 5044WAT     H215375   3.062   8.921   0.060
 5045WAT      O15376   3.123   2.236   9.225
 5045WAT     H115377   3.167   2.181   9.297
 5045WAT     H215378   3.024   2.230   9.235
 5046WAT      O15379   8.529   2.260   6.269
 5046WAT     H115380   8.532   2.317   6.350
 5046WAT     H215381   8.434   2.253   6.237
 5047WAT      O15382   0.802   5.215   6.303
 5047WAT     H115383   0.790   5.294   6.364
 5047WAT     H215384   0.712   5.176   6.281
 5048WAT      O15385   4.959   2.468   3.331
 5048WAT     H115386   4.892   2.487   3.258
 5048WAT     H215387   4.954   2.540   3.400
 5049WAT      O15388   9.297   8.889   6.342
 5049WAT     H115389   9.345   8.896   6.429
 5049WAT     H215390   9.355   8.841   6.276
 5050WAT      O15391   0.342   0.776   6.651
 5050WAT     H115392   0.284   0.730   6.718
 5050WAT     H215393   0.437   0.747   6.663
 5051WAT      O15394   8.216   6.717   9.747
 5051WAT     H115395   8.286   6.767   9.797
 5051WAT     H215396   8.150   6.677   9.812
 5052WAT      O15397   8.484   0.380   1.217
 5052WAT     H115398   8.530   0.298   1.183
 5052WAT     H215399   8.445   0.432   1.141
 5053WAT      O15400   1.073   8.925   5.614
 5053WAT     H115401   1.161   8.974   5.618
 5053WAT     H215402   1.071   8.867   5.533
 5054WAT      O15403   6.514   1.910   7.831
 5054WAT     H115404   6.449   1.930   7.905
 5054WAT     H215405   6.465   1.904   7.744
 5055WAT      O15406   4.405   9.015   8.586
 5055WAT     H115407   4.411   9.058   8.677
 5055WAT     H215408   4.459   8.932   8.586
 5056WAT      O15409   7.236   7.196   1.145
 5056WAT     H115410   7.287   7.155   1.069
 5056WAT     H215411   7.246   7.138   1.226
 5057WAT      O15412   4.931   1.184   3.257
 5057WAT     H115413   4.954   1.086   3.257
 5057WAT     H215414   5.005   1.236   3.298
 5058WAT      O15415   8.160   8.040   5.024
 5058WAT     H115416   8.206   7.951   5.029
 5058WAT     H215417   8.216   8.109   5.071
 5059WAT      O15418   2.804   6.057   5.579
 5059WAT     H115419   2.745   6.033   5.501
 5059WAT     H215420   2.826   5.974   5.630
 5060WAT      O15421   6.615   2.075   5.935
 5060WAT     H115422   6.690   2.065   5.870
 5060WAT     H215423   6.540   2.013   5.909
 5061WAT      O15424   7.761   2.356   9.464
 5061WAT     H115425   7.776   2.294   9.386
 5061WAT     H215426   7.769   2.450   9.434
 5062WAT      O15427   8.689   6.103   9.276
 5062WAT     H115428   8.665   6.178   9.215
 5062WAT     H215429   8.612   6.039   9.282
 5063WAT      O15430   6.460   5.228   9.063
 5063WAT     H115431   6.500   5.310   9.023
 5063WAT     H215432   6.459   5.237   9.163
 5064WAT      O15433   3.349   3.451   2.528
 5064WAT     H115434   3.390   3.440   2.437
 5064WAT     H215435   3.362   3.545   2.559
 5065WAT      O15436   1.029   3.002   7.360
 5065WAT     H115437   1.090   2.947   7.303
 5065WAT     H215438   1.044   3.099   7.341
 5066WAT      O15439   3.695   9.813   0.334
 5066WAT     H115440   3.751   9.795   0.415
 5066WAT     H215441   3.728   9.758   0.257
 5067WAT      O15442   9.441   8.264   1.839
 5067WAT     H115443   9.353   8.311   1.841
 5067WAT     H215444   9.488   8.277   1.926
 5068WAT      O15445   2.045   2.998   7.489
 5068WAT     H115446   2.093   3.082   7.466
 5068WAT     H215447   1.955   3.020   7.525
 5069WAT      O15448   3.691   9.401   3.065
 5069WAT     H115449   3.594   9.379   3.052
 5069WAT     H215450   3.724   9.357   3.149
 5070WAT      O15451   1.908   1.990   1.166
 5070WAT     H115452   1.857   1.909   1.136
 5070WAT     H215453   1.877   2.015   1.258
 5071WAT      O15454   8.212   1.236   2.897
 5071WAT     H115455   8.289   1.173   2.912
 5071WAT     H215456   8.246   1.324   2.864
 5072WAT      O15457   3.947   6.473   0.941
 5072WAT     H115458   3.954   6.392   0.883
 5072WAT     H215459   3.894   6.452   1.023
 5073WAT      O15460   6.142   1.464   9.329
 5073WAT     H115461   6.092   1.546   9.300
 5073WAT     H215462   6.082   1.406   9.383
 5074WAT      O15463   5.643   5.742   3.157
 5074WAT     H115464   5.715   5.679   3.128
 5074WAT     H215465   5.554   5.697   3.152
 5075WAT      O15466   1.014   8.851   3.173
 5075WAT     H115467   1.057   8.765   3.147
 5075WAT     H215468   0.924   8.834   3.212
 5076WAT      O15469   3.964   4.763   4.410
 5076WAT     H115470   4.034   4.766   4.481
 5076WAT     H215471   3.999   4.806   4.327
 5077WAT      O15472   2.522   8.721   3.944
 5077WAT     H115473   2.424   8.734   3.959
 5077WAT     H215474   2.561   8.669   4.020
 5078WAT      O15475   3.074   7.192   3.652
 5078WAT     H115476   3.021   7.109   3.668
 5078WAT     H215477   3.016   7.260   3.605
 5079WAT      O15478   0.067   3.327   9.753
 5079WAT     H115479   0.117   3.321   9.839
 5079WAT     H215480   0.044   3.234   9.722
 5080WAT      O15481   2.352   0.475   2.647
 5080WAT     H115482   2.426   0.506   2.587
 5080WAT     H215483   2.312   0.554   2.694
 5081WAT      O15484   5.100   5.761   7.733
 5081WAT     H115485   5.191   5.721   7.733
 5081WAT     H215486   5.088   5.818   7.814
 5082WAT      O15487   1.688   3.063   3.403
 5082WAT     H115488   1.718   2.969   3.386
 5082WAT     H215489   1.725   3.123   3.333
 5083WAT      O15490   6.262   8.707   5.059
 5083WAT     H115491   6.346   8.760   5.046
 5083WAT     H215492   6.285   8.614   5.085
 5084WAT      O15493   4.873   7.573   2.262
 5084WAT     H115494   4.966   7.568   2.225
 5084WAT     H215495   4.869   7.525   2.349
 5085WAT      O15496   3.874   2.537   6.608
 5085WAT     H115497   3.883   2.461   6.544
 5085WAT     H215498   3.933   2.612   6.579
 5086WAT      O15499   7.253   3.843   9.831
 5086WAT     H115500   7.235   3.921   9.892
 5086WAT     H215501   7.234   3.758   9.881
 5087WAT      O15502   6.619   3.930   8.883
 5087WAT     H115503   6.560   3.851   8.901
 5087WAT     H215504   6.667   3.956   8.966
 5088WAT      O15505   1.407   1.005   3.322
 5088WAT     H115506   1.401   1.100   3.291
 5088WAT     H215507   1.317   0.976   3.356
 5089WAT      O15508   0.326   9.330   9.370
 5089WAT     H115509   0.257   9.378   9.315
 5089WAT     H215510   0.416   9.345   9.330
 5090WAT      O15511   3.476   1.971   6.574
 5090WAT     H115512   3.407   1.999   6.640
 5090WAT     H215513   3.435   1.968   6.483
 5091WAT      O15514   3.049   5.945   2.488
 5091WAT     H115515   3.110   5.919   2.563
 5091WAT     H215516   2.968   5.990   2.526
 5092WAT      O15517   1.761   8.332   5.935
 5092WAT     H115518   1.797   8.374   5.852
 5092WAT     H215519   1.807   8.245   5.952
 5093WAT      O15520   6.247   7.596   1.477
 5093WAT     H115521   6.156   7.612   1.517
 5093WAT     H215522   6.245   7.513   1.422
 5094WAT      O15523   6.539   5.110   4.503
 5094WAT     H115524   6.489   5.152   4.579
 5094WAT     H215525   6.476   5.055   4.448
 5095WAT      O15526   1.982   0.485   0.722
 5095WAT     H115527   2.021   0.398   0.693
 5095WAT     H215528   2.020   0.559   0.666
 5096WAT      O15529   9.414   2.318   6.905
 5096WAT     H115530   9.447   2.351   6.817
 5096WAT     H215531   9.458   2.370   6.979
 5097WAT      O15532   9.038   4.116   2.277
 5097WAT     H115533   9.065   4.198   2.226
 5097WAT     H215534   8.947   4.130   2.317
 5098WAT      O15535   7.129   2.255   5.743
 5098WAT     H115536   7.137   2.200   5.659
 5098WAT     H215537   7.055   2.219   5.799
 5099WAT      O15538   0.225   9.766   3.684
 5099WAT     H115539   0.286   9.842   3.703
 5099WAT     H215540   0.131   9.800   3.677
 5100WAT      O15541   0.759   1.844   5.453
 5100WAT     H115542   0.840   1.899   5.434
 5100WAT     H215543   0.698   1.894   5.515
 5101WAT      O15544   6.335   0.454   4.266
 5101WAT     H115545   6.276   0.527   4.231
 5101WAT     H215546   6.318   0.442   4.364
 5102WAT      O15547   8.792   5.772   0.849
 5102WAT     H115548   8.839   5.852   0.812
 5102WAT     H215549   8.720   5.745   0.786
 5103WAT      O15550   8.010   6.661   2.023
 5103WAT     H115551   8.010   6.567   1.988
 5103WAT     H215552   8.103   6.685   2.051
 5104WAT      O15553   6.144   3.972   0.297
 5104WAT     H115554   6.178   3.910   0.367
 5104WAT     H215555   6.221   4.007   0.243
 5105WAT      O15556   5.212   9.297   6.572
 5105WAT     H115557   5.284   9.263   6.632
 5105WAT     H215558   5.138   9.229   6.567
 5106WAT      O15559   1.744   5.026   9.417
 5106WAT     H115560   1.656   5.042   9.372
 5106WAT     H215561   1.747   5.076   9.503
 5107WAT      O15562   2.498   6.812   7.210
 5107WAT     H115563   2.504   6.797   7.112
 5107WAT     H215564   2.409   6.850   7.233
 5108WAT      O15565   5.772   2.666   6.015
 5108WAT     H115566   5.792   2.571   6.039
 5108WAT     H215567   5.821   2.690   5.932
 5109WAT      O15568   3.658   3.680   8.149
 5109WAT     H115569   3.740   3.704   8.201
 5109WAT     H215570   3.641   3.582   8.156
 5110WAT      O15571   3.186   6.191   4.398
 5110WAT     H115572   3.107   6.239   4.360
 5110WAT     H215573   3.161   6.098   4.422
 5111WAT      O15574   7.115   1.644   0.335
 5111WAT     H115575   7.210   1.641   0.303
 5111WAT     H215576   7.086   1.739   0.342
 5112WAT      O15577   7.598   0.585   1.797
 5112WAT     H115578   7.604   0.673   1.845
 5112WAT     H215579   7.531   0.593   1.723
 5113WAT      O15580   9.364   3.680   3.018
 5113WAT     H115581   9.312   3.739   3.079
 5113WAT     H215582   9.359   3.716   2.925
 5114WAT      O15583   3.469   6.901   7.431
 5114WAT     H115584   3.385   6.890   7.378
 5114WAT     H215585   3.548   6.891   7.371
 5115WAT      O15586   8.950   8.151   1.962
 5115WAT     H115587   9.011   8.086   1.917
 5115WAT     H215588   9.004   8.211   2.022
 5116WAT      O15589   3.593   5.515   6.606
 5116WAT     H115590   3.520   5.465   6.560
 5116WAT     H215591   3.556   5.563   6.686
 5117WAT      O15592   1.113   2.164   8.575
 5117WAT     H115593   1.144   2.257   8.595
 5117WAT     H215594   1.192   2.103   8.569
 5118WAT      O15595   8.365   3.350   6.055
 5118WAT     H115596   8.459   3.348   6.088
 5118WAT     H215597   8.349   3.272   5.995
 5119WAT      O15598   0.189   6.235   4.072
 5119WAT     H115599   0.110   6.227   4.132
 5119WAT     H215600   0.262   6.176   4.105
 5120WAT      O15601   1.823   0.861   2.583
 5120WAT     H115602   1.747   0.799   2.566
 5120WAT     H215603   1.846   0.910   2.499
 5121WAT      O15604   3.905   9.745   9.478
 5121WAT     H115605   3.805   9.751   9.472
 5121WAT     H215606   3.946   9.821   9.428
 5122WAT      O15607   8.260   0.359   1.396
 5122WAT     H115608   8.338   0.400   1.348
 5122WAT     H215609   8.177   0.409   1.372
 5123WAT      O15610   4.360   8.164   8.289
 5123WAT     H115611   4.285   8.098   8.294
 5123WAT     H215612   4.351   8.219   8.206
 5124WAT      O15613   2.724   8.613   7.477
 5124WAT     H115614   2.711   8.600   7.575
 5124WAT     H215615   2.635   8.622   7.432
 5125WAT      O15616   2.947   3.304   2.747
 5125WAT     H115617   2.906   3.395   2.740
 5125WAT     H215618   2.996   3.283   2.662
 5126WAT      O15619   7.646   7.229   1.898
 5126WAT     H115620   7.637   7.321   1.938
 5126WAT     H215621   7.596   7.226   1.812
 5127WAT      O15622   0.145   5.808   3.209
 5127WAT     H115623   0.162   5.771   3.301
 5127WAT     H215624   0.230   5.841   3.170
 5128WAT      O15625   0.447   0.041   8.066
 5128WAT     H115626   0.423   0.020   8.161
 5128WAT     H215627   0.389   0.116   8.033
 5129WAT      O15628   7.893   2.770   1.696
 5129WAT     H115629   7.950   2.793   1.617
 5129WAT     H215630   7.935   2.806   1.779
 5130WAT      O15631   3.545   5.572   1.794
 5130WAT     H115632   3.447   5.552   1.796
 5130WAT     H215633   3.562   5.652   1.737
 5131WAT      O15634   0.378   6.488   0.547
 5131WAT     H115635   0.292   6.446   0.520
 5131WAT     H215636   0.394   6.570   0.491
 5132WAT      O15637   9.773   2.234   2.257
 5132WAT     H115638   9.680   2.256   2.284
 5132WAT     H215639   9.837   2.273   2.323
 5133WAT      O15640   8.541   2.812   4.507
 5133WAT     H115641   8.598   2.858   4.575
 5133WAT     H215642   8.583   2.822   4.416
 5134WAT      O15643   6.029   5.410   6.006
 5134WAT     H115644   5.955   5.393   6.070
 5134WAT     H215645   5.997   5.472   5.934
 5135WAT      O15646   6.871   7.825   4.977
 5135WAT     H115647   6.926   7.892   5.028
 5135WAT     H215648   6.926   7.785   4.904
 5136WAT      O15649   7.904   8.651   6.120
 5136WAT     H115650   7.865   8.706   6.194
 5136WAT     H215651   7.959   8.709   6.060
 5137WAT      O15652   0.046   2.334   3.295
 5137WAT     H115653   0.030   2.273   3.372
 5137WAT     H215654   0.114   2.403   3.319
 5138WAT      O15655   8.007   3.924   1.609
 5138WAT     H115656   7.916   3.963   1.625
 5138WAT     H215657   7.997   3.839   1.556
 5139WAT      O15658   6.297   4.307   5.104
 5139WAT     H115659   6.331   4.349   5.020
 5139WAT     H215660   6.340   4.217   5.116
 5140WAT      O15661   0.361   6.008   4.710
 5140WAT     H115662   0.376   6.103   4.682
 5140WAT     H215663   0.442   5.976   4.760
 5141WAT      O15664   7.239   4.804   6.549
 5141WAT     H115665   7.139   4.814   6.551
 5141WAT     H215666   7.263   4.708   6.539
 5142WAT      O15667   3.445   4.627   2.650
 5142WAT     H115668   3.374   4.585   2.706
 5142WAT     H215669   3.498   4.691   2.706
 5143WAT      O15670   2.212   5.898   9.754
 5143WAT     H115671   2.126   5.870   9.711
 5143WAT     H215672   2.213   5.868   9.850
 5144WAT      O15673   7.049   1.308   9.090
 5144WAT     H115674   7.147   1.319   9.106
 5144WAT     H215675   7.021   1.216   9.116
 5145WAT      O15676   5.797   9.416   9.719
 5145WAT     H115677   5.804   9.495   9.658
 5145WAT     H215678   5.729   9.434   9.789
 5146WAT      O15679   9.602   4.704   6.733
 5146WAT     H115680   9.623   4.699   6.830
 5146WAT     H215681   9.526   4.767   6.718
 5147WAT      O15682   3.497   7.334   1.658
 5147WAT     H115683   3.449   7.265   1.604
 5147WAT     H215684   3.432   7.381   1.718
 5148WAT      O15685   8.050   1.470   4.516
 5148WAT     H115686   7.966   1.486   4.568
 5148WAT     H215687   8.126   1.521   4.558
 5149WAT      O15688   1.316   9.785   0.292
 5149WAT     H115689   1.270   9.715   0.346
 5149WAT     H215690   1.272   9.874   0.307
 5150WAT      O15691   0.341   0.316   1.946
 5150WAT     H115692   0.302   0.225   1.961
 5150WAT     H215693   0.439   0.314   1.967
 5151WAT      O15694   5.940   7.802   6.247
 5151WAT     H115695   6.027   7.843   6.220
 5151WAT     H215696   5.887   7.778   6.166
 5152WAT      O15697   2.977   6.915   2.572
 5152WAT     H115698   3.004   6.819   2.568
 5152WAT     H215699   2.878   6.922   2.565
 5153WAT      O15700   5.448   2.199   8.438
 5153WAT     H115701   5.363   2.169   8.393
 5153WAT     H215702   5.503   2.251   8.374
 5154WAT      O15703   0.993   0.600   6.077
 5154WAT     H115704   0.997   0.501   6.061
 5154WAT     H215705   1.084   0.640   6.063
 5155WAT      O15706   0.064   7.619   8.564
 5155WAT     H115707   0.080   7.675   8.645
 5155WAT     H215708  -0.034   7.609   8.548
 5156WAT      O15709   1.315   4.620   4.275
 5156WAT     H115710   1.403   4.651   4.311
 5156WAT     H215711   1.243   4.683   4.303
 5157WAT      O15712   4.228   7.232   7.702
 5157WAT     H115713   4.170   7.158   7.669
 5157WAT     H215714   4.263   7.285   7.625
 5158WAT      O15715   5.189   9.305   1.336
 5158WAT     H115716   5.262   9.243   1.306
 5158WAT     H215717   5.190   9.311   1.436
 5159WAT      O15718   9.847   3.133   1.123
 5159WAT     H115719   9.833   3.221   1.079
 5159WAT     H215720   9.942   3.125   1.153
 5160WAT      O15721   5.649   7.322   2.422
 5160WAT     H115722   5.646   7.416   2.456
 5160WAT     H215723   5.631   7.322   2.323
 5161WAT      O15724   5.285   5.548   9.278
 5161WAT     H115725   5.346   5.484   9.232
 5161WAT     H215726   5.338   5.610   9.335
 5162WAT      O15727   4.861   5.743   4.321
 5162WAT     H115728   4.847   5.682   4.243
 5162WAT     H215729   4.885   5.835   4.289
 5163WAT      O15730   1.744   9.550   4.803
 5163WAT     H115731   1.689   9.480   4.848
 5163WAT     H215732   1.742   9.634   4.858
 5164WAT      O15733   8.615   4.337   7.727
 5164WAT     H115734   8.558   4.351   7.808
 5164WAT     H215735   8.561   4.353   7.645
 5165WAT      O15736   9.230   9.761   3.826
 5165WAT     H115737   9.281   9.842   3.796
 5165WAT     H215738   9.287   9.680   3.814
 5166WAT      O15739   6.124   3.529   8.360
 5166WAT     H115740   6.157   3.542   8.453
 5166WAT     H215741   6.174   3.454   8.316
 5167WAT      O15742   1.769   4.590   3.261
 5167WAT     H115743   1.694   4.563   3.320
 5167WAT     H215744   1.752   4.558   3.168
 5168WAT      O15745   7.594   2.019   2.648
 5168WAT     H115746   7.542   2.102   2.630
 5168WAT     H215747   7.555   1.972   2.728
 5169WAT      O15748   5.860   7.819   1.197
 5169WAT     H115749   5.760   7.823   1.203
 5169WAT     H215750   5.887   7.744   1.137
 5170WAT      O15751   9.051   6.394   2.635
 5170WAT     H115752   9.090   6.360   2.721
 5170WAT     H215753   8.956   6.419   2.650
 5171WAT      O15754   0.542   9.346   1.267
 5171WAT     H115755   0.595   9.269   1.231
 5171WAT     H215756   0.530   9.335   1.365
 5172WAT      O15757   8.116   5.325   6.864
 5172WAT     H115758   8.173   5.391   6.816
 5172WAT     H215759   8.145   5.318   6.959
 5173WAT      O15760   4.729   7.545   2.796
 5173WAT     H115761   4.817   7.509   2.763
 5173WAT     H215762   4.655   7.503   2.744
 5174WAT      O15763   8.487   0.885   6.917
 5174WAT     H115764   8.487   0.863   6.819
 5174WAT     H215765   8.582   0.899   6.948
 5175WAT      O15766   8.713   9.731   2.189
 5175WAT     H115767   8.619   9.733   2.156
 5175WAT     H215768   8.761   9.653   2.148
 5176WAT      O15769   1.205   7.723   1.201
 5176WAT     H115770   1.186   7.695   1.107
 5176WAT     H215771   1.300   7.755   1.209
 5177WAT      O15772   3.138   0.101   5.911
 5177WAT     H115773   3.158   0.012   5.952
 5177WAT     H215774   3.162   0.099   5.814
 5178WAT      O15775   3.101   3.945   3.095
 5178WAT     H115776   3.069   3.926   3.002
 5178WAT     H215777   3.177   3.884   3.117
 5179WAT      O15778   3.323   8.332   1.622
 5179WAT     H115779   3.366   8.391   1.690
 5179WAT     H215780   3.390   8.266   1.587
 5180WAT      O15781   6.905   4.636   0.740
 5180WAT     H115782   6.872   4.586   0.661
 5180WAT     H215783   6.876   4.732   0.734
 5181WAT      O15784   4.295   3.063   2.931
 5181WAT     H115785   4.260   3.002   2.859
 5181WAT     H215786   4.328   3.008   3.008
 5182WAT      O15787   5.771   4.703   5.954
 5182WAT     H115788   5.860   4.716   5.911
 5182WAT     H215789   5.747   4.606   5.954
 5183WAT      O15790   0.780   5.501   3.193
 5183WAT     H115791   0.755   5.485   3.097
 5183WAT     H215792   0.712   5.459   3.252
 5184WAT      O15793   9.837   6.335   4.185
 5184WAT     H115794   9.850   6.357   4.282
 5184WAT     H215795   9.740   6.330   4.165
 5185WAT      O15796   1.350   5.465   2.972
 5185WAT     H115797   1.326   5.436   2.879
 5185WAT     H215798   1.357   5.384   3.030
 5186WAT      O15799   1.451   9.626   9.447
 5186WAT     H115800   1.513   9.680   9.390
 5186WAT     H215801   1.503   9.576   9.516
 5187WAT      O15802   4.249   1.747   7.769
 5187WAT     H115803   4.185   1.822   7.787
 5187WAT     H215804   4.239   1.716   7.674
 5188WAT      O15805   8.725   9.011   3.428
 5188WAT     H115806   8.737   9.075   3.504
 5188WAT     H215807   8.770   9.047   3.347
 5189WAT      O15808   9.327   3.212   7.024
 5189WAT     H115809   9.257   3.149   6.990
 5189WAT     H215810   9.354   3.275   6.950
 5190WAT      O15811   4.067   0.728   1.442
 5190WAT     H115812   4.080   0.682   1.354
 5190WAT     H215813   4.156   0.759   1.477
 5191WAT      O15814   9.349   8.675   2.587
 5191WAT     H115815   9.332   8.633   2.677
 5191WAT     H215816   9.363   8.773   2.598
 5192WAT      O15817   3.998   2.076   8.402
 5192WAT     H115818   3.963   1.983   8.386
 5192WAT     H215819   4.073   2.095   8.339
 5193WAT      O15820   0.084   7.607   2.442
 5193WAT     H115821   0.054   7.512   2.442
 5193WAT     H215822   0.089   7.641   2.348
 5194WAT      O15823   4.063   3.172   3.004
 5194WAT     H115824   4.156   3.137   2.999
 5194WAT     H215825   4.007   3.112   3.060
 5195WAT      O15826   2.098   4.606   9.069
 5195WAT     H115827   2.136   4.697   9.050
 5195WAT     H215828   2.169   4.548   9.109
 5196WAT      O15829   1.297   2.379   0.781
 5196WAT     H115830   1.331   2.469   0.809
 5196WAT     H215831   1.226   2.349   0.845
 5197WAT      O15832   0.291   2.051   8.372
 5197WAT     H115833   0.297   2.038   8.273
 5197WAT     H215834   0.303   2.148   8.393
 5198WAT      O15835   8.271   8.675   3.577
 5198WAT     H115836   8.177   8.642   3.593
 5198WAT     H215837   8.318   8.612   3.515
 5199WAT      O15838   5.277   8.969   1.429
 5199WAT     H115839   5.292   8.997   1.335
 5199WAT     H215840   5.340   9.017   1.490
 5200WAT      O15841   2.867   8.511   6.185
 5200WAT     H115842   2.840   8.522   6.090
 5200WAT     H215843   2.865   8.600   6.230
 5201WAT      O15844   0.786   0.898   4.985
 5201WAT     H115845   0.742   0.913   5.074
 5201WAT     H215846   0.715   0.889   4.915
 5202WAT      O15847   2.676   1.635   9.369
 5202WAT     H115848   2.614   1.575   9.318
 5202WAT     H215849   2.692   1.718   9.317
 5203WAT      O15850   1.417   5.177   4.955
 5203WAT     H115851   1.447   5.134   4.870
 5203WAT     H215852   1.317   5.177   4.958
 5204WAT      O15853   7.159   0.595   2.751
 5204WAT     H115854   7.230   0.651   2.795
 5204WAT     H215855   7.190   0.569   2.659
 5205WAT      O15856   1.843   8.091   9.675
 5205WAT     H115857   1.938   8.110   9.699
 5205WAT     H215858   1.821   8.137   9.589
 5206WAT      O15859   8.680   9.527   7.892
 5206WAT     H115860   8.711   9.436   7.863
 5206WAT     H215861   8.730   9.554   7.974
 5207WAT      O15862   1.207   0.954   7.147
 5207WAT     H115863   1.167   1.000   7.226
 5207WAT     H215864   1.305   0.971   7.145
 5208WAT      O15865   4.745   1.088   4.126
 5208WAT     H115866   4.674   1.140   4.079
 5208WAT     H215867   4.751   1.120   4.221
 5209WAT      O15868   3.744   6.869   6.322
 5209WAT     H115869   3.765   6.967   6.318
 5209WAT     H215870   3.751   6.829   6.231
 5210WAT      O15871   2.201   3.322   5.191
 5210WAT     H115872   2.161   3.309   5.282
 5210WAT     H215873   2.217   3.419   5.175
 5211WAT      O15874   7.029   9.015   0.814
 5211WAT     H115875   7.016   8.992   0.718
 5211WAT     H215876   6.942   9.009   0.863
 5212WAT      O15877   6.281   5.325   6.835
 5212WAT     H115878   6.223   5.273   6.898
 5212WAT     H215879   6.364   5.355   6.882
 5213WAT      O15880   3.881   0.750   9.489
 5213WAT     H115881   3.842   0.661   9.464
 5213WAT     H215882   3.942   0.738   9.567
 5214WAT      O15883   3.158   1.230   7.447
 5214WAT     H115884   3.145   1.273   7.358
 5214WAT     H215885   3.119   1.138   7.446
 5215WAT      O15886   0.808   6.001   9.538
 5215WAT     H115887   0.799   5.925   9.474
 5215WAT     H215888   0.821   6.086   9.487
 5216WAT      O15889   9.615   9.780   4.818
 5216WAT     H115890   9.618   9.753   4.914
 5216WAT     H215891   9.539   9.735   4.772
 5217WAT      O15892   1.492   0.287   1.798
 5217WAT     H115893   1.539   0.199   1.797
 5217WAT     H215894   1.530   0.346   1.728
 5218WAT      O15895   4.773   3.115   1.266
 5218WAT     H115896   4.743   3.099   1.360
 5218WAT     H215897   4.695   3.103   1.204
 5219WAT      O15898   8.426   4.302   3.250
 5219WAT     H115899   8.384   4.320   3.162
 5219WAT     H215900   8.525   4.291   3.239
 5220WAT      O15901   1.853   1.895   7.518
 5220WAT     H115902   1.944   1.904   7.559
 5220WAT     H215903   1.791   1.962   7.559
 5221WAT      O15904   5.803   3.323  -0.001
 5221WAT     H115905   5.790   3.229  -0.031
 5221WAT     H215906   5.844   3.324   0.090
 5222WAT      O15907   7.563   8.369   3.074
 5222WAT     H115908   7.589   8.287   3.023
 5222WAT     H215909   7.553   8.346   3.171
 5223WAT      O15910   8.574   9.540   8.801
 5223WAT     H115911   8.661   9.537   8.751
 5223WAT     H215912   8.576   9.615   8.867
 5224WAT      O15913   6.637   7.169   3.897
 5224WAT     H115914   6.640   7.237   3.824
 5224WAT     H215915   6.545   7.165   3.935
 5225WAT      O15916   9.417   4.005   9.512
 5225WAT     H115917   9.495   4.002   9.449
 5225WAT     H215918   9.409   4.097   9.551
 5226WAT      O15919   7.962   4.541   0.414
 5226WAT     H115920   7.999   4.608   0.350
 5226WAT     H215921   7.863   4.536   0.405
 5227WAT      O15922   6.118   5.934   4.502
 5227WAT     H115923   6.045   5.991   4.464
 5227WAT     H215924   6.083   5.842   4.517
 5228WAT      O15925   1.718   5.236   5.721
 5228WAT     H115926   1.669   5.319   5.745
 5228WAT     H215927   1.816   5.250   5.734
 5229WAT      O15928   7.036   1.406   3.481
 5229WAT     H115929   7.071   1.407   3.574
 5229WAT     H215930   7.049   1.315   3.441
 5230WAT      O15931   3.220   7.911   8.855
 5230WAT     H115932   3.173   7.884   8.771
 5230WAT     H215933   3.195   7.847   8.928
 5231WAT      O15934   7.260   7.868   6.072
 5231WAT     H115935   7.219   7.941   6.127
 5231WAT     H215936   7.310   7.805   6.131
 5232WAT      O15937   5.392   7.812   1.886
 5232WAT     H115938   5.377   7.843   1.792
 5232WAT     H215939   5.308   7.771   1.921
 5233WAT      O15940   4.451   9.663   8.516
 5233WAT     H115941   4.377   9.636   8.455
 5233WAT     H215942   4.431   9.754   8.554
 5234WAT      O15943   0.750   8.014   0.013
 5234WAT     H115944   0.846   8.003   0.039
 5234WAT     H215945   0.698   8.049   0.090
 5235WAT      O15946   9.550   3.857   2.019
 5235WAT     H115947   9.529   3.901   1.932
 5235WAT     H215948   9.482   3.884   2.087
 5236WAT      O15949   7.718   5.948   1.003
 5236WAT     H115950   7.663   5.930   1.084
 5236WAT     H215951   7.781   5.871   0.988
 5237WAT      O15952   9.140   1.651   4.325
 5237WAT     H115953   9.112   1.563   4.288
 5237WAT     H215954   9.202   1.697   4.260
 5238WAT      O15955   9.263   5.670   2.563
 5238WAT     H115956   9.323   5.624   2.497
 5238WAT     H215957   9.293   5.649   2.656
 5239WAT      O15958   5.907   4.072   0.380
 5239WAT     H115959   5.982   4.034   0.326
 5239WAT     H215960   5.848   4.128   0.322
 5240WAT      O15961   8.204   4.194   3.367
 5240WAT     H115962   8.158   4.282   3.382
 5240WAT     H215963   8.295   4.210   3.328
 5241WAT      O15964   9.763   2.197   6.011
 5241WAT     H115965   9.720   2.109   5.990
 5241WAT     H215966   9.824   2.223   5.935
 5242WAT      O15967   7.916   1.641   0.184
 5242WAT     H115968   7.841   1.698   0.218
 5242WAT     H215969   7.990   1.641   0.252
 5243WAT      O15970   1.403   9.017   7.540
 5243WAT     H115971   1.393   9.001   7.442
 5243WAT     H215972   1.379   8.933   7.590
 5244WAT      O15973   0.196   8.854   2.429
 5244WAT     H115974   0.100   8.866   2.456
 5244WAT     H215975   0.219   8.757   2.430
 5245WAT      O15976   3.531   6.269   1.502
 5245WAT     H115977   3.470   6.216   1.442
 5245WAT     H215978   3.498   6.363   1.508
 5246WAT      O15979   1.059   4.131   2.668
 5246WAT     H115980   1.038   4.084   2.753
 5246WAT     H215981   0.997   4.100   2.596
 5247WAT      O15982   4.649   4.784   7.626
 5247WAT     H115983   4.747   4.793   7.644
 5247WAT     H215984   4.625   4.688   7.620
 5248WAT      O15985   1.641   9.234   4.783
 5248WAT     H115986   1.599   9.278   4.704
 5248WAT     H215987   1.569   9.202   4.845
 5249WAT      O15988   2.537   4.977   3.332
 5249WAT     H115989   2.598   4.899   3.320
 5249WAT     H215990   2.575   5.057   3.286
 5250WAT      O15991   4.636   0.952   7.080
 5250WAT     H115992   4.691   0.869   7.077
 5250WAT     H215993   4.610   0.978   6.986
 5251WAT      O15994   6.074   4.504   4.692
 5251WAT     H115995   6.065   4.530   4.788
 5251WAT     H215996   6.045   4.409   4.680
 5252WAT      O15997   6.505   4.606   2.870
 5252WAT     H115998   6.471   4.569   2.784
 5252WAT     H215999   6.428   4.630   2.929
 5253WAT      O16000   0.803   5.052   8.429
 5253WAT     H116001   0.727   5.108   8.462
 5253WAT     H216002   0.772   4.999   8.349
 5254WAT      O16003   5.225   1.897   0.772
 5254WAT     H116004   5.281   1.942   0.702
 5254WAT     H216005   5.232   1.798   0.762
 5255WAT      O16006   2.515   7.220   1.255
 5255WAT     H116007   2.422   7.255   1.264
 5255WAT     H216008   2.533   7.153   1.328
 5256WAT      O16009   2.588   9.147   9.015
 5256WAT     H116010   2.492   9.124   8.995
 5256WAT     H216011   2.624   9.082   9.082
 5257WAT      O16012   4.804   8.044   4.906
 5257WAT     H116013   4.795   8.089   4.817
 5257WAT     H216014   4.897   8.009   4.917
 5258WAT      O16015   2.507   4.687   9.444
 5258WAT     H116016   2.577   4.756   9.464
 5258WAT     H216017   2.481   4.693   9.347
 5259WAT      O16018   8.498   0.720   4.774
 5259WAT     H116019   8.460   0.785   4.840
 5259WAT     H216020   8.562   0.659   4.821
 5260WAT      O16021   4.036   6.177   1.903
 5260WAT     H116022   4.088   6.242   1.848
 5260WAT     H216023   4.098   6.110   1.944
 5261WAT      O16024   3.402   6.311   1.926
 5261WAT     H116025   3.484   6.258   1.948
 5261WAT     H216026   3.402   6.396   1.979
 5262WAT      O16027   6.853   1.881   4.119
 5262WAT     H116028   6.795   1.847   4.045
 5262WAT     H216029   6.935   1.923   4.080
 5263WAT      O16030   9.014   6.608   7.523
 5263WAT     H116031   8.918   6.587   7.504
 5263WAT     H216032   9.071   6.534   7.487
 5264WAT      O16033   4.155   8.968   5.114
 5264WAT     H116034   4.069   8.947   5.162
 5264WAT     H216035   4.232   8.956   5.177
 5265WAT      O16036   3.175   9.692   8.287
 5265WAT     H116037   3.120   9.726   8.363
 5265WAT     H216038   3.127   9.616   8.242
 5266WAT      O16039   3.445   8.769   8.200
 5266WAT     H116040   3.473   8.862   8.227
 5266WAT     H216041   3.431   8.714   8.282
 5267WAT      O16042   7.187   6.250   6.803
 5267WAT     H116043   7.256   6.202   6.750
 5267WAT     H216044   7.098   6.205   6.791
 5268WAT      O16045   3.629   1.411   9.854
 5268WAT     H116046   3.633   1.340   9.925
 5268WAT     H216047   3.721   1.424   9.815
 5269WAT      O16048   2.791   3.597   5.365
 5269WAT     H116049   2.811   3.676   5.307
 5269WAT     H216050   2.699   3.563   5.346
 5270WAT      O16051   7.351   2.170   6.671
 5270WAT     H116052   7.340   2.203   6.578
 5270WAT     H216053   7.418   2.226   6.719
 5271WAT      O16054   7.184   3.455   6.268
 5271WAT     H116055   7.270   3.497   6.238
 5271WAT     H216056   7.133   3.422   6.188
 5272WAT      O16057   9.027   4.568   0.681
 5272WAT     H116058   9.106   4.584   0.740
 5272WAT     H216059   8.947   4.545   0.737
 5273WAT      O16060   8.840   3.924   4.464
 5273WAT     H116061   8.887   3.934   4.376
 5273WAT     H216062   8.891   3.975   4.534
 5274WAT      O16063   9.803   3.346   8.191
 5274WAT     H116064   9.844   3.435   8.214
 5274WAT     H216065   9.825   3.323   8.097
 5275WAT      O16066   8.369   3.208   2.994
 5275WAT     H116067   8.288   3.211   2.936
 5275WAT     H216068   8.359   3.274   3.069
 5276WAT      O16069   7.659   8.407   9.477
 5276WAT     H116070   7.731   8.338   9.478
 5276WAT     H216071   7.570   8.362   9.469
 5277WAT      O16072   2.183   3.031   0.719
 5277WAT     H116073   2.197   3.077   0.631
 5277WAT     H216074   2.272   3.001   0.754
 5278WAT      O16075   0.635   2.412   0.663
 5278WAT     H116076   0.547   2.367   0.670
 5278WAT     H216077   0.627   2.492   0.603
 5279WAT      O16078   4.994   7.490   4.498
 5279WAT     H116079   4.964   7.403   4.536
 5279WAT     H216080   5.092   7.501   4.514
 5280WAT      O16081   1.162   5.203   6.802
 5280WAT     H116082   1.078   5.168   6.760
 5280WAT     H216083   1.227   5.129   6.814
 5281WAT      O16084   8.107   1.221   1.384
 5281WAT     H116085   8.022   1.221   1.437
 5281WAT     H216086   8.132   1.315   1.361
 5282WAT      O16087   8.225   3.263   8.506
 5282WAT     H116088   8.147   3.247   8.565
 5282WAT     H216089   8.287   3.185   8.510
 5283WAT      O16090   7.108   8.942   0.387
 5283WAT     H116091   7.141   9.026   0.344
 5283WAT     H216092   7.039   8.965   0.456
 5284WAT      O16093   5.386   7.026   8.775
 5284WAT     H116094   5.383   6.937   8.821
 5284WAT     H216095   5.451   7.085   8.822
 5285WAT      O16096   4.130   4.416   9.592
 5285WAT     H116097   4.199   4.346   9.575
 5285WAT     H216098   4.159   4.476   9.666
 5286WAT      O16099   7.853   8.932   9.508
 5286WAT     H116100   7.768   8.890   9.478
 5286WAT     H216101   7.881   9.002   9.442
 5287WAT      O16102   2.135   1.438   4.990
 5287WAT     H116103   2.174   1.507   5.051
 5287WAT     H216104   2.138   1.349   5.035
 5288WAT      O16105   9.431   9.612   2.885
 5288WAT     H116106   9.359   9.662   2.837
 5288WAT     H216107   9.401   9.593   2.979
 5289WAT      O16108   1.086   7.516   3.838
 5289WAT     H116109   1.102   7.546   3.932
 5289WAT     H216110   0.998   7.469   3.833
 5290WAT      O16111   8.904   9.619   8.318
 5290WAT     H116112   8.952   9.533   8.336
 5290WAT     H216113   8.905   9.675   8.401
 5291WAT      O16114   7.155   6.441   3.303
 5291WAT     H116115   7.153   6.358   3.359
 5291WAT     H216116   7.065   6.457   3.264
 5292WAT      O16117   1.596   5.007   3.633
 5292WAT     H116118   1.624   4.937   3.568
 5292WAT     H216119   1.661   5.083   3.629
 5293WAT      O16120   1.719   5.115   8.303
 5293WAT     H116121   1.739   5.209   8.276
 5293WAT     H216122   1.647   5.115   8.373
 5294WAT      O16123   8.491   5.022   5.003
 5294WAT     H116124   8.468   5.111   4.964
 5294WAT     H216125   8.583   4.996   4.974
 5295WAT      O16126   2.360   5.465   7.825
 5295WAT     H116127   2.430   5.397   7.848
 5295WAT     H216128   2.299   5.479   7.902
 5296WAT      O16129   6.094   0.673   8.499
 5296WAT     H116130   6.069   0.590   8.450
 5296WAT     H216131   6.163   0.723   8.446
 5297WAT      O16132   3.933   5.791   8.060
 5297WAT     H116133   4.020   5.771   8.015
 5297WAT     H216134   3.864   5.812   7.991
 5298WAT      O16135   6.956   0.072   4.280
 5298WAT     H116136   6.994   0.149   4.230
 5298WAT     H216137   6.963  -0.011   4.224
 5299WAT      O16138   9.239   4.251   3.051
 5299WAT     H116139   9.229   4.342   3.010
 5299WAT     H216140   9.190   4.184   2.994
 5300WAT      O16141   6.641   7.176   2.834
 5300WAT     H116142   6.685   7.087   2.821
 5300WAT     H216143   6.587   7.175   2.918
 5301WAT      O16144   1.857   9.297   8.462
 5301WAT     H116145   1.862   9.197   8.460
 5301WAT     H216146   1.779   9.327   8.406
 5302WAT      O16147   7.392   8.209   2.067
 5302WAT     H116148   7.339   8.125   2.061
 5302WAT     H216149   7.476   8.192   2.119
 5303WAT      O16150   8.696   1.366   9.232
 5303WAT     H116151   8.779   1.328   9.273
 5303WAT     H216152   8.639   1.404   9.304
 5304WAT      O16153   9.395   0.138   7.998
 5304WAT     H116154   9.308   0.140   8.047
 5304WAT     H216155   9.388   0.190   7.913
 5305WAT      O16156   1.013   6.164   9.179
 5305WAT     H116157   1.060   6.212   9.253
 5305WAT     H216158   0.914   6.177   9.189
 5306WAT      O16159   0.480   8.613   7.076
 5306WAT     H116160   0.408   8.682   7.083
 5306WAT     H216161   0.473   8.551   7.154
 5307WAT      O16162   4.597   7.780   6.809
 5307WAT     H116163   4.522   7.744   6.754
 5307WAT     H216164   4.601   7.731   6.896
 5308WAT      O16165   1.169   3.300   2.326
 5308WAT     H116166   1.229   3.306   2.405
 5308WAT     H216167   1.222   3.312   2.242
 5309WAT      O16168   0.053   2.130   4.189
 5309WAT     H116169   0.152   2.123   4.173
 5309WAT     H216170   0.035   2.199   4.259
 5310WAT      O16171   4.701   4.586   4.596
 5310WAT     H116172   4.657   4.629   4.517
 5310WAT     H216173   4.793   4.555   4.570
 5311WAT      O16174   1.009   9.386   8.735
 5311WAT     H116175   0.963   9.400   8.822
 5311WAT     H216176   1.100   9.348   8.751
 5312WAT      O16177   5.119   6.346   4.165
 5312WAT     H116178   5.117   6.302   4.255
 5312WAT     H216179   5.092   6.441   4.174
 5313WAT      O16180   6.496   3.621   7.935
 5313WAT     H116181   6.577   3.571   7.903
 5313WAT     H216182   6.450   3.664   7.858
 5314WAT      O16183   0.489   8.411   9.294
 5314WAT     H116184   0.406   8.357   9.305
 5314WAT     H216185   0.540   8.378   9.215
 5315WAT      O16186   7.408   3.703   9.603
 5315WAT     H116187   7.398   3.799   9.576
 5315WAT     H216188   7.317   3.661   9.610
 5316WAT      O16189   2.136   8.918   5.710
 5316WAT     H116190   2.128   8.961   5.800
 5316WAT     H216191   2.048   8.920   5.663
 5317WAT      O16192   4.124   2.944   0.738
 5317WAT     H116193   4.133   2.987   0.648
 5317WAT     H216194   4.202   2.885   0.755
 5318WAT      O16195   4.411   8.781   3.728
 5318WAT     H116196   4.347   8.854   3.706
 5318WAT     H216197   4.382   8.697   3.681
 5319WAT      O16198   0.088   4.334   8.915
 5319WAT     H116199   0.093   4.343   9.015
 5319WAT     H216200  -0.008   4.336   8.886
 5320WAT      O16201   1.730   8.278   0.329
 5320WAT     H116202   1.733   8.180   0.308
 5320WAT     H216203   1.797   8.326   0.274
 5321WAT      O16204   6.234   7.459   2.253
 5321WAT     H116205   6.240   7.412   2.165
 5321WAT     H216206   6.170   7.536   2.245
 5322WAT      O16207   2.639   5.973   7.796
 5322WAT     H116208   2.600   5.956   7.886
 5322WAT     H216209   2.720   5.916   7.783
 5323WAT      O16210   0.157   0.200   2.288
 5323WAT     H116211   0.168   0.154   2.200
 5323WAT     H216212   0.137   0.132   2.359
 5324WAT      O16213   3.532   5.937   9.211
 5324WAT     H116214   3.595   6.011   9.234
 5324WAT     H216215   3.439   5.962   9.240
 5325WAT      O16216   2.424   4.962   6.996
 5325WAT     H116217   2.422   5.020   7.078
 5325WAT     H216218   2.438   4.867   7.024
 5326WAT      O16219   4.111   1.932   4.081
 5326WAT     H116220   4.075   1.957   4.171
 5326WAT     H216221   4.193   1.985   4.062
 5327WAT      O16222   8.043   4.998   5.089
 5327WAT     H116223   8.054   5.003   5.189
 5327WAT     H216224   8.116   5.049   5.045
 5328WAT      O16225   5.360   5.228   6.935
 5328WAT     H116226   5.275   5.178   6.915
 5328WAT     H216227   5.395   5.270   6.851
 5329WAT      O16228   2.955   7.149   8.318
 5329WAT     H116229   2.985   7.097   8.238
 5329WAT     H216230   3.025   7.215   8.344
 5330WAT      O16231   3.409   7.755   8.453
 5330WAT     H116232   3.469   7.676   8.459
 5330WAT     H216233   3.448   7.822   8.390
 5331WAT      O16234   7.204   7.458   0.851
 5331WAT     H116235   7.105   7.474   0.852
 5331WAT     H216236   7.246   7.519   0.784
 5332WAT      O16237   9.753   8.285   5.456
 5332WAT     H116238   9.842   8.244   5.437
 5332WAT     H216239   9.763   8.383   5.472
 5333WAT      O16240   8.021   2.805   2.632
 5333WAT     H116241   7.936   2.830   2.678
 5333WAT     H216242   8.002   2.778   2.537
 5334WAT      O16243   7.885   3.609   0.237
 5334WAT     H116244   7.946   3.665   0.181
 5334WAT     H216245   7.911   3.617   0.334
 5335WAT      O16246   0.370   5.045   1.390
 5335WAT     H116247   0.285   4.999   1.366
 5335WAT     H216248   0.390   5.116   1.322
 5336WAT      O16249   2.198   1.947   2.235
 5336WAT     H116250   2.202   1.888   2.315
 5336WAT     H216251   2.263   2.023   2.246
 5337WAT      O16252   4.136   8.207   9.775
 5337WAT     H116253   4.138   8.121   9.724
 5337WAT     H216254   4.088   8.193   9.862
 5338WAT      O16255   7.258   1.758   2.425
 5338WAT     H116256   7.253   1.757   2.325
 5338WAT     H216257   7.279   1.851   2.456
 5339WAT      O16258   5.460   6.384   4.198
 5339WAT     H116259   5.391   6.455   4.210
 5339WAT     H216260   5.426   6.314   4.135
 5340WAT      O16261   1.479   8.813   0.535
 5340WAT     H116262   1.536   8.765   0.601
 5340WAT     H216263   1.403   8.858   0.583
 5341WAT      O16264   8.203   0.311   6.081
 5341WAT     H116265   8.152   0.362   6.150
 5341WAT     H216266   8.265   0.246   6.126
 5342WAT      O16267   8.942   3.410   6.588
 5342WAT     H116268   9.030   3.418   6.541
 5342WAT     H216269   8.881   3.352   6.534
 5343WAT      O16270   4.393   7.415   5.557
 5343WAT     H116271   4.438   7.473   5.490
 5343WAT     H216272   4.294   7.432   5.554
 5344WAT      O16273   6.478   4.431   6.290
 5344WAT     H116274   6.465   4.350   6.232
 5344WAT     H216275   6.396   4.488   6.286
 5345WAT      O16276   3.737   7.484   2.150
 5345WAT     H116277   3.750   7.393   2.111
 5345WAT     H216278   3.681   7.478   2.232
 5346WAT      O16279   9.616   4.049   8.313
 5346WAT     H116280   9.532   4.030   8.261
 5346WAT     H216281   9.631   4.147   8.318
 5347WAT      O16282   2.685   6.539   9.725
 5347WAT     H116283   2.727   6.485   9.651
 5347WAT     H216284   2.731   6.628   9.731
 5348WAT      O16285   0.076   6.724   1.273
 5348WAT     H116286   0.061   6.636   1.319
 5348WAT     H216287   0.080   6.797   1.342
 5349WAT      O16288   4.324   3.438   5.266
 5349WAT     H116289   4.297   3.501   5.339
 5349WAT     H216290   4.364   3.490   5.190
 5350WAT      O16291   9.170   4.769   1.776
 5350WAT     H116292   9.243   4.780   1.844
 5350WAT     H216293   9.200   4.807   1.689
 5351WAT      O16294   4.825   5.412   8.151
 5351WAT     H116295   4.902   5.422   8.088
 5351WAT     H216296   4.741   5.443   8.106
 5352WAT      O16297   4.601   6.187   3.997
 5352WAT     H116298   4.533   6.132   3.948
 5352WAT     H216299   4.570   6.203   4.091
 5353WAT      O16300   1.586   2.076   1.586
 5353WAT     H116301   1.505   2.023   1.558
 5353WAT     H216302   1.576   2.103   1.681
 5354WAT      O16303   9.598   3.278   0.850
 5354WAT     H116304   9.685   3.314   0.817
 5354WAT     H216305   9.605   3.178   0.860
 5355WAT      O16306   0.639   1.022   6.882
 5355WAT     H116307   0.707   0.960   6.922
 5355WAT     H216308   0.593   0.977   6.807
 5356WAT      O16309   4.159   3.512   5.903
 5356WAT     H116310   4.171   3.519   6.002
 5356WAT     H216311   4.226   3.448   5.866
 5357WAT      O16312   7.388   5.160   0.588
 5357WAT     H116313   7.451   5.236   0.572
 5357WAT     H216314   7.439   5.075   0.597
 5358WAT      O16315   1.541   2.407   7.677
 5358WAT     H116316   1.593   2.376   7.598
 5358WAT     H216317   1.593   2.477   7.726
 5359WAT      O16318   9.806   5.772   7.509
 5359WAT     H116319   9.861   5.721   7.576
 5359WAT     H216320   9.843   5.864   7.499
 5360WAT      O16321   2.637   5.719   0.835
 5360WAT     H116322   2.685   5.634   0.816
 5360WAT     H216323   2.587   5.711   0.922
 5361WAT      O16324   8.117   6.101   4.325
 5361WAT     H116325   8.195   6.154   4.291
 5361WAT     H216326   8.109   6.113   4.424
 5362WAT      O16327   4.141   3.074   6.683
 5362WAT     H116328   4.072   3.005   6.662
 5362WAT     H216329   4.232   3.036   6.669
 5363WAT      O16330   4.081   1.469   4.853
 5363WAT     H116331   4.042   1.377   4.854
 5363WAT     H216332   4.124   1.487   4.942
 5364WAT      O16333   2.326   8.406   4.562
 5364WAT     H116334   2.240   8.354   4.559
 5364WAT     H216335   2.386   8.376   4.487
 5365WAT      O16336   7.180   4.726   1.982
 5365WAT     H116337   7.161   4.673   1.899
 5365WAT     H216338   7.145   4.819   1.971
 5366WAT      O16339   7.324   5.342   0.869
 5366WAT     H116340   7.397   5.280   0.898
 5366WAT     H216341   7.237   5.312   0.908
 5367WAT      O16342   9.390   4.388   5.439
 5367WAT     H116343   9.445   4.469   5.463
 5367WAT     H216344   9.315   4.416   5.380
 5368WAT      O16345   5.664   3.124   8.537
 5368WAT     H116346   5.676   3.222   8.523
 5368WAT     H216347   5.746   3.075   8.507
 5369WAT      O16348   2.572   6.974   9.803
 5369WAT     H116349   2.654   6.920   9.781
 5369WAT     H216350   2.493   6.936   9.754
 5370WAT      O16351   1.902   3.029   9.742
 5370WAT     H116352   1.886   3.063   9.650
 5370WAT     H216353   1.815   3.018   9.789
 5371WAT      O16354   8.636   0.441   0.848
 5371WAT     H116355   8.612   0.515   0.909
 5371WAT     H216356   8.707   0.471   0.784
 5372WAT      O16357   7.863   8.030   8.722
 5372WAT     H116358   7.777   8.033   8.672
 5372WAT     H216359   7.884   8.122   8.757
 5373WAT      O16360   2.311   0.059   6.138
 5373WAT     H116361   2.357   0.050   6.227
 5373WAT     H216362   2.372   0.029   6.065
 5374WAT      O16363   1.668   1.881   0.028
 5374WAT     H116364   1.607   1.960   0.035
 5374WAT     H216365   1.614   1.797   0.037
 5375WAT      O16366   2.875   7.306   7.940
 5375WAT     H116367   2.887   7.211   7.970
 5375WAT     H216368   2.921   7.319   7.852
 5376WAT      O16369   9.723   7.907   2.432
 5376WAT     H116370   9.723   7.811   2.461
 5376WAT     H216371   9.632   7.932   2.399
 5377WAT      O16372   7.715   2.462   6.590
 5377WAT     H116373   7.695   2.471   6.492
 5377WAT     H216374   7.814   2.469   6.604
 5378WAT      O16375   7.037   5.632   1.341
 5378WAT     H116376   7.097   5.572   1.288
 5378WAT     H216377   6.960   5.580   1.376
 5379WAT      O16378   5.963   7.343   3.628
 5379WAT     H116379   5.996   7.431   3.595
 5379WAT     H216380   5.882   7.316   3.575
 5380WAT      O16381   5.162   7.839   3.419
 5380WAT     H116382   5.148   7.766   3.352
 5380WAT     H216383   5.095   7.911   3.404
 5381WAT      O16384   4.282   3.054   5.395
 5381WAT     H116385   4.329   3.079   5.310
 5381WAT     H216386   4.350   3.033   5.466
 5382WAT      O16387   4.568   4.560   9.635
 5382WAT     H116388   4.528   4.508   9.560
 5382WAT     H216389   4.662   4.584   9.613
 5383WAT      O16390   5.969   6.972   1.494
 5383WAT     H116391   6.024   6.889   1.477
 5383WAT     H216392   6.018   7.030   1.559
 5384WAT      O16393   3.324   5.580   8.806
 5384WAT     H116394   3.276   5.496   8.783
 5384WAT     H216395   3.400   5.594   8.742
 5385WAT      O16396   0.419   3.994   0.982
 5385WAT     H116397   0.473   4.021   1.061
 5385WAT     H216398   0.466   3.921   0.932
 5386WAT      O16399   2.573   8.134   5.377
 5386WAT     H116400   2.641   8.069   5.411
 5386WAT     H216401   2.515   8.164   5.453
 5387WAT      O16402   3.638   1.416   3.388
 5387WAT     H116403   3.723   1.459   3.419
 5387WAT     H216404   3.569   1.486   3.371
 5388WAT      O16405   4.999   6.761   0.069
 5388WAT     H116406   4.904   6.735   0.085
 5388WAT     H216407   5.058   6.681   0.077
 5389WAT      O16408   8.645   5.969   0.233
 5389WAT     H116409   8.723   6.004   0.181
 5389WAT     H216410   8.610   6.042   0.292
 5390WAT      O16411   1.026   3.607   4.466
 5390WAT     H116412   1.011   3.668   4.544
 5390WAT     H216413   1.001   3.654   4.382
 5391WAT      O16414   9.298   8.259   7.209
 5391WAT     H116415   9.379   8.277   7.152
 5391WAT     H216416   9.288   8.333   7.276
 5392WAT      O16417   2.534   2.028   8.265
 5392WAT     H116418   2.484   2.040   8.179
 5392WAT     H216419   2.581   1.940   8.264
 5393WAT      O16420   2.805   7.725   6.724
 5393WAT     H116421   2.844   7.794   6.662
 5393WAT     H216422   2.763   7.771   6.802
 5394WAT      O16423   6.842   8.841   0.277
 5394WAT     H116424   6.760   8.889   0.307
 5394WAT     H216425   6.923   8.892   0.307
 5395WAT      O16426   2.529   7.634   3.495
 5395WAT     H116427   2.509   7.728   3.467
 5395WAT     H216428   2.452   7.575   3.472
 5396WAT      O16429   6.235   3.033   9.315
 5396WAT     H116430   6.261   2.954   9.370
 5396WAT     H216431   6.135   3.032   9.301
 5397WAT      O16432   7.766   1.858   1.335
 5397WAT     H116433   7.741   1.846   1.238
 5397WAT     H216434   7.856   1.901   1.341
 5398WAT      O16435   4.804   7.884   9.320
 5398WAT     H116436   4.885   7.941   9.328
 5398WAT     H216437   4.723   7.941   9.309
 5399WAT      O16438   5.357   1.594   4.295
 5399WAT     H116439   5.257   1.597   4.287
 5399WAT     H216440   5.382   1.533   4.370
 5400WAT      O16441   4.666   1.195   9.724
 5400WAT     H116442   4.663   1.171   9.821
 5400WAT     H216443   4.573   1.215   9.693
 5401WAT      O16444   2.586   0.863   6.662
 5401WAT     H116445   2.512   0.911   6.615
 5401WAT     H216446   2.555   0.773   6.691
 5402WAT      O16447   9.188   3.844   9.562
 5402WAT     H116448   9.201   3.814   9.468
 5402WAT     H216449   9.262   3.905   9.588
 5403WAT      O16450   2.594   6.200   0.195
 5403WAT     H116451   2.657   6.270   0.227
 5403WAT     H216452   2.500   6.231   0.209
 5404WAT      O16453   5.808   4.713   2.083
 5404WAT     H116454   5.779   4.804   2.112
 5404WAT     H216455   5.871   4.675   2.151
 5405WAT      O16456   2.150   0.833   1.371
 5405WAT     H116457   2.208   0.868   1.297
 5405WAT     H216458   2.201   0.837   1.457
 5406WAT      O16459   2.727   5.119   0.512
 5406WAT     H116460   2.649   5.057   0.514
 5406WAT     H216461   2.698   5.209   0.479
 5407WAT      O16462   8.452   4.367   7.930
 5407WAT     H116463   8.379   4.427   7.899
 5407WAT     H216464   8.417   4.303   7.998
 5408WAT      O16465   8.754   5.723   6.112
 5408WAT     H116466   8.737   5.676   6.198
 5408WAT     H216467   8.852   5.743   6.104
 5409WAT      O16468   2.646   3.531   4.650
 5409WAT     H116469   2.653   3.571   4.558
 5409WAT     H216470   2.709   3.454   4.657
 5410WAT      O16471   3.601   7.251   1.277
 5410WAT     H116472   3.588   7.229   1.373
 5410WAT     H216473   3.699   7.262   1.258
 5411WAT      O16474   9.780   8.357   7.538
 5411WAT     H116475   9.685   8.342   7.566
 5411WAT     H216476   9.787   8.347   7.439
 5412WAT      O16477   7.731   9.614   7.723
 5412WAT     H116478   7.675   9.687   7.761
 5412WAT     H216479   7.672   9.542   7.686
 5413WAT      O16480   2.780   1.678   3.284
 5413WAT     H116481   2.768   1.671   3.185
 5413WAT     H216482   2.729   1.757   3.318
 5414WAT      O16483   8.050   6.486   3.164
 5414WAT     H116484   8.101   6.550   3.223
 5414WAT     H216485   7.986   6.537   3.107
 5415WAT      O16486   1.398   3.074   8.365
 5415WAT     H116487   1.345   3.060   8.448
 5415WAT     H216488   1.339   3.057   8.285
 5416WAT      O16489   1.214   2.803   5.468
 5416WAT     H116490   1.175   2.880   5.417
 5416WAT     H216491   1.191   2.812   5.565
 5417WAT      O16492   7.169   7.219   8.784
 5417WAT     H116493   7.122   7.199   8.698
 5417WAT     H216494   7.259   7.177   8.783
 5418WAT      O16495   5.103   1.528   4.307
 5418WAT     H116496   5.076   1.506   4.400
 5418WAT     H216497   5.097   1.446   4.250
 5419WAT      O16498   5.121   0.023   2.312
 5419WAT     H116499   5.101  -0.075   2.316
 5419WAT     H216500   5.146   0.056   2.402
 5420WAT      O16501   9.532   0.522   6.915
 5420WAT     H116502   9.512   0.617   6.936
 5420WAT     H216503   9.631   0.509   6.909
 5421WAT      O16504   9.293   6.012   1.497
 5421WAT     H116505   9.219   6.076   1.475
 5421WAT     H216506   9.304   5.947   1.421
 5422WAT      O16507   9.653   1.718   5.171
 5422WAT     H116508   9.745   1.753   5.188
 5422WAT     H216509   9.588   1.794   5.165
 5423WAT      O16510   6.950   1.104   8.572
 5423WAT     H116511   6.893   1.087   8.492
 5423WAT     H216512   6.904   1.169   8.632
 5424WAT      O16513   3.218   0.396   9.047
 5424WAT     H116514   3.287   0.429   8.983
 5424WAT     H216515   3.262   0.365   9.132
 5425WAT      O16516   3.039   1.038   7.743
 5425WAT     H116517   3.082   0.988   7.819
 5425WAT     H216518   2.977   1.107   7.780
 5426WAT      O16519   7.829   3.101   7.796
 5426WAT     H116520   7.895   3.159   7.845
 5426WAT     H216521   7.864   3.082   7.704
 5427WAT      O16522   3.882   1.708   1.056
 5427WAT     H116523   3.819   1.633   1.073
 5427WAT     H216524   3.917   1.703   0.962
 5428WAT      O16525   8.853   8.287   1.749
 5428WAT     H116526   8.906   8.256   1.670
 5428WAT     H216527   8.897   8.255   1.833
 5429WAT      O16528   9.095   0.470   9.846
 5429WAT     H116529   9.076   0.445   9.941
 5429WAT     H216530   9.152   0.399   9.804
 5430WAT      O16531   1.913   4.220   8.968
 5430WAT     H116532   1.979   4.146   8.968
 5430WAT     H216533   1.826   4.187   8.929
 5431WAT      O16534   6.286   7.581   8.019
 5431WAT     H116535   6.364   7.594   7.957
 5431WAT     H216536   6.207   7.549   7.967
 5432WAT      O16537   4.977   8.538   3.730
 5432WAT     H116538   5.016   8.564   3.818
 5432WAT     H216539   5.049   8.497   3.673
 5433WAT      O16540   3.975   6.847   4.202
 5433WAT     H116541   3.988   6.753   4.169
 5433WAT     H216542   4.046   6.869   4.269
 5434WAT      O16543   7.884   4.181   1.221
 5434WAT     H116544   7.848   4.194   1.313
 5434WAT     H216545   7.969   4.234   1.210
 5435WAT      O16546   3.943   3.335   5.667
 5435WAT     H116547   3.853   3.310   5.632
 5435WAT     H216548   3.938   3.423   5.713
 5436WAT      O16549   2.475   9.005   3.994
 5436WAT     H116550   2.397   9.046   3.948
 5436WAT     H216551   2.472   8.905   3.983
 5437WAT      O16552   5.844   1.126   2.777
 5437WAT     H116553   5.936   1.095   2.751
 5437WAT     H216554   5.820   1.088   2.866
 5438WAT      O16555   3.163   3.624   0.523
 5438WAT     H116556   3.187   3.535   0.562
 5438WAT     H216557   3.067   3.644   0.541
 5439WAT      O16558   7.657   9.335   7.705
 5439WAT     H116559   7.610   9.352   7.791
 5439WAT     H216560   7.713   9.253   7.713
 5440WAT      O16561   4.923   9.415   2.054
 5440WAT     H116562   4.933   9.476   1.975
 5440WAT     H216563   4.837   9.433   2.100
 5441WAT      O16564   2.963   5.344   4.872
 5441WAT     H116565   3.019   5.335   4.790
 5441WAT     H216566   3.021   5.371   4.949
 5442WAT      O16567   1.417   5.442   0.209
 5442WAT     H116568   1.404   5.500   0.129
 5442WAT     H216569   1.332   5.394   0.230
 5443WAT      O16570   2.993   3.872   1.196
 5443WAT     H116571   3.048   3.850   1.115
 5443WAT     H216572   3.027   3.956   1.238
 5444WAT      O16573   6.753   1.410   4.760
 5444WAT     H116574   6.740   1.424   4.858
 5444WAT     H216575   6.664   1.391   4.718
 5445WAT      O16576   9.775   0.869   8.841
 5445WAT     H116577   9.717   0.835   8.916
 5445WAT     H216578   9.721   0.877   8.758
 5446WAT      O16579   7.950   9.713   8.482
 5446WAT     H116580   7.955   9.637   8.547
 5446WAT     H216581   8.041   9.729   8.443
 5447WAT      O16582   4.695   6.130   7.793
 5447WAT     H116583   4.624   6.116   7.724
 5447WAT     H216584   4.750   6.047   7.802
 5448WAT      O16585   5.926   4.497   2.232
 5448WAT     H116586   5.893   4.533   2.320
 5448WAT     H216587   5.935   4.398   2.238
 5449WAT      O16588   0.531   2.672   2.316
 5449WAT     H116589   0.593   2.720   2.377
 5449WAT     H216590   0.556   2.575   2.313
 5450WAT      O16591   0.313   3.479   1.298
 5450WAT     H116592   0.401   3.508   1.335
 5450WAT     H216593   0.249   3.555   1.298
 5451WAT      O16594   4.549   0.438   3.226
 5451WAT     H116595   4.572   0.438   3.324
 5451WAT     H216596   4.459   0.478   3.213
 5452WAT      O16597   8.145   1.839   2.382
 5452WAT     H116598   8.074   1.904   2.411
 5452WAT     H216599   8.108   1.778   2.312
 5453WAT      O16600   0.989   2.995   0.477
 5453WAT     H116601   1.082   2.967   0.502
 5453WAT     H216602   0.943   3.034   0.558
 5454WAT      O16603   0.543   1.184   4.178
 5454WAT     H116604   0.612   1.165   4.107
 5454WAT     H216605   0.521   1.099   4.226
 5455WAT      O16606   0.790   0.259   1.558
 5455WAT     H116607   0.835   0.347   1.577
 5455WAT     H216608   0.843   0.185   1.599
 5456WAT      O16609   0.244   9.172   6.805
 5456WAT     H116610   0.327   9.203   6.760
 5456WAT     H216611   0.266   9.139   6.897
 5457WAT      O16612   0.614   2.717   4.070
 5457WAT     H116613   0.653   2.627   4.089
 5457WAT     H216614   0.514   2.709   4.064
 5458WAT      O16615   7.082   8.482   3.817
 5458WAT     H116616   7.067   8.413   3.888
 5458WAT     H216617   7.123   8.439   3.737
 5459WAT      O16618   4.834   9.481   8.425
 5459WAT     H116619   4.798   9.389   8.410
 5459WAT     H216620   4.844   9.527   8.337
 5460WAT      O16621   2.299   8.954   1.272
 5460WAT     H116622   2.220   8.912   1.228
 5460WAT     H216623   2.270   9.037   1.320
 5461WAT      O16624   4.447   9.336   4.278
 5461WAT     H116625   4.403   9.374   4.359
 5461WAT     H216626   4.527   9.283   4.305
 5462WAT      O16627   0.238   6.605   5.256
 5462WAT     H116628   0.159   6.661   5.231
 5462WAT     H216629   0.322   6.654   5.231
 5463WAT      O16630   8.379   2.667   3.900
 5463WAT     H116631   8.312   2.684   3.972
 5463WAT     H216632   8.349   2.712   3.816
 5464WAT      O16633   5.384   8.853   9.186
 5464WAT     H116634   5.380   8.909   9.269
 5464WAT     H216635   5.318   8.887   9.119
 5465WAT      O16636   3.351   4.445   1.027
 5465WAT     H116637   3.338   4.516   0.958
 5465WAT     H216638   3.262   4.409   1.056
 5466WAT      O16639   1.883   8.967   4.085
 5466WAT     H116640   1.827   8.906   4.141
 5466WAT     H216641   1.950   9.013   4.143
 5467WAT      O16642   2.901   8.915   6.033
 5467WAT     H116643   2.817   8.966   6.047
 5467WAT     H216644   2.912   8.847   6.105
 5468WAT      O16645   3.376   9.702   9.050
 5468WAT     H116646   3.314   9.776   9.024
 5468WAT     H216647   3.324   9.630   9.096
 5469WAT      O16648   6.505   7.009   0.523
 5469WAT     H116649   6.549   7.004   0.433
 5469WAT     H216650   6.571   6.987   0.594
 5470WAT      O16651   4.515   4.501   5.253
 5470WAT     H116652   4.432   4.556   5.238
 5470WAT     H216653   4.497   4.433   5.324
 5471WAT      O16654   0.845   3.125   6.418
 5471WAT     H116655   0.846   3.173   6.506
 5471WAT     H216656   0.923   3.062   6.414
 5472WAT      O16657   6.148   5.693   5.955
 5472WAT     H116658   6.118   5.601   5.932
 5472WAT     H216659   6.175   5.741   5.871
 5473WAT      O16660   5.354   8.591   6.606
 5473WAT     H116661   5.364   8.539   6.691
 5473WAT     H216662   5.325   8.529   6.533
 5474WAT      O16663   2.608   9.245   8.066
 5474WAT     H116664   2.702   9.211   8.056
 5474WAT     H216665   2.579   9.287   7.980
 5475WAT      O16666   1.615   0.571   7.695
 5475WAT     H116667   1.560   0.599   7.616
 5475WAT     H216668   1.562   0.584   7.778
 5476WAT      O16669   5.981   1.855   7.531
 5476WAT     H116670   5.946   1.866   7.624
 5476WAT     H216671   6.056   1.789   7.531
 5477WAT      O16672   2.834   5.932   5.067
 5477WAT     H116673   2.910   5.922   5.002
 5477WAT     H216674   2.837   5.858   5.133
 5478WAT      O16675   3.922   9.162   9.813
 5478WAT     H116676   3.940   9.197   9.721
 5478WAT     H216677   3.826   9.178   9.836
 5479WAT      O16678   5.920   6.111   6.328
 5479WAT     H116679   5.929   6.206   6.299
 5479WAT     H216680   5.825   6.081   6.314
 5480WAT      O16681   5.967   8.190   6.887
 5480WAT     H116682   6.048   8.138   6.858
 5480WAT     H216683   5.902   8.128   6.932
 5481WAT      O16684   8.875   9.670   2.433
 5481WAT     H116685   8.952   9.734   2.435
 5481WAT     H216686   8.811   9.697   2.361
 5482WAT      O16687   6.563   6.729   3.158
 5482WAT     H116688   6.534   6.748   3.252
 5482WAT     H216689   6.483   6.709   3.101
 5483WAT      O16690   2.333   6.947   5.084
 5483WAT     H116691   2.262   6.893   5.129
 5483WAT     H216692   2.358   7.024   5.143
 5484WAT      O16693   1.731   3.235   1.208
 5484WAT     H116694   1.706   3.146   1.245
 5484WAT     H216695   1.815   3.267   1.251
 5485WAT      O16696   2.458   8.907   5.000
 5485WAT     H116697   2.546   8.947   5.026
 5485WAT     H216698   2.415   8.864   5.080
 5486WAT      O16699   7.099   9.467   5.058
 5486WAT     H116700   7.169   9.400   5.032
 5486WAT     H216701   7.065   9.513   4.975
 5487WAT      O16702   3.531   7.330   9.527
 5487WAT     H116703   3.451   7.335   9.467
 5487WAT     H216704   3.572   7.239   9.519
 5488WAT      O16705   5.200   4.942   7.673
 5488WAT     H116706   5.199   5.008   7.747
 5488WAT     H216707   5.294   4.912   7.656
 5489WAT      O16708   3.188   7.901   1.138
 5489WAT     H116709   3.208   7.994   1.109
 5489WAT     H216710   3.273   7.849   1.147
 5490WAT      O16711   8.900   8.206   4.070
 5490WAT     H116712   8.871   8.219   3.976
 5490WAT     H216713   8.855   8.126   4.109
 5491WAT      O16714   3.461   8.524   6.621
 5491WAT     H116715   3.485   8.568   6.535
 5491WAT     H216716   3.397   8.449   6.603
 5492WAT      O16717   3.334   8.796   1.677
 5492WAT     H116718   3.316   8.717   1.619
 5492WAT     H216719   3.316   8.880   1.626
 5493WAT      O16720   1.232   2.035   0.890
 5493WAT     H116721   1.193   2.124   0.916
 5493WAT     H216722   1.317   2.050   0.840
 5494WAT      O16723   8.255   2.701   2.313
 5494WAT     H116724   8.297   2.718   2.402
 5494WAT     H216725   8.313   2.641   2.259
 5495WAT      O16726   2.458   3.618   4.809
 5495WAT     H116727   2.491   3.712   4.814
 5495WAT     H216728   2.510   3.568   4.740
 5496WAT      O16729   1.556   9.277   5.644
 5496WAT     H116730   1.546   9.357   5.703
 5496WAT     H216731   1.597   9.202   5.696
 5497WAT      O16732   5.597   1.639   4.669
 5497WAT     H116733   5.519   1.701   4.673
 5497WAT     H216734   5.679   1.686   4.701
 5498WAT      O16735   7.162   2.055   7.839
 5498WAT     H116736   7.179   2.140   7.788
 5498WAT     H216737   7.232   1.988   7.816
 5499WAT      O16738   3.206   7.198   7.780
 5499WAT     H116739   3.130   7.257   7.751
 5499WAT     H216740   3.278   7.200   7.711
 5500WAT      O16741   7.405   1.263   4.961
 5500WAT     H116742   7.352   1.344   4.987
 5500WAT     H216743   7.456   1.229   5.041
 5501WAT      O16744   2.212   5.419   2.396
 5501WAT     H116745   2.167   5.418   2.486
 5501WAT     H216746   2.212   5.512   2.360
 5502WAT      O16747   7.814   7.874   9.075
 5502WAT     H116748   7.858   7.867   8.985
 5502WAT     H216749   7.715   7.874   9.064
 5503WAT      O16750   4.186   5.312   4.912
 5503WAT     H116751   4.277   5.291   4.875
 5503WAT     H216752   4.119   5.247   4.876
 5504WAT      O16753   6.946   1.443   6.719
 5504WAT     H116754   7.019   1.439   6.650
 5504WAT     H216755   6.868   1.388   6.687
 5505WAT      O16756   5.932   3.691   1.701
 5505WAT     H116757   5.926   3.656   1.607
 5505WAT     H216758   5.840   3.702   1.739
 5506WAT      O16759   1.780   2.214   5.379
 5506WAT     H116760   1.751   2.265   5.299
 5506WAT     H216761   1.701   2.173   5.424
 5507WAT      O16762   4.903   9.204   1.865
 5507WAT     H116763   4.918   9.285   1.922
 5507WAT     H216764   4.979   9.140   1.878
 5508WAT      O16765   1.908   7.790   7.845
 5508WAT     H116766   1.870   7.871   7.801
 5508WAT     H216767   1.903   7.713   7.781
 5509WAT      O16768   3.726   3.858   8.470
 5509WAT     H116769   3.772   3.802   8.402
 5509WAT     H216770   3.785   3.870   8.549
 5510WAT      O16771   4.442   6.721   6.505
 5510WAT     H116772   4.510   6.789   6.478
 5510WAT     H216773   4.375   6.711   6.432
 5511WAT      O16774   7.950   5.400   1.729
 5511WAT     H116775   8.035   5.446   1.756
 5511WAT     H216776   7.913   5.349   1.807
 5512WAT      O16777   9.300   7.737   7.245
 5512WAT     H116778   9.400   7.734   7.247
 5512WAT     H216779   9.265   7.660   7.192
 5513WAT      O16780   9.771   4.053   3.320
 5513WAT     H116781   9.803   4.073   3.227
 5513WAT     H216782   9.775   4.137   3.374
 5514WAT      O16783   3.618   7.259   3.897
 5514WAT     H116784   3.550   7.190   3.871
 5514WAT     H216785   3.671   7.286   3.816
 5515WAT      O16786   4.474   5.670   5.556
 5515WAT     H116787   4.539   5.716   5.497
 5515WAT     H216788   4.416   5.609   5.502
 5516WAT      O16789   5.662   5.073   1.014
 5516WAT     H116790   5.569   5.091   1.045
 5516WAT     H216791   5.727   5.122   1.073
 5517WAT      O16792   3.409   2.167   5.954
 5517WAT     H116793   3.382   2.083   6.001
 5517WAT     H216794   3.400   2.154   5.855
 5518WAT      O16795   1.638   2.532   6.523
 5518WAT     H116796   1.572   2.533   6.448
 5518WAT     H216797   1.666   2.438   6.541
 5519WAT      O16798   6.538   0.604   3.370
 5519WAT     H116799   6.618   0.663   3.360
 5519WAT     H216800   6.568   0.508   3.374
 5520WAT      O16801   5.108   3.992   3.064
 5520WAT     H116802   5.117   3.955   2.972
 5520WAT     H216803   5.070   3.922   3.124
 5521WAT      O16804   3.775   1.988   2.369
 5521WAT     H116805   3.775   2.061   2.301
 5521WAT     H216806   3.850   2.002   2.434
 5522WAT      O16807   2.020   5.357   6.588
 5522WAT     H116808   2.011   5.366   6.489
 5522WAT     H216809   1.960   5.423   6.633
 5523WAT      O16810   4.784   0.605   6.253
 5523WAT     H116811   4.825   0.597   6.343
 5523WAT     H216812   4.851   0.643   6.189
 5524WAT      O16813   7.444   2.835   8.667
 5524WAT     H116814   7.536   2.875   8.669
 5524WAT     H216815   7.386   2.888   8.604
 5525WAT      O16816   0.033   9.394   4.379
 5525WAT     H116817  -0.013   9.478   4.350
 5525WAT     H216818   0.042   9.395   4.479
 5526WAT      O16819   0.254   7.503   3.960
 5526WAT     H116820   0.173   7.555   3.935
 5526WAT     H216821   0.278   7.523   4.055
 5527WAT      O16822   2.491   3.714   8.464
 5527WAT     H116823   2.420   3.753   8.523
 5527WAT     H216824   2.532   3.787   8.409
 5528WAT      O16825   8.568   2.721   3.173
 5528WAT     H116826   8.514   2.705   3.255
 5528WAT     H216827   8.539   2.806   3.130
 5529WAT      O16828   5.098   1.686   6.588
 5529WAT     H116829   5.001   1.692   6.611
 5529WAT     H216830   5.153   1.723   6.664
 5530WAT      O16831   2.374   3.386   2.311
 5530WAT     H116832   2.467   3.377   2.345
 5530WAT     H216833   2.362   3.476   2.269
 5531WAT      O16834   2.006   5.033   3.667
 5531WAT     H116835   1.944   4.960   3.636
 5531WAT     H216836   1.963   5.122   3.651
 5532WAT      O16837   6.651   6.966   5.318
 5532WAT     H116838   6.613   6.894   5.261
 5532WAT     H216839   6.742   6.939   5.350
 5533WAT      O16840   8.460   5.516   6.458
 5533WAT     H116841   8.523   5.458   6.511
 5533WAT     H216842   8.368   5.509   6.497
 5534WAT      O16843   5.322   3.879   1.921
 5534WAT     H116844   5.302   3.812   1.850
 5534WAT     H216845   5.391   3.842   1.984
 5535WAT      O16846   2.101   1.925   7.608
 5535WAT     H116847   2.188   1.907   7.561
 5535WAT     H216848   2.117   1.988   7.684
 5536WAT      O16849   9.248   4.176   5.938
 5536WAT     H116850   9.220   4.213   5.850
 5536WAT     H216851   9.322   4.109   5.925
 5537WAT      O16852   0.614   2.842   9.501
 5537WAT     H116853   0.689   2.842   9.435
 5537WAT     H216854   0.601   2.750   9.537
 5538WAT      O16855   0.175   0.028   1.257
 5538WAT     H116856   0.185   0.104   1.192
 5538WAT     H216857   0.127   0.061   1.338
 5539WAT      O16858   0.422   4.192   3.325
 5539WAT     H116859   0.463   4.125   3.386
 5539WAT     H216860   0.427   4.158   3.231
 5540WAT      O16861   1.280   7.852   5.781
 5540WAT     H116862   1.349   7.792   5.822
 5540WAT     H216863   1.206   7.867   5.847
 5541WAT      O16864   6.934   5.726   8.527
 5541WAT     H116865   7.024   5.718   8.570
 5541WAT     H216866   6.910   5.823   8.518
 5542WAT      O16867   4.994   1.826   3.506
 5542WAT     H116868   5.063   1.872   3.561
 5542WAT     H216869   5.010   1.844   3.409
 5543WAT      O16870   6.923   7.515   5.064
 5543WAT     H116871   6.983   7.509   4.984
 5543WAT     H216872   6.955   7.588   5.124
 5544WAT      O16873   2.745   8.655   0.560
 5544WAT     H116874   2.690   8.722   0.510
 5544WAT     H216875   2.761   8.687   0.653
 5545WAT      O16876   1.141   8.859   6.499
 5545WAT     H116877   1.184   8.941   6.463
 5545WAT     H216878   1.170   8.779   6.446
 5546WAT      O16879   7.220   5.679   9.289
 5546WAT     H116880   7.291   5.747   9.271
 5546WAT     H216881   7.207   5.671   9.388
 5547WAT      O16882   4.053   5.511   5.736
 5547WAT     H116883   4.050   5.411   5.732
 5547WAT     H216884   3.963   5.546   5.764
 5548WAT      O16885   5.622   1.944   1.456
 5548WAT     H116886   5.608   1.855   1.413
 5548WAT     H216887   5.701   1.940   1.517
 5549WAT      O16888   1.782   0.986   4.543
 5549WAT     H116889   1.801   0.895   4.580
 5549WAT     H216890   1.723   1.036   4.606
 5550WAT      O16891   4.766   4.889   0.049
 5550WAT     H116892   4.778   4.865  -0.047
 5550WAT     H216893   4.669   4.883   0.073
 5551WAT      O16894   8.770   8.626   6.398
 5551WAT     H116895   8.748   8.715   6.357
 5551WAT     H216896   8.731   8.553   6.341
 5552WAT      O16897   6.789   6.446   3.853
 5552WAT     H116898   6.758   6.484   3.940
 5552WAT     H216899   6.879   6.484   3.829
 5553WAT      O16900   2.314   5.622   4.414
 5553WAT     H116901   2.259   5.608   4.497
 5553WAT     H216902   2.258   5.665   4.344
 5554WAT      O16903   9.605   5.644   4.432
 5554WAT     H116904   9.682   5.660   4.492
 5554WAT     H216905   9.535   5.591   4.480
 5555WAT      O16906   4.302   3.083   1.435
 5555WAT     H116907   4.311   3.179   1.408
 5555WAT     H216908   4.374   3.060   1.501
 5556WAT      O16909   7.770   8.477   2.402
 5556WAT     H116910   7.796   8.573   2.416
 5556WAT     H216911   7.732   8.466   2.310
 5557WAT      O16912   0.523   9.157   2.183
 5557WAT     H116913   0.613   9.200   2.180
 5557WAT     H216914   0.520   9.092   2.258
 5558WAT      O16915   9.855   7.825   5.892
 5558WAT     H116916   9.930   7.817   5.957
 5558WAT     H216917   9.860   7.913   5.845
 5559WAT      O16918   0.896   8.145   2.556
 5559WAT     H116919   0.849   8.079   2.498
 5559WAT     H216920   0.881   8.122   2.652
 5560WAT      O16921   0.985   6.043   4.073
 5560WAT     H116922   1.064   5.994   4.038
 5560WAT     H216923   0.915   6.049   4.002
 5561WAT      O16924   5.387   9.700   1.128
 5561WAT     H116925   5.486   9.705   1.113
 5561WAT     H216926   5.358   9.778   1.183
 5562WAT      O16927   8.311   2.187   7.111
 5562WAT     H116928   8.349   2.161   7.200
 5562WAT     H216929   8.239   2.123   7.085
 5563WAT      O16930   3.613   4.817   2.724
 5563WAT     H116931   3.656   4.805   2.814
 5563WAT     H216932   3.562   4.903   2.723
 5564WAT      O16933   1.745   5.454   1.516
 5564WAT     H116934   1.791   5.366   1.511
 5564WAT     H216935   1.646   5.441   1.508
 5565WAT      O16936   2.042   1.828   0.285
 5565WAT     H116937   2.085   1.818   0.196
 5565WAT     H216938   2.076   1.911   0.330
 5566WAT      O16939   7.205   6.767   7.451
 5566WAT     H116940   7.195   6.677   7.493
 5566WAT     H216941   7.129   6.825   7.479
 5567WAT      O16942   4.045   6.474   7.599
 5567WAT     H116943   3.950   6.496   7.621
 5567WAT     H216944   4.073   6.526   7.518
 5568WAT      O16945   1.219   2.554   4.018
 5568WAT     H116946   1.127   2.571   4.054
 5568WAT     H216947   1.264   2.641   4.000
 5569WAT      O16948   0.884   3.136   3.980
 5569WAT     H116949   0.920   3.044   3.965
 5569WAT     H216950   0.896   3.190   3.897
 5570WAT      O16951   5.792   6.309   6.111
 5570WAT     H116952   5.717   6.344   6.055
 5570WAT     H216953   5.799   6.364   6.195
 5571WAT      O16954   9.712   5.304   8.682
 5571WAT     H116955   9.612   5.306   8.683
 5571WAT     H216956   9.744   5.215   8.713
 5572WAT      O16957   7.867   9.031   6.698
 5572WAT     H116958   7.799   9.085   6.650
 5572WAT     H216959   7.913   9.088   6.767
 5573WAT      O16960   3.063   1.010   6.074
 5573WAT     H116961   3.090   0.954   6.152
 5573WAT     H216962   3.056   1.106   6.103
 5574WAT      O16963   3.125   1.201   2.274
 5574WAT     H116964   3.174   1.212   2.361
 5574WAT     H216965   3.059   1.275   2.264
 5575WAT      O16966   8.709   1.464   1.048
 5575WAT     H116967   8.671   1.484   0.957
 5575WAT     H216968   8.751   1.546   1.085
 5576WAT      O16969   7.475   7.397   0.692
 5576WAT     H116970   7.411   7.326   0.720
 5576WAT     H216971   7.427   7.483   0.680
 5577WAT      O16972   8.236   2.670   0.826
 5577WAT     H116973   8.146   2.709   0.844
 5577WAT     H216974   8.256   2.600   0.895
 5578WAT      O16975   0.754   0.460   9.121
 5578WAT     H116976   0.672   0.402   9.128
 5578WAT     H216977   0.775   0.478   9.025
 5579WAT      O16978   1.900   4.263   0.856
 5579WAT     H116979   1.908   4.355   0.894
 5579WAT     H216980   1.916   4.266   0.758
 5580WAT      O16981   9.779   8.236   2.914
 5580WAT     H116982   9.803   8.271   3.005
 5580WAT     H216983   9.823   8.292   2.844
 5581WAT      O16984   3.008   7.328   7.685
 5581WAT     H116985   2.948   7.405   7.662
 5581WAT     H216986   3.000   7.258   7.614
 5582WAT      O16987   4.869   9.513   5.925
 5582WAT     H116988   4.886   9.601   5.882
 5582WAT     H216989   4.938   9.447   5.897
 5583WAT      O16990   6.455   0.069   8.934
 5583WAT     H116991   6.458   0.160   8.974
 5583WAT     H216992   6.528   0.013   8.973
 5584WAT      O16993   4.557   0.638   0.107
 5584WAT     H116994   4.638   0.664   0.159
 5584WAT     H216995   4.486   0.709   0.118
 5585WAT      O16996   7.584   6.058   2.529
 5585WAT     H116997   7.630   5.994   2.468
 5585WAT     H216998   7.622   6.050   2.621
 5586WAT      O16999   0.663   4.020   6.928
 5586WAT     H117000   0.655   3.941   6.989
 5586WAT     H217001   0.572   4.049   6.898
 5587WAT      O17002   6.477   1.640   9.104
 5587WAT     H117003   6.568   1.680   9.095
 5587WAT     H217004   6.480   1.564   9.170
 5588WAT      O17005   2.350   4.716   6.000
 5588WAT     H117006   2.349   4.655   6.079
 5588WAT     H217007   2.376   4.664   5.918
 5589WAT      O17008   1.838   7.730   3.000
 5589WAT     H117009   1.753   7.681   2.978
 5589WAT     H217010   1.818   7.807   3.060
 5590WAT      O17011   9.161   4.583   6.904
 5590WAT     H117012   9.149   4.518   6.829
 5590WAT     H217013   9.174   4.675   6.866
 5591WAT      O17014   6.758   7.395   8.750
 5591WAT     H117015   6.697   7.472   8.732
 5591WAT     H217016   6.714   7.332   8.814
 5592WAT      O17017   8.900   8.095   9.503
 5592WAT     H117018   8.915   8.010   9.552
 5592WAT     H217019   8.946   8.170   9.552
 5593WAT      O17020   8.505   0.974   7.882
 5593WAT     H117021   8.584   0.955   7.941
 5593WAT     H217022   8.518   0.929   7.794
 5594WAT      O17023   1.909   5.121   8.625
 5594WAT     H117024   1.814   5.092   8.635
 5594WAT     H217025   1.941   5.161   8.711
 5595WAT      O17026   1.115   2.630   7.534
 5595WAT     H117027   1.145   2.724   7.548
 5595WAT     H217028   1.020   2.630   7.502
 5596WAT      O17029   9.295   0.250   7.061
 5596WAT     H117030   9.259   0.237   6.968
 5596WAT     H217031   9.234   0.310   7.112
 5597WAT      O17032   9.612   8.687   9.692
 5597WAT     H117033   9.668   8.688   9.775
 5597WAT     H217034   9.613   8.594   9.653
 5598WAT      O17035   3.224   2.353   2.850
 5598WAT     H117036   3.314   2.349   2.892
 5598WAT     H217037   3.156   2.316   2.913
 5599WAT      O17038   5.149   0.696   6.825
 5599WAT     H117039   5.063   0.743   6.844
 5599WAT     H217040   5.144   0.603   6.861
 5600WAT      O17041   5.518   0.324   6.396
 5600WAT     H117042   5.583   0.348   6.468
 5600WAT     H217043   5.442   0.390   6.397
 5601WAT      O17044   0.986   2.592   2.493
 5601WAT     H117045   0.966   2.500   2.528
 5601WAT     H217046   0.979   2.658   2.568
 5602WAT      O17047   4.616   4.295   1.196
 5602WAT     H117048   4.673   4.235   1.140
 5602WAT     H217049   4.665   4.381   1.213
 5603WAT      O17050   5.175   6.298   5.634
 5603WAT     H117051   5.218   6.239   5.565
 5603WAT     H217052   5.188   6.394   5.608
 5604WAT      O17053   8.636   4.974   1.697
 5604WAT     H117054   8.568   5.010   1.633
 5604WAT     H217055   8.721   4.956   1.648
 5605WAT      O17056   3.829   7.965   7.436
 5605WAT     H117057   3.753   7.915   7.393
 5605WAT     H217058   3.818   7.963   7.536
 5606WAT      O17059   1.928   0.729   6.906
 5606WAT     H117060   1.999   0.671   6.866
 5606WAT     H217061   1.958   0.764   6.994
 5607WAT      O17062   5.795   7.562   6.574
 5607WAT     H117063   5.819   7.558   6.671
 5607WAT     H217064   5.722   7.630   6.561
 5608WAT      O17065   7.797   8.427   5.972
 5608WAT     H117066   7.849   8.493   6.026
 5608WAT     H217067   7.860   8.370   5.920
 5609WAT      O17068   4.160   6.834   2.618
 5609WAT     H117069   4.146   6.799   2.710
 5609WAT     H217070   4.089   6.902   2.597
 5610WAT      O17071   1.241   3.549   7.779
 5610WAT     H117072   1.271   3.643   7.792
 5610WAT     H217073   1.234   3.504   7.868
 5611WAT      O17074   9.333   4.692   2.816
 5611WAT     H117075   9.431   4.710   2.828
 5611WAT     H217076   9.292   4.766   2.763
 5612WAT      O17077   8.710   5.656   3.339
 5612WAT     H117078   8.622   5.703   3.346
 5612WAT     H217079   8.695   5.558   3.328
 5613WAT      O17080   6.069   3.323   9.183
 5613WAT     H117081   6.063   3.226   9.203
 5613WAT     H217082   6.163   3.347   9.161
 5614WAT      O17083   7.563   7.303   1.082
 5614WAT     H117084   7.612   7.373   1.135
 5614WAT     H217085   7.564   7.329   0.986
 5615WAT      O17086   2.156   9.386   1.900
 5615WAT     H117087   2.210   9.443   1.961
 5615WAT     H217088   2.065   9.372   1.938
 5616WAT      O17089   0.442   1.771   7.345
 5616WAT     H117090   0.495   1.704   7.292
 5616WAT     H217091   0.391   1.724   7.416
 5617WAT      O17092   1.589   8.539   2.398
 5617WAT     H117093   1.637   8.492   2.471
 5617WAT     H217094   1.519   8.599   2.437
 5618WAT      O17095   7.897   6.197   0.924
 5618WAT     H117096   7.816   6.142   0.945
 5618WAT     H217097   7.874   6.294   0.927
 5619WAT      O17098   3.972   2.640   3.783
 5619WAT     H117099   4.018   2.642   3.694
 5619WAT     H217100   4.035   2.607   3.853
 5620WAT      O17101   1.246   6.864   6.263
 5620WAT     H117102   1.302   6.850   6.345
 5620WAT     H217103   1.248   6.961   6.237
 5621WAT      O17104   8.968   2.630   3.769
 5621WAT     H117105   8.890   2.592   3.820
 5621WAT     H217106   8.942   2.643   3.673
 5622WAT      O17107   5.866   5.581   2.732
 5622WAT     H117108   5.811   5.664   2.736
 5622WAT     H217109   5.806   5.501   2.726
 5623WAT      O17110   0.834   4.074   4.062
 5623WAT     H117111   0.768   4.001   4.047
 5623WAT     H217112   0.789   4.150   4.108
 5624WAT      O17113   3.705   4.221   6.004
 5624WAT     H117114   3.672   4.190   5.915
 5624WAT     H217115   3.627   4.242   6.063
 5625WAT      O17116   8.213   8.949   3.654
 5625WAT     H117117   8.250   8.870   3.604
 5625WAT     H217118   8.288   9.002   3.694
 5626WAT      O17119   4.911   9.422   7.093
 5626WAT     H117120   4.948   9.478   7.167
 5626WAT     H217121   4.811   9.427   7.094
 5627WAT      O17122   2.825   9.475   7.499
 5627WAT     H117123   2.886   9.530   7.441
 5627WAT     H217124   2.756   9.431   7.442
 5628WAT      O17125   7.037   3.892   4.461
 5628WAT     H117126   7.102   3.841   4.517
 5628WAT     H217127   6.968   3.935   4.520
 5629WAT      O17128   8.549   8.498   5.011
 5629WAT     H117129   8.502   8.420   4.971
 5629WAT     H217130   8.648   8.486   5.000
 5630WAT      O17131   5.504   5.473   6.330
 5630WAT     H117132   5.498   5.543   6.401
 5630WAT     H217133   5.413   5.439   6.308
 5631WAT      O17134   3.894   9.430   7.143
 5631WAT     H117135   3.975   9.411   7.088
 5631WAT     H217136   3.871   9.350   7.199
 5632WAT      O17137   9.776   7.274   2.238
 5632WAT     H117138   9.784   7.307   2.332
 5632WAT     H217139   9.728   7.186   2.238
 5633WAT      O17140   7.426   4.687   0.960
 5633WAT     H117141   7.453   4.592   0.972
 5633WAT     H217142   7.372   4.696   0.877
 5634WAT      O17143   0.109   5.825   1.283
 5634WAT     H117144   0.074   5.745   1.332
 5634WAT     H217145   0.185   5.865   1.334
 5635WAT      O17146   5.038   8.397   8.664
 5635WAT     H117147   5.098   8.453   8.607
 5635WAT     H217148   5.050   8.300   8.642
 5636WAT      O17149   5.511   9.112   9.679
 5636WAT     H117150   5.470   9.027   9.715
 5636WAT     H217151   5.472   9.190   9.728
 5637WAT      O17152   1.553   8.041   4.144
 5637WAT     H117153   1.462   7.999   4.135
 5637WAT     H217154   1.576   8.050   4.241
 5638WAT      O17155   1.106   1.906   1.673
 5638WAT     H117156   1.041   1.839   1.638
 5638WAT     H217157   1.056   1.984   1.710
 5639WAT      O17158   8.864   6.895   3.783
 5639WAT     H117159   8.813   6.809   3.786
 5639WAT     H217160   8.930   6.892   3.708
 5640WAT      O17161   7.810   9.229   2.858
 5640WAT     H117162   7.907   9.216   2.835
 5640WAT     H217163   7.801   9.306   2.922
 5641WAT      O17164   6.482   1.106   3.102
 5641WAT     H117165   6.553   1.089   3.171
 5641WAT     H217166   6.457   1.203   3.104
 5642WAT      O17167   3.467   7.055   8.726
 5642WAT     H117168   3.370   7.058   8.753
 5642WAT     H217169   3.521   7.111   8.789
 5643WAT      O17170   5.335   6.535   7.710
 5643WAT     H117171   5.398   6.474   7.759
 5643WAT     H217172   5.326   6.621   7.761
 5644WAT      O17173   6.249   4.846   3.741
 5644WAT     H117174   6.211   4.938   3.742
 5644WAT     H217175   6.253   4.812   3.647
 5645WAT      O17176   5.462   7.868   1.583
 5645WAT     H117177   5.516   7.803   1.529
 5645WAT     H217178   5.523   7.923   1.639
 5646WAT      O17179   4.216   0.799   6.156
 5646WAT     H117180   4.260   0.790   6.245
 5646WAT     H217181   4.254   0.731   6.093
 5647WAT      O17182   3.596   6.269   8.573
 5647WAT     H117183   3.570   6.183   8.617
 5647WAT     H217184   3.592   6.258   8.473
 5648WAT      O17185   2.591   7.895   6.929
 5648WAT     H117186   2.503   7.853   6.905
 5648WAT     H217187   2.601   7.895   7.029
 5649WAT      O17188   2.750   2.584   4.140
 5649WAT     H117189   2.755   2.611   4.044
 5649WAT     H217190   2.837   2.545   4.169
 5650WAT      O17191   2.572   4.858   3.860
 5650WAT     H117192   2.505   4.922   3.898
 5650WAT     H217193   2.662   4.902   3.857
 5651WAT      O17194   6.292   2.962   1.609
 5651WAT     H117195   6.358   2.973   1.535
 5651WAT     H217196   6.229   2.888   1.587
 5652WAT      O17197   1.128   3.332   1.018
 5652WAT     H117198   1.144   3.246   0.970
 5652WAT     H217199   1.177   3.405   0.971
 5653WAT      O17200   2.189   6.688   0.845
 5653WAT     H117201   2.280   6.694   0.803
 5653WAT     H217202   2.127   6.750   0.799
 5654WAT      O17203   0.985   7.545   4.709
 5654WAT     H117204   0.936   7.632   4.718
 5654WAT     H217205   1.081   7.563   4.687
 5655WAT      O17206   1.237   2.086   9.777
 5655WAT     H117207   1.210   2.144   9.701
 5655WAT     H217208   1.168   2.016   9.793
 5656WAT      O17209   8.551   3.337   4.861
 5656WAT     H117210   8.639   3.356   4.903
 5656WAT     H217211   8.562   3.268   4.789
 5657WAT      O17212   4.970   4.750   2.265
 5657WAT     H117213   5.064   4.738   2.232
 5657WAT     H217214   4.972   4.793   2.355
 5658WAT      O17215   7.676   8.003   1.183
 5658WAT     H117216   7.679   7.904   1.196
 5658WAT     H217217   7.580   8.033   1.179
 5659WAT      O17218   0.129   4.967   8.114
 5659WAT     H117219   0.095   5.060   8.101
 5659WAT     H217220   0.146   4.925   8.025
 5660WAT      O17221   6.600   3.019   7.300
 5660WAT     H117222   6.690   3.043   7.264
 5660WAT     H217223   6.577   2.926   7.271
 5661WAT      O17224   1.690   5.119   4.272
 5661WAT     H117225   1.749   5.132   4.193
 5661WAT     H217226   1.637   5.203   4.287
 5662WAT      O17227   8.618   0.722   8.518
 5662WAT     H117228   8.604   0.777   8.600
 5662WAT     H217229   8.678   0.771   8.454
 5663WAT      O17230   2.700   9.655   3.825
 5663WAT     H117231   2.669   9.731   3.768
 5663WAT     H217232   2.623   9.617   3.875
 5664WAT      O17233   5.677   7.498   8.924
 5664WAT     H117234   5.754   7.445   8.959
 5664WAT     H217235   5.595   7.479   8.980
 5665WAT      O17236   8.961   4.849   7.612
 5665WAT     H117237   8.937   4.752   7.614
 5665WAT     H217238   8.916   4.893   7.534
 5666WAT      O17239   1.783   4.250   7.797
 5666WAT     H117240   1.743   4.340   7.783
 5666WAT     H217241   1.878   4.251   7.765
 5667WAT      O17242   5.823   5.119   6.518
 5667WAT     H117243   5.797   5.044   6.579
 5667WAT     H217244   5.747   5.141   6.457
 5668WAT      O17245   0.232   4.560   0.206
 5668WAT     H117246   0.214   4.643   0.258
 5668WAT     H217247   0.252   4.584   0.111
 5669WAT      O17248   1.788   4.563   1.188
 5669WAT     H117249   1.855   4.594   1.256
 5669WAT     H217250   1.756   4.471   1.213
 5670WAT      O17251   9.784   8.058   9.615
 5670WAT     H117252   9.798   8.126   9.543
 5670WAT     H217253   9.873   8.022   9.644
 5671WAT      O17254   0.896   2.043   7.855
 5671WAT     H117255   0.940   2.110   7.795
 5671WAT     H217256   0.962   2.012   7.924
 5672WAT      O17257   4.836   9.831   5.896
 5672WAT     H117258   4.813   9.872   5.985
 5672WAT     H217259   4.752   9.796   5.854
 5673WAT      O17260   0.519   9.604   7.467
 5673WAT     H117261   0.464   9.559   7.397
 5673WAT     H217262   0.517   9.703   7.452
 5674WAT      O17263   5.579   0.875   0.168
 5674WAT     H117264   5.574   0.969   0.200
 5674WAT     H217265   5.672   0.840   0.181
 5675WAT      O17266   4.545   5.847   7.211
 5675WAT     H117267   4.635   5.890   7.226
 5675WAT     H217268   4.557   5.748   7.206
 5676WAT      O17269   1.691   6.323   6.604
 5676WAT     H117270   1.611   6.382   6.604
 5676WAT     H217271   1.750   6.346   6.682
 5677WAT      O17272   3.907   6.949   5.461
 5677WAT     H117273   3.927   6.890   5.539
 5677WAT     H217274   3.813   6.983   5.467
 5678WAT      O17275   6.636   3.834   1.322
 5678WAT     H117276   6.550   3.806   1.280
 5678WAT     H217277   6.697   3.755   1.329
 5679WAT      O17278   0.099   6.316   1.053
 5679WAT     H117279   0.157   6.261   1.113
 5679WAT     H217280   0.141   6.405   1.038
 5680WAT      O17281   4.110   1.902   6.206
 5680WAT     H117282   4.198   1.922   6.162
 5680WAT     H217283   4.126   1.872   6.300
 5681WAT      O17284   3.235   0.985   9.186
 5681WAT     H117285   3.161   1.045   9.157
 5681WAT     H217286   3.291   1.031   9.254
 5682WAT      O17287   4.636   8.475   1.724
 5682WAT     H117288   4.616   8.400   1.787
 5682WAT     H217289   4.572   8.471   1.647
 5683WAT      O17290   0.030   5.971   1.660
 5683WAT     H117291   0.111   5.914   1.655
 5683WAT     H217292   0.057   6.067   1.668
 5684WAT      O17293   4.885   6.388   8.792
 5684WAT     H117294   4.881   6.487   8.782
 5684WAT     H217295   4.952   6.364   8.863
 5685WAT      O17296   6.632   2.463   9.720
 5685WAT     H117297   6.532   2.469   9.726
 5685WAT     H217298   6.659   2.374   9.684
 5686WAT      O17299   1.466   0.633   0.448
 5686WAT     H117300   1.537   0.576   0.491
 5686WAT     H217301   1.387   0.639   0.510
 5687WAT      O17302   4.705   4.844   4.170
 5687WAT     H117303   4.686   4.759   4.219
 5687WAT     H217304   4.627   4.867   4.111
 5688WAT      O17305   0.713   3.995   7.803
 5688WAT     H117306   0.785   4.036   7.860
 5688WAT     H217307   0.719   4.032   7.710
 5689WAT      O17308   7.522   0.477   2.912
 5689WAT     H117309   7.607   0.449   2.956
 5689WAT     H217310   7.523   0.446   2.817
 5690WAT      O17311   5.782   3.870   4.020
 5690WAT     H117312   5.768   3.808   3.943
 5690WAT     H217313   5.761   3.964   3.991
 5691WAT      O17314   1.425   1.989   6.844
 5691WAT     H117315   1.507   1.952   6.885
 5691WAT     H217316   1.360   1.915   6.826
 5692WAT      O17317   6.878   4.938   5.500
 5692WAT     H117318   6.945   4.969   5.432
 5692WAT     H217319   6.805   4.886   5.454
 5693WAT      O17320   1.607   3.961   2.460
 5693WAT     H117321   1.636   3.883   2.516
 5693WAT     H217322   1.687   4.002   2.416
 5694WAT      O17323   7.047   6.464   1.318
 5694WAT     H117324   7.143   6.438   1.313
 5694WAT     H217325   7.009   6.473   1.226
 5695WAT      O17326   7.054   4.673   4.526
 5695WAT     H117327   7.076   4.623   4.610
 5695WAT     H217328   7.137   4.683   4.471
 5696WAT      O17329   0.583   4.515   8.470
 5696WAT     H117330   0.502   4.484   8.521
 5696WAT     H217331   0.570   4.609   8.440
 5697WAT      O17332   9.534   7.492   8.710
 5697WAT     H117333   9.453   7.520   8.762
 5697WAT     H217334   9.597   7.443   8.771
 5698WAT      O17335   9.083   7.602   4.828
 5698WAT     H117336   9.126   7.567   4.745
 5698WAT     H217337   9.127   7.688   4.854
 5699WAT      O17338   6.008   0.543   0.025
 5699WAT     H117339   6.038   0.476  -0.043
 5699WAT     H217340   6.021   0.507   0.117
 5700WAT      O17341   9.091   3.354   8.692
 5700WAT     H117342   9.127   3.291   8.623
 5700WAT     H217343   8.992   3.358   8.686
 5701WAT      O17344   2.651   7.232   9.813
 5701WAT     H117345   2.609   7.143   9.831
 5701WAT     H217346   2.581   7.304   9.820
 5702WAT      O17347   7.041   1.080   5.171
 5702WAT     H117348   7.016   1.124   5.085
 5702WAT     H217349   7.082   1.147   5.233
 5703WAT      O17350   1.353   6.841   8.825
 5703WAT     H117351   1.343   6.756   8.773
 5703WAT     H217352   1.423   6.898   8.782
 5704WAT      O17353   0.004   2.027   0.432
 5704WAT     H117354  -0.073   1.964   0.430
 5704WAT     H217355   0.015   2.062   0.525
 5705WAT      O17356   3.725   2.343   2.394
 5705WAT     H117357   3.767   2.314   2.308
 5705WAT     H217358   3.642   2.288   2.411
 5706WAT      O17359   1.996   5.693   1.055
 5706WAT     H117360   2.064   5.632   1.016
 5706WAT     H217361   1.930   5.640   1.109
 5707WAT      O17362   0.698   7.219   5.294
 5707WAT     H117363   0.644   7.216   5.210
 5707WAT     H217364   0.764   7.295   5.287
 5708WAT      O17365   8.217   5.729   9.638
 5708WAT     H117366   8.147   5.736   9.709
 5708WAT     H217367   8.219   5.814   9.585
 5709WAT      O17368   7.548   2.801   7.219
 5709WAT     H117369   7.519   2.887   7.178
 5709WAT     H217370   7.645   2.806   7.242
 5710WAT      O17371   1.093   8.177   6.208
 5710WAT     H117372   1.159   8.165   6.283
 5710WAT     H217373   1.124   8.250   6.147
 5711WAT      O17374   3.990   4.840   7.735
 5711WAT     H117375   3.941   4.757   7.707
 5711WAT     H217376   4.083   4.838   7.698
 5712WAT      O17377   3.000   3.037   2.076
 5712WAT     H117378   2.981   3.099   2.000
 5712WAT     H217379   2.923   2.973   2.086
 5713WAT      O17380   1.443   5.978   9.395
 5713WAT     H117381   1.365   5.949   9.452
 5713WAT     H217382   1.503   5.900   9.379
 5714WAT      O17383   6.656   6.947   0.748
 5714WAT     H117384   6.647   6.853   0.781
 5714WAT     H217385   6.612   7.010   0.812
 5715WAT      O17386   7.612   7.415   6.902
 5715WAT     H117387   7.613   7.464   6.989
 5715WAT     H217388   7.690   7.444   6.846
 5716WAT      O17389   4.322   3.532   3.468
 5716WAT     H117390   4.372   3.580   3.396
 5716WAT     H217391   4.224   3.542   3.454
 5717WAT      O17392   3.788   9.622   0.694
 5717WAT     H117393   3.695   9.590   0.675
 5717WAT     H217394   3.852   9.547   0.684
 5718WAT      O17395   0.040   3.788   8.553
 5718WAT     H117396   0.011   3.878   8.587
 5718WAT     H217397  -0.022   3.759   8.480
 5719WAT      O17398   3.423   5.980   8.899
 5719WAT     H117399   3.412   5.966   8.997
 5719WAT     H217400   3.476   6.064   8.883
 5720WAT      O17401   0.160   4.659   9.581
 5720WAT     H117402   0.082   4.623   9.529
 5720WAT     H217403   0.133   4.743   9.627
 5721WAT      O17404   5.673   9.765   7.199
 5721WAT     H117405   5.669   9.829   7.276
 5721WAT     H217406   5.768   9.753   7.170
 5722WAT      O17407   5.041   8.103   0.401
 5722WAT     H117408   5.096   8.169   0.452
 5722WAT     H217409   4.992   8.044   0.465
 5723WAT      O17410   1.226   3.077   9.244
 5723WAT     H117411   1.261   3.101   9.153
 5723WAT     H217412   1.226   3.159   9.302
 5724WAT      O17413   2.604   7.709   1.163
 5724WAT     H117414   2.682   7.765   1.133
 5724WAT     H217415   2.554   7.677   1.083
 5725WAT      O17416   6.959   7.582   7.430
 5725WAT     H117417   6.909   7.662   7.398
 5725WAT     H217418   6.999   7.602   7.520
 5726WAT      O17419   6.384   9.389   7.314
 5726WAT     H117420   6.406   9.309   7.371
 5726WAT     H217421   6.465   9.449   7.309
 5727WAT      O17422   0.623   3.786   3.396
 5727WAT     H117423   0.570   3.836   3.328
 5727WAT     H217424   0.569   3.775   3.479
 5728WAT      O17425   9.848   0.790   4.450
 5728WAT     H117426   9.800   0.862   4.500
 5728WAT     H217427   9.941   0.820   4.430
 5729WAT      O17428   3.472   6.942   5.799
 5729WAT     H117429   3.530   7.022   5.816
 5729WAT     H217430   3.412   6.960   5.721
 5730WAT      O17431   3.566   7.936   2.404
 5730WAT     H117432   3.634   8.005   2.427
 5730WAT     H217433   3.508   7.968   2.329
 5731WAT      O17434   0.428   1.703   0.010
 5731WAT     H117435   0.353   1.692  -0.056
 5731WAT     H217436   0.418   1.636   0.083
 5732WAT      O17437   3.510   1.145   3.169
 5732WAT     H117438   3.517   1.080   3.093
 5732WAT     H217439   3.563   1.227   3.148
 5733WAT      O17440   5.757   0.109   0.117
 5733WAT     H117441   5.681   0.173   0.106
 5733WAT     H217442   5.746   0.033   0.053
 5734WAT      O17443   7.261   0.840   9.397
 5734WAT     H117444   7.287   0.932   9.368
 5734WAT     H217445   7.206   0.845   9.481
 5735WAT      O17446   5.896   1.916   7.864
 5735WAT     H117447   5.860   1.982   7.929
 5735WAT     H217448   5.977   1.954   7.819
 5736WAT      O17449   8.268   2.821   1.264
 5736WAT     H117450   8.327   2.881   1.209
 5736WAT     H217451   8.310   2.731   1.272
 5737WAT      O17452   9.379   1.965   5.995
 5737WAT     H117453   9.438   2.015   6.058
 5737WAT     H217454   9.319   2.029   5.947
 5738WAT      O17455   8.547   7.410   3.264
 5738WAT     H117456   8.529   7.371   3.355
 5738WAT     H217457   8.537   7.509   3.267
 5739WAT      O17458   2.360   2.870   9.329
 5739WAT     H117459   2.272   2.833   9.355
 5739WAT     H217460   2.363   2.885   9.230
 5740WAT      O17461   1.732   7.464   1.810
 5740WAT     H117462   1.671   7.385   1.816
 5740WAT     H217463   1.764   7.489   1.902
 5741WAT      O17464   0.606   2.365   2.365
 5741WAT     H117465   0.520   2.326   2.398
 5741WAT     H217466   0.648   2.302   2.299
 5742WAT      O17467   6.275   1.313   7.301
 5742WAT     H117468   6.275   1.316   7.401
 5742WAT     H217469   6.280   1.407   7.265
 5743WAT      O17470   8.746   7.245   9.286
 5743WAT     H117471   8.772   7.205   9.373
 5743WAT     H217472   8.654   7.283   9.293
 5744WAT      O17473   2.504   0.270   8.828
 5744WAT     H117474   2.487   0.307   8.737
 5744WAT     H217475   2.595   0.227   8.831
 5745WAT      O17476   6.390   8.533   9.228
 5745WAT     H117477   6.337   8.491   9.302
 5745WAT     H217478   6.487   8.528   9.250
 5746WAT      O17479   6.653   6.533   6.800
 5746WAT     H117480   6.669   6.445   6.756
 5746WAT     H217481   6.566   6.571   6.766
 5747WAT      O17482   3.096   2.235   2.156
 5747WAT     H117483   3.195   2.234   2.140
 5747WAT     H217484   3.066   2.329   2.170
 5748WAT      O17485   5.826   3.816   6.926
 5748WAT     H117486   5.815   3.717   6.914
 5748WAT     H217487   5.834   3.836   7.024
 5749WAT      O17488   0.579   4.922   4.030
 5749WAT     H117489   0.577   4.826   4.004
 5749WAT     H217490   0.521   4.936   4.111
 5750WAT      O17491   4.550   3.877   4.451
 5750WAT     H117492   4.564   3.924   4.364
 5750WAT     H217493   4.495   3.935   4.511
 5751WAT      O17494   2.525   3.940   6.965
 5751WAT     H117495   2.504   4.038   6.976
 5751WAT     H217496   2.483   3.889   7.040
 5752WAT      O17497   2.447   2.462   4.440
 5752WAT     H117498   2.348   2.475   4.435
 5752WAT     H217499   2.486   2.469   4.348
 5753WAT      O17500   5.901   3.305   1.580
 5753WAT     H117501   5.938   3.384   1.530
 5753WAT     H217502   5.882   3.332   1.674
 5754WAT      O17503   9.381   6.792   2.703
 5754WAT     H117504   9.466   6.797   2.755
 5754WAT     H217505   9.358   6.697   2.685
 5755WAT      O17506   5.654   2.381   5.735
 5755WAT     H117507   5.625   2.473   5.711
 5755WAT     H217508   5.667   2.327   5.652
 5756WAT      O17509   2.962   3.450   6.590
 5756WAT     H117510   3.047   3.433   6.640
 5756WAT     H217511   2.958   3.392   6.509
 5757WAT      O17512   2.815   4.902   0.659
 5757WAT     H117513   2.727   4.856   0.673
 5757WAT     H217514   2.799   4.990   0.615
 5758WAT      O17515   3.984   8.200   4.637
 5758WAT     H117516   3.888   8.223   4.620
 5758WAT     H217517   4.042   8.274   4.606
 5759WAT      O17518   6.195   9.154   9.696
 5759WAT     H117519   6.279   9.101   9.711
 5759WAT     H217520   6.126   9.095   9.654
 5760WAT      O17521   6.212   3.060   0.606
 5760WAT     H117522   6.134   3.087   0.662
 5760WAT     H217523   6.266   2.992   0.655
 5761WAT      O17524   3.544   3.506   0.862
 5761WAT     H117525   3.567   3.603   0.849
 5761WAT     H217526   3.620   3.450   0.830
 5762WAT      O17527   5.397   2.635   7.821
 5762WAT     H117528   5.495   2.621   7.835
 5762WAT     H217529   5.372   2.728   7.849
 5763WAT      O17530   2.949   9.639   3.940
 5763WAT     H117531   2.859   9.670   3.909
 5763WAT     H217532   2.969   9.681   4.029
 5764WAT      O17533   1.250   1.274   3.814
 5764WAT     H117534   1.206   1.184   3.807
 5764WAT     H217535   1.209   1.336   3.746
 5765WAT      O17536   4.772   4.026   2.272
 5765WAT     H117537   4.824   4.046   2.355
 5765WAT     H217538   4.832   3.986   2.203
 5766WAT      O17539   5.029   3.949   7.219
 5766WAT     H117540   5.009   3.935   7.122
 5766WAT     H217541   5.102   3.886   7.247
 5767WAT      O17542   1.073   6.019   8.015
 5767WAT     H117543   1.014   6.010   7.934
 5767WAT     H217544   1.031   5.970   8.092
 5768WAT      O17545   4.366   2.054   0.043
 5768WAT     H117546   4.350   2.145   0.004
 5768WAT     H217547   4.305   1.988  -0.001
 5769WAT      O17548   1.275   7.064   8.027
 5769WAT     H117549   1.306   7.005   7.953
 5769WAT     H217550   1.354   7.097   8.078
 5770WAT      O17551   2.032   1.927   2.571
 5770WAT     H117552   2.117   1.877   2.554
 5770WAT     H217553   2.017   1.992   2.496
 5771WAT      O17554   2.579   3.132   5.852
 5771WAT     H117555   2.564   3.209   5.790
 5771WAT     H217556   2.645   3.069   5.812
 5772WAT      O17557   8.209   3.403   9.844
 5772WAT     H117558   8.200   3.304   9.835
 5772WAT     H217559   8.264   3.439   9.770
 5773WAT      O17560   9.189   9.349   5.099
 5773WAT     H117561   9.278   9.394   5.109
 5773WAT     H217562   9.156   9.363   5.006
 5774WAT      O17563   0.887   1.016   0.980
 5774WAT     H117564   0.966   0.968   1.017
 5774WAT     H217565   0.917   1.076   0.905
 5775WAT      O17566   6.490   0.801   4.770
 5775WAT     H117567   6.514   0.875   4.832
 5775WAT     H217568   6.461   0.838   4.682
 5776WAT      O17569  -0.004   2.186   1.087
 5776WAT     H117570   0.066   2.243   1.043
 5776WAT     H217571   0.036   2.100   1.116
 5777WAT      O17572   3.619   5.937   2.556
 5777WAT     H117573   3.564   5.869   2.509
 5777WAT     H217574   3.662   5.896   2.636
 5778WAT      O17575   2.843   9.254   6.616
 5778WAT     H117576   2.745   9.261   6.635
 5778WAT     H217577   2.857   9.241   6.517
 5779WAT      O17578   9.096   5.072   9.645
 5779WAT     H117579   9.047   4.991   9.614
 5779WAT     H217580   9.192   5.048   9.662
 5780WAT      O17581   2.599   3.579   6.684
 5780WAT     H117582   2.550   3.503   6.726
 5780WAT     H217583   2.640   3.548   6.598
 5781WAT      O17584   5.417   9.813   7.699
 5781WAT     H117585   5.366   9.795   7.615
 5781WAT     H217586   5.483   9.887   7.683
 5782WAT      O17587   9.894   5.259   0.179
 5782WAT     H117588   9.906   5.286   0.084
 5782WAT     H217589   9.796   5.251   0.199
 5783WAT      O17590   3.992   4.538   0.303
 5783WAT     H117591   3.958   4.585   0.384
 5783WAT     H217592   4.071   4.482   0.327
 5784WAT      O17593   6.310   4.057   8.579
 5784WAT     H117594   6.245   4.030   8.507
 5784WAT     H217595   6.340   3.977   8.630
 5785WAT      O17596   4.501   0.357   6.886
 5785WAT     H117597   4.469   0.265   6.908
 5785WAT     H217598   4.433   0.403   6.829
 5786WAT      O17599   8.596   8.004   6.292
 5786WAT     H117600   8.556   8.074   6.233
 5786WAT     H217601   8.559   7.914   6.266
 5787WAT      O17602   9.612   3.952   9.735
 5787WAT     H117603   9.567   3.897   9.806
 5787WAT     H217604   9.549   3.965   9.658
 5788WAT      O17605   6.462   9.511   4.321
 5788WAT     H117606   6.396   9.510   4.396
 5788WAT     H217607   6.458   9.424   4.271
 5789WAT      O17608   5.111   0.079   7.633
 5789WAT     H117609   5.128   0.065   7.731
 5789WAT     H217610   5.101  -0.010   7.589
 5790WAT      O17611   1.803   1.292   3.713
 5790WAT     H117612   1.845   1.210   3.752
 5790WAT     H217613   1.707   1.296   3.739
 5791WAT      O17614   6.187   2.295   5.090
 5791WAT     H117615   6.117   2.332   5.152
 5791WAT     H217616   6.167   2.324   4.997
 5792WAT      O17617   3.733   3.119   2.597
 5792WAT     H117618   3.680   3.087   2.519
 5792WAT     H217619   3.766   3.212   2.580
 5793WAT      O17620   3.061   6.680   1.239
 5793WAT     H117621   2.962   6.676   1.226
 5793WAT     H217622   3.102   6.738   1.168
 5794WAT      O17623   9.820   5.039   1.469
 5794WAT     H117624   9.756   5.100   1.422
 5794WAT     H217625   9.830   5.070   1.564
 5795WAT      O17626   9.789   5.539   1.361
 5795WAT     H117627   9.691   5.536   1.381
 5795WAT     H217628   9.807   5.489   1.276
 5796WAT      O17629   7.210   2.050   1.287
 5796WAT     H117630   7.268   2.073   1.209
 5796WAT     H217631   7.268   2.036   1.368
 5797WAT      O17632   2.849   1.149   4.140
 5797WAT     H117633   2.900   1.065   4.122
 5797WAT     H217634   2.853   1.208   4.059
 5798WAT      O17635   0.214   9.272   8.140
 5798WAT     H117636   0.249   9.348   8.084
 5798WAT     H217637   0.194   9.194   8.081
 5799WAT      O17638   7.053   6.581   4.426
 5799WAT     H117639   7.140   6.593   4.378
 5799WAT     H217640   7.062   6.509   4.495
 5800WAT      O17641   8.650   1.286   7.214
 5800WAT     H117642   8.723   1.220   7.195
 5800WAT     H217643   8.688   1.366   7.260
 5801WAT      O17644   8.697   3.932   6.997
 5801WAT     H117645   8.732   4.021   6.969
 5801WAT     H217646   8.651   3.889   6.919
 5802WAT      O17647   1.631   1.464   4.363
 5802WAT     H117648   1.599   1.470   4.457
 5802WAT     H217649   1.560   1.421   4.306
 5803WAT      O17650   6.905   3.976   8.594
 5803WAT     H117651   6.847   4.057   8.594
 5803WAT     H217652   6.862   3.904   8.648
 5804WAT      O17653   3.202   2.437   3.607
 5804WAT     H117654   3.232   2.531   3.589
 5804WAT     H217655   3.232   2.378   3.532
 5805WAT      O17656   1.114   8.770   5.874
 5805WAT     H117657   1.095   8.818   5.789
 5805WAT     H217658   1.083   8.826   5.951
 5806WAT      O17659   7.344   9.225   4.298
 5806WAT     H117660   7.362   9.142   4.351
 5806WAT     H217661   7.406   9.228   4.220
 5807WAT      O17662   6.778   0.353   5.640
 5807WAT     H117663   6.810   0.446   5.658
 5807WAT     H217664   6.763   0.306   5.727
 5808WAT      O17665   5.548   6.935   8.266
 5808WAT     H117666   5.519   6.930   8.362
 5808WAT     H217667   5.605   7.016   8.252
 5809WAT      O17668   5.568   6.075   0.283
 5809WAT     H117669   5.646   6.133   0.308
 5809WAT     H217670   5.597   5.979   0.286
 5810WAT      O17671   5.704   7.675   4.287
 5810WAT     H117672   5.655   7.760   4.306
 5810WAT     H217673   5.642   7.610   4.242
 5811WAT      O17674   3.258   9.540   0.391
 5811WAT     H117675   3.196   9.497   0.324
 5811WAT     H217676   3.252   9.640   0.382
 5812WAT      O17677   6.644   3.338   5.003
 5812WAT     H117678   6.603   3.421   5.042
 5812WAT     H217679   6.581   3.299   4.935
 5813WAT      O17680   2.883   7.990   5.651
 5813WAT     H117681   2.850   7.965   5.560
 5813WAT     H217682   2.811   7.971   5.718
 5814WAT      O17683   0.440   1.956   3.828
 5814WAT     H117684   0.424   2.039   3.775
 5814WAT     H217685   0.537   1.951   3.853
 5815WAT      O17686   6.762   2.664   3.464
 5815WAT     H117687   6.802   2.574   3.481
 5815WAT     H217688   6.825   2.720   3.411
 5816WAT      O17689   8.866   6.071   3.124
 5816WAT     H117690   8.789   6.008   3.113
 5816WAT     H217691   8.878   6.092   3.221
 5817WAT      O17692   6.357   8.504   3.526
 5817WAT     H117693   6.440   8.520   3.473
 5817WAT     H217694   6.286   8.568   3.496
 5818WAT      O17695   8.738   0.944   6.951
 5818WAT     H117696   8.733   1.020   6.887
 5818WAT     H217697   8.822   0.950   7.004
 5819WAT      O17698   2.954   1.978   3.143
 5819WAT     H117699   3.016   1.936   3.077
 5819WAT     H217700   2.873   2.013   3.096
 5820WAT      O17701   5.732   2.043   4.208
 5820WAT     H117702   5.658   2.037   4.275
 5820WAT     H217703   5.706   1.994   4.124
 5821WAT      O17704   1.684   7.221   3.503
 5821WAT     H117705   1.599   7.270   3.521
 5821WAT     H217706   1.689   7.138   3.559
 5822WAT      O17707   4.413   3.582   3.715
 5822WAT     H117708   4.364   3.558   3.631
 5822WAT     H217709   4.421   3.502   3.773
 5823WAT      O17710   9.201   8.485   8.184
 5823WAT     H117711   9.105   8.487   8.154
 5823WAT     H217712   9.245   8.401   8.150
 5824WAT      O17713   4.106   3.977   8.897
 5824WAT     H117714   4.084   3.892   8.945
 5824WAT     H217715   4.202   3.976   8.870
 5825WAT      O17716   2.563   1.301   0.773
 5825WAT     H117717   2.568   1.247   0.857
 5825WAT     H217718   2.639   1.366   0.770
 5826WAT      O17719   2.191   6.268   6.322
 5826WAT     H117720   2.161   6.301   6.233
 5826WAT     H217721   2.146   6.320   6.394
 5827WAT      O17722   9.426   6.541   4.358
 5827WAT     H117723   9.439   6.468   4.425
 5827WAT     H217724   9.330   6.567   4.354
 5828WAT      O17725   0.154   6.179   8.468
 5828WAT     H117726   0.178   6.106   8.533
 5828WAT     H217727   0.132   6.139   8.379
 5829WAT      O17728   5.157   6.876   7.783
 5829WAT     H117729   5.074   6.822   7.796
 5829WAT     H217730   5.237   6.823   7.812
 5830WAT      O17731   0.874   0.420   4.917
 5830WAT     H117732   0.836   0.487   4.981
 5830WAT     H217733   0.954   0.377   4.958
 5831WAT      O17734   2.608   5.205   6.981
 5831WAT     H117735   2.643   5.214   7.074
 5831WAT     H217736   2.684   5.202   6.916
 5832WAT      O17737   1.941   3.287   8.365
 5832WAT     H117738   2.027   3.244   8.391
 5832WAT     H217739   1.893   3.318   8.447
 5833WAT      O17740   9.737   1.711   8.888
 5833WAT     H117741   9.769   1.751   8.974
 5833WAT     H217742   9.816   1.671   8.840
 5834WAT      O17743   2.898   8.341   9.346
 5834WAT     H117744   2.857   8.410   9.406
 5834WAT     H217745   2.997   8.344   9.354
 5835WAT      O17746   6.088   1.029   2.734
 5835WAT     H117747   6.146   1.103   2.701
 5835WAT     H217748   6.139   0.972   2.798
 5836WAT      O17749   9.176   1.746   9.689
 5836WAT     H117750   9.078   1.731   9.676
 5836WAT     H217751   9.227   1.673   9.643
 5837WAT      O17752   6.025   1.443   7.904
 5837WAT     H117753   6.017   1.471   7.808
 5837WAT     H217754   6.113   1.399   7.919
 5838WAT      O17755   9.326   3.773   0.296
 5838WAT     H117756   9.238   3.789   0.252
 5838WAT     H217757   9.366   3.688   0.262
 5839WAT      O17758   4.479   3.049   1.624
 5839WAT     H117759   4.554   2.983   1.632
 5839WAT     H217760   4.510   3.139   1.654
 5840WAT      O17761   1.198   8.100   1.728
 5840WAT     H117762   1.260   8.057   1.794
 5840WAT     H217763   1.249   8.122   1.645
 5841WAT      O17764   5.475   8.158   7.648
 5841WAT     H117765   5.520   8.178   7.561
 5841WAT     H217766   5.453   8.244   7.695
 5842WAT      O17767   5.127   3.310   8.394
 5842WAT     H117768   5.119   3.317   8.294
 5842WAT     H217769   5.074   3.383   8.437
 5843WAT      O17770   7.135   7.021   7.099
 5843WAT     H117771   7.196   6.949   7.067
 5843WAT     H217772   7.188   7.091   7.146
 5844WAT      O17773   6.910   6.262   8.741
 5844WAT     H117774   6.978   6.331   8.768
 5844WAT     H217775   6.906   6.257   8.641
 5845WAT      O17776   8.306   6.573   8.647
 5845WAT     H117777   8.255   6.658   8.663
 5845WAT     H217778   8.242   6.499   8.627
 5846WAT      O17779   5.150   6.822   0.870
 5846WAT     H117780   5.069   6.830   0.929
 5846WAT     H217781   5.133   6.871   0.785
 5847WAT      O17782   1.748   0.379   0.210
 5847WAT     H117783   1.750   0.419   0.302
 5847WAT     H217784   1.741   0.280   0.217
 5848WAT      O17785   2.257   9.195   8.427
 5848WAT     H117786   2.351   9.166   8.410
 5848WAT     H217787   2.207   9.199   8.341
 5849WAT      O17788   9.598   1.517   9.847
 5849WAT     H117789   9.633   1.485   9.935
 5849WAT     H217790   9.604   1.617   9.844
 5850WAT      O17791   1.798   2.721   2.347
 5850WAT     H117792   1.860   2.734   2.270
 5850WAT     H217793   1.850   2.723   2.432
 5851WAT      O17794   1.793   9.449   7.516
 5851WAT     H117795   1.860   9.392   7.563
 5851WAT     H217796   1.736   9.496   7.583
 5852WAT      O17797   0.249   2.266   1.241
 5852WAT     H117798   0.287   2.177   1.267
 5852WAT     H217799   0.258   2.279   1.142
 5853WAT      O17800   0.519   6.554   8.942
 5853WAT     H117801   0.474   6.584   9.026
 5853WAT     H217802   0.486   6.463   8.917
 5854WAT      O17803   8.652   0.346   2.159
 5854WAT     H117804   8.637   0.441   2.187
 5854WAT     H217805   8.739   0.339   2.111
 5855WAT      O17806   3.402   4.667   5.375
 5855WAT     H117807   3.351   4.622   5.302
 5855WAT     H217808   3.500   4.666   5.353
 5856WAT      O17809   8.456   1.941   5.922
 5856WAT     H117810   8.524   2.009   5.896
 5856WAT     H217811   8.462   1.924   6.021
 5857WAT      O17812   1.113   4.355   5.472
 5857WAT     H117813   1.151   4.267   5.444
 5857WAT     H217814   1.154   4.428   5.418
 5858WAT      O17815   4.274   7.830   3.190
 5858WAT     H117816   4.368   7.805   3.216
 5858WAT     H217817   4.214   7.821   3.270
 5859WAT      O17818   7.382   7.545   0.395
 5859WAT     H117819   7.474   7.520   0.366
 5859WAT     H217820   7.360   7.637   0.362
 5860WAT      O17821   3.694   6.733   8.064
 5860WAT     H117822   3.713   6.783   8.148
 5860WAT     H217823   3.770   6.744   8.000
 5861WAT      O17824   2.971   3.684   1.465
 5861WAT     H117825   3.034   3.638   1.528
 5861WAT     H217826   2.994   3.781   1.460
 5862WAT      O17827   1.196   1.452   2.109
 5862WAT     H117828   1.261   1.376   2.100
 5862WAT     H217829   1.154   1.450   2.200
 5863WAT      O17830   9.310   7.670   3.606
 5863WAT     H117831   9.377   7.599   3.628
 5863WAT     H217832   9.304   7.736   3.682
 5864WAT      O17833   8.973   5.327   1.237
 5864WAT     H117834   8.970   5.417   1.193
 5864WAT     H217835   8.969   5.256   1.167
 5865WAT      O17836   4.044   5.074   1.602
 5865WAT     H117837   4.030   5.171   1.625
 5865WAT     H217838   4.008   5.057   1.510
 5866WAT      O17839   4.293   0.131   6.535
 5866WAT     H117840   4.258   0.221   6.510
 5866WAT     H217841   4.233   0.060   6.498
 5867WAT      O17842   1.269   9.706   1.010
 5867WAT     H117843   1.265   9.742   0.916
 5867WAT     H217844   1.356   9.658   1.023
 5868WAT      O17845   6.848   6.223   3.710
 5868WAT     H117846   6.769   6.163   3.694
 5868WAT     H217847   6.819   6.303   3.762
 5869WAT      O17848   0.665   8.783   6.586
 5869WAT     H117849   0.685   8.764   6.489
 5869WAT     H217850   0.579   8.833   6.593
 5870WAT      O17851   7.694   1.282   5.597
 5870WAT     H117852   7.708   1.365   5.651
 5870WAT     H217853   7.685   1.305   5.501
 5871WAT      O17854   0.960   2.607   2.225
 5871WAT     H117855   0.888   2.666   2.190
 5871WAT     H217856   0.963   2.612   2.325
 5872WAT      O17857   8.373   2.192   0.325
 5872WAT     H117858   8.283   2.211   0.365
 5872WAT     H217859   8.444   2.212   0.392
 5873WAT      O17860   4.415   9.459   8.697
 5873WAT     H117861   4.416   9.537   8.634
 5873WAT     H217862   4.490   9.469   8.763
 5874WAT      O17863   5.790   7.261   9.228
 5874WAT     H117864   5.851   7.271   9.306
 5874WAT     H217865   5.756   7.167   9.224
 5875WAT      O17866   6.267   0.286   1.503
 5875WAT     H117867   6.212   0.338   1.568
 5875WAT     H217868   6.273   0.337   1.417
 5876WAT      O17869   4.926   0.440   0.223
 5876WAT     H117870   5.015   0.462   0.182
 5876WAT     H217871   4.904   0.344   0.205
 5877WAT      O17872   6.356   7.965   0.873
 5877WAT     H117873   6.385   8.029   0.944
 5877WAT     H217874   6.269   7.994   0.835
 5878WAT      O17875   7.053   2.611   4.259
 5878WAT     H117876   6.995   2.561   4.324
 5878WAT     H217877   7.128   2.552   4.229
 5879WAT      O17878   6.031   9.742   9.246
 5879WAT     H117879   5.962   9.687   9.199
 5879WAT     H217880   6.086   9.684   9.306
 5880WAT      O17881   9.215   1.307   7.146
 5880WAT     H117882   9.230   1.398   7.183
 5880WAT     H217883   9.274   1.294   7.066
 5881WAT      O17884   4.170   4.798   0.488
 5881WAT     H117885   4.220   4.880   0.514
 5881WAT     H217886   4.213   4.757   0.407
 5882WAT      O17887   9.141   5.356   7.204
 5882WAT     H117888   9.064   5.409   7.167
 5882WAT     H217889   9.141   5.265   7.164
 5883WAT      O17890   8.732   1.826   2.916
 5883WAT     H117891   8.804   1.856   2.979
 5883WAT     H217892   8.719   1.895   2.845
 5884WAT      O17893   4.173   2.827   3.296
 5884WAT     H117894   4.122   2.859   3.376
 5884WAT     H217895   4.109   2.798   3.225
 5885WAT      O17896   6.183   5.607   7.860
 5885WAT     H117897   6.259   5.582   7.920
 5885WAT     H217898   6.219   5.628   7.768
 5886WAT      O17899   5.572   0.538   0.844
 5886WAT     H117900   5.475   0.526   0.825
 5886WAT     H217901   5.585   0.565   0.939
 5887WAT      O17902   2.037   4.199   8.054
 5887WAT     H117903   2.075   4.178   7.964
 5887WAT     H217904   2.101   4.258   8.104
 5888WAT      O17905   1.225   5.546   9.665
 5888WAT     H117906   1.189   5.627   9.620
 5888WAT     H217907   1.152   5.479   9.677
 5889WAT      O17908   8.994   9.104   6.208
 5889WAT     H117909   8.935   9.183   6.224
 5889WAT     H217910   8.940   9.029   6.172
 5890WAT      O17911   3.548   7.491   2.348
 5890WAT     H117912   3.465   7.516   2.297
 5890WAT     H217913   3.571   7.564   2.412
 5891WAT      O17914   7.182   8.016   9.276
 5891WAT     H117915   7.176   7.986   9.180
 5891WAT     H217916   7.249   7.960   9.324
 5892WAT      O17917   9.281   6.283   0.533
 5892WAT     H117918   9.199   6.283   0.590
 5892WAT     H217919   9.330   6.196   0.545
 5893WAT      O17920   3.366   8.167   5.902
 5893WAT     H117921   3.313   8.099   5.953
 5893WAT     H217922   3.391   8.242   5.963
 5894WAT      O17923   6.685   0.387   2.866
 5894WAT     H117924   6.712   0.471   2.913
 5894WAT     H217925   6.649   0.410   2.775
 5895WAT      O17926   7.813   4.614   7.341
 5895WAT     H117927   7.895   4.634   7.396
 5895WAT     H217928   7.763   4.538   7.382
 5896WAT      O17929   2.527   9.585   6.916
 5896WAT     H117930   2.526   9.492   6.951
 5896WAT     H217931   2.433   9.619   6.908
 5897WAT      O17932   4.297   7.622   9.714
 5897WAT     H117933   4.262   7.653   9.802
 5897WAT     H217934   4.325   7.702   9.660
 5898WAT      O17935   2.985   2.813   4.108
 5898WAT     H117936   2.965   2.734   4.051
 5898WAT     H217937   3.078   2.806   4.144
 5899WAT      O17938   9.372   8.312   4.694
 5899WAT     H117939   9.343   8.288   4.787
 5899WAT     H217940   9.419   8.234   4.652
 5900WAT      O17941   1.158   4.588   1.930
 5900WAT     H117942   1.079   4.548   1.884
 5900WAT     H217943   1.147   4.688   1.933
 5901WAT      O17944   4.886   2.909   8.255
 5901WAT     H117945   4.869   2.997   8.211
 5901WAT     H217946   4.927   2.845   8.190
 5902WAT      O17947   9.743   2.824   3.254
 5902WAT     H117948   9.748   2.779   3.165
 5902WAT     H217949   9.820   2.887   3.264
 5903WAT      O17950   6.254   1.421   4.180
 5903WAT     H117951   6.192   1.434   4.103
 5903WAT     H217952   6.247   1.499   4.243
 5904WAT      O17953   4.990   5.372   3.273
 5904WAT     H117954   4.900   5.355   3.313
 5904WAT     H217955   4.992   5.465   3.235
 5905WAT      O17956   7.885   9.769   1.357
 5905WAT     H117957   7.860   9.751   1.261
 5905WAT     H217958   7.910   9.683   1.401
 5906WAT      O17959   1.768   8.192   4.809
 5906WAT     H117960   1.853   8.170   4.762
 5906WAT     H217961   1.782   8.183   4.908
 5907WAT      O17962   7.345   4.734   3.524
 5907WAT     H117963   7.313   4.820   3.564
 5907WAT     H217964   7.274   4.664   3.536
 5908WAT      O17965   4.150   0.072   0.792
 5908WAT     H117966   4.057   0.110   0.788
 5908WAT     H217967   4.176   0.058   0.888
 5909WAT      O17968   1.200   7.062   2.181
 5909WAT     H117969   1.255   7.131   2.133
 5909WAT     H217970   1.132   7.109   2.238
 5910WAT      O17971   8.822   8.220   6.692
 5910WAT     H117972   8.755   8.161   6.648
 5910WAT     H217973   8.783   8.258   6.776
 5911WAT      O17974   6.636   1.682   5.152
 5911WAT     H117975   6.578   1.681   5.234
 5911WAT     H217976   6.598   1.747   5.086
 5912WAT      O17977   2.010   7.784   3.849
 5912WAT     H117978   1.966   7.714   3.793
 5912WAT     H217979   2.072   7.838   3.793
 5913WAT      O17980   3.200   1.633   3.572
 5913WAT     H117981   3.192   1.661   3.476
 5913WAT     H217982   3.288   1.663   3.609
 5914WAT      O17983   3.247   8.980   9.721
 5914WAT     H117984   3.162   9.015   9.682
 5914WAT     H217985   3.314   8.967   9.648
 5915WAT      O17986   2.032   9.499   2.250
 5915WAT     H117987   1.938   9.521   2.275
 5915WAT     H217988   2.033   9.437   2.171
 5916WAT      O17989   1.508   2.712   0.675
 5916WAT     H117990   1.440   2.680   0.741
 5916WAT     H217991   1.579   2.642   0.664
 5917WAT      O17992   8.028   2.929   4.509
 5917WAT     H117993   7.985   2.839   4.502
 5917WAT     H217994   8.022   2.961   4.603
 5918WAT      O17995   9.869   2.197   8.365
 5918WAT     H117996   9.774   2.171   8.380
 5918WAT     H217997   9.902   2.157   8.279
 5919WAT      O17998   5.260   0.440   8.645
 5919WAT     H117999   5.213   0.509   8.591
 5919WAT     H218000   5.353   0.427   8.609
 5920WAT      O18001   0.938   2.027   8.286
 5920WAT     H118002   1.004   2.101   8.274
 5920WAT     H218003   0.877   2.050   8.363
 5921WAT      O18004   3.847   5.545   1.805
 5921WAT     H118005   3.910   5.505   1.739
 5921WAT     H218006   3.752   5.526   1.779
 5922WAT      O18007   0.222   8.061   1.303
 5922WAT     H118008   0.207   8.104   1.392
 5922WAT     H218009   0.314   8.081   1.271
 5923WAT      O18010   7.237   8.279   0.561
 5923WAT     H118011   7.145   8.260   0.526
 5923WAT     H218012   7.293   8.197   0.554
 5924WAT      O18013   5.244   8.966   0.495
 5924WAT     H118014   5.253   8.880   0.545
 5924WAT     H218015   5.157   8.966   0.445
 5925WAT      O18016   2.503   7.588   6.214
 5925WAT     H118017   2.477   7.605   6.309
 5925WAT     H218018   2.586   7.640   6.192
 5926WAT      O18019   4.540   5.818   9.772
 5926WAT     H118020   4.507   5.730   9.807
 5926WAT     H218021   4.570   5.875   9.848
 5927WAT      O18022   0.847   1.984   2.621
 5927WAT     H118023   0.862   1.891   2.655
 5927WAT     H218024   0.934   2.034   2.620
 5928WAT      O18025   3.094   6.683   2.531
 5928WAT     H118026   3.178   6.727   2.500
 5928WAT     H218027   3.111   6.636   2.618
 5929WAT      O18028   9.622   3.827   6.950
 5929WAT     H118029   9.576   3.849   7.036
 5929WAT     H218030   9.635   3.728   6.943
 5930WAT      O18031   3.401   7.351   6.579
 5930WAT     H118032   3.371   7.326   6.487
 5930WAT     H218033   3.501   7.356   6.581
 5931WAT      O18034   2.923   6.383   1.058
 5931WAT     H118035   2.883   6.461   1.107
 5931WAT     H218036   2.909   6.395   0.960
 5932WAT      O18037   1.849   5.641   9.382
 5932WAT     H118038   1.923   5.576   9.399
 5932WAT     H218039   1.849   5.711   9.453
 5933WAT      O18040   1.456   0.943   7.264
 5933WAT     H118041   1.470   0.844   7.265
 5933WAT     H218042   1.445   0.976   7.357
 5934WAT      O18043   6.788   2.704   9.736
 5934WAT     H118044   6.753   2.789   9.696
 5934WAT     H218045   6.730   2.628   9.706
 5935WAT      O18046   8.911   3.665   3.089
 5935WAT     H118047   8.821   3.692   3.126
 5935WAT     H218048   8.903   3.576   3.045
 5936WAT      O18049   1.905   3.317   2.005
 5936WAT     H118050   1.915   3.416   2.000
 5936WAT     H218051   1.995   3.274   1.995
 5937WAT      O18052   9.332   6.434   3.563
 5937WAT     H118053   9.281   6.390   3.489
 5937WAT     H218054   9.351   6.529   3.538
 5938WAT      O18055   1.433   5.755   0.471
 5938WAT     H118056   1.523   5.798   0.468
 5938WAT     H218057   1.444   5.656   0.474
 5939WAT      O18058   4.658   5.889   6.280
 5939WAT     H118059   4.614   5.822   6.220
 5939WAT     H218060   4.681   5.845   6.367
 5940WAT      O18061   8.538   5.739   6.643
 5940WAT     H118062   8.586   5.675   6.583
 5940WAT     H218063   8.596   5.819   6.659
 5941WAT      O18064   6.788   2.012   7.541
 5941WAT     H118065   6.705   2.053   7.506
 5941WAT     H218066   6.784   1.913   7.528
 5942WAT      O18067   8.499   3.089   3.469
 5942WAT     H118068   8.511   3.183   3.501
 5942WAT     H218069   8.404   3.076   3.441
 5943WAT      O18070   9.659   6.244   5.630
 5943WAT     H118071   9.747   6.245   5.583
 5943WAT     H218072   9.586   6.232   5.563
 5944WAT      O18073   3.789   5.155   2.859
 5944WAT     H118074   3.806   5.165   2.761
 5944WAT     H218075   3.868   5.112   2.902
 5945WAT      O18076   1.493   5.977   2.210
 5945WAT     H118077   1.527   6.071   2.208
 5945WAT     H218078   1.564   5.915   2.177
 5946WAT      O18079   2.795   3.732   8.221
 5946WAT     H118080   2.872   3.757   8.280
 5946WAT     H218081   2.823   3.657   8.160
 5947WAT      O18082   3.673   4.942   4.298
 5947WAT     H118083   3.582   4.973   4.326
 5947WAT     H218084   3.703   4.994   4.218
 5948WAT      O18085   0.383   0.238   9.623
 5948WAT     H118086   0.476   0.254   9.589
 5948WAT     H218087   0.324   0.210   9.547
 5949WAT      O18088   7.576   5.814   1.680
 5949WAT     H118089   7.526   5.768   1.753
 5949WAT     H218090   7.655   5.760   1.653
 5950WAT      O18091   9.545   4.856   1.398
 5950WAT     H118092   9.571   4.860   1.495
 5950WAT     H218093   9.587   4.776   1.356
 5951WAT      O18094   8.606   2.246   1.412
 5951WAT     H118095   8.704   2.227   1.411
 5951WAT     H218096   8.590   2.342   1.435
 5952WAT      O18097   6.144   2.640   3.468
 5952WAT     H118098   6.094   2.703   3.409
 5952WAT     H218099   6.193   2.573   3.412
 5953WAT      O18100   5.245   5.738   1.626
 5953WAT     H118101   5.153   5.773   1.609
 5953WAT     H218102   5.309   5.814   1.636
 5954WAT      O18103   7.906   9.694   6.781
 5954WAT     H118104   7.929   9.775   6.833
 5954WAT     H218105   7.898   9.615   6.843
 5955WAT      O18106   7.924   5.714   6.763
 5955WAT     H118107   7.933   5.655   6.843
 5955WAT     H218108   7.924   5.810   6.791
 5956WAT      O18109   5.047   7.930   2.436
 5956WAT     H118110   5.059   7.884   2.524
 5956WAT     H218111   4.950   7.945   2.418
 5957WAT      O18112   6.819   1.719   7.499
 5957WAT     H118113   6.823   1.621   7.517
 5957WAT     H218114   6.912   1.753   7.483
 5958WAT      O18115   8.544   4.711   1.682
 5958WAT     H118116   8.598   4.655   1.619
 5958WAT     H218117   8.589   4.800   1.693
 5959WAT      O18118   4.830   4.262   9.584
 5959WAT     H118119   4.844   4.179   9.530
 5959WAT     H218120   4.756   4.315   9.544
 5960WAT      O18121   7.953   0.829   0.519
 5960WAT     H118122   8.024   0.838   0.589
 5960WAT     H218123   7.865   0.809   0.562
 5961WAT      O18124   3.454   9.178   2.793
 5961WAT     H118125   3.443   9.101   2.730
 5961WAT     H218126   3.513   9.247   2.752
 5962WAT      O18127   0.375   4.638   1.922
 5962WAT     H118128   0.301   4.630   1.989
 5962WAT     H218129   0.351   4.707   1.854
 5963WAT      O18130   4.037   1.492   5.961
 5963WAT     H118131   3.992   1.516   5.875
 5963WAT     H218132   4.115   1.432   5.943
 5964WAT      O18133   6.233   3.621   4.574
 5964WAT     H118134   6.179   3.540   4.596
 5964WAT     H218135   6.328   3.593   4.557
 5965WAT      O18136   7.246   5.099   8.843
 5965WAT     H118137   7.312   5.118   8.771
 5965WAT     H218138   7.254   5.168   8.915
 5966WAT      O18139   1.445   0.338   2.081
 5966WAT     H118140   1.470   0.358   1.986
 5966WAT     H218141   1.482   0.409   2.141
 5967WAT      O18142   2.465   6.289   5.016
 5967WAT     H118143   2.494   6.379   5.048
 5967WAT     H218144   2.546   6.235   4.991
 5968WAT      O18145   2.369   7.768   5.471
 5968WAT     H118146   2.416   7.756   5.559
 5968WAT     H218147   2.284   7.819   5.486
 5969WAT      O18148   5.673   1.958   8.934
 5969WAT     H118149   5.755   1.910   8.901
 5969WAT     H218150   5.667   2.048   8.890
 5970WAT      O18151   1.654   8.834   7.382
 5970WAT     H118152   1.676   8.897   7.456
 5970WAT     H218153   1.714   8.853   7.303
 5971WAT      O18154   0.659   6.815   7.252
 5971WAT     H118155   0.657   6.794   7.155
 5971WAT     H218156   0.660   6.730   7.305
 5972WAT      O18157   0.518   0.641   3.962
 5972WAT     H118158   0.498   0.736   3.934
 5972WAT     H218159   0.528   0.584   3.880
 5973WAT      O18160   5.301   6.871   2.436
 5973WAT     H118161   5.377   6.809   2.416
 5973WAT     H218162   5.224   6.818   2.471
 5974WAT      O18163   3.124   7.573   4.204
 5974WAT     H118164   3.197   7.506   4.192
 5974WAT     H218165   3.156   7.663   4.173
 5975WAT      O18166   4.258   7.624   3.471
 5975WAT     H118167   4.213   7.713   3.461
 5975WAT     H218168   4.346   7.625   3.423
 5976WAT      O18169   8.876   0.737   7.509
 5976WAT     H118170   8.827   0.725   7.422
 5976WAT     H218171   8.811   0.731   7.585
 5977WAT      O18172   0.182   4.240   2.274
 5977WAT     H118173   0.247   4.310   2.246
 5977WAT     H218174   0.230   4.153   2.286
 5978WAT      O18175   7.619   1.304   3.599
 5978WAT     H118176   7.625   1.404   3.600
 5978WAT     H218177   7.589   1.271   3.688
 5979WAT      O18178   1.711   6.065   5.466
 5979WAT     H118179   1.798   6.094   5.506
 5979WAT     H218180   1.648   6.039   5.539
 5980WAT      O18181   4.875   2.923   9.014
 5980WAT     H118182   4.974   2.931   9.007
 5980WAT     H218183   4.839   2.880   8.931
 5981WAT      O18184   3.472   0.185   5.089
 5981WAT     H118185   3.517   0.144   5.009
 5981WAT     H218186   3.496   0.133   5.171
 5982WAT      O18187   7.318   0.646   9.746
 5982WAT     H118188   7.310   0.553   9.712
 5982WAT     H218189   7.408   0.683   9.723
 5983WAT      O18190   1.231   8.062   0.992
 5983WAT     H118191   1.206   8.158   0.978
 5983WAT     H218192   1.178   8.005   0.930
 5984WAT      O18193   0.724   8.021   1.316
 5984WAT     H118194   0.705   7.951   1.247
 5984WAT     H218195   0.823   8.037   1.322
 5985WAT      O18196   2.406   2.351   1.504
 5985WAT     H118197   2.385   2.325   1.410
 5985WAT     H218198   2.420   2.269   1.559
 5986WAT      O18199   2.721   0.995   5.584
 5986WAT     H118200   2.802   1.040   5.546
 5986WAT     H218201   2.738   0.896   5.590
 5987WAT      O18202   4.413   8.841   2.764
 5987WAT     H118203   4.409   8.758   2.708
 5987WAT     H218204   4.348   8.832   2.840
 5988WAT      O18205   0.477   9.790   2.035
 5988WAT     H118206   0.386   9.809   2.000
 5988WAT     H218207   0.475   9.705   2.088
 5989WAT      O18208   3.594   7.050   9.215
 5989WAT     H118209   3.608   7.036   9.313
 5989WAT     H218210   3.682   7.074   9.172
 5990WAT      O18211   1.607   8.036   4.414
 5990WAT     H118212   1.613   7.966   4.485
 5990WAT     H218213   1.551   8.112   4.447
 5991WAT      O18214   3.692   4.475   9.553
 5991WAT     H118215   3.716   4.572   9.559
 5991WAT     H218216   3.659   4.454   9.461
 5992WAT      O18217   5.195   3.080   4.545
 5992WAT     H118218   5.173   3.124   4.459
 5992WAT     H218219   5.220   3.149   4.613
 5993WAT      O18220   1.624   9.056   5.787
 5993WAT     H118221   1.582   9.083   5.873
 5993WAT     H218222   1.616   8.957   5.775
 5994WAT      O18223   2.251   1.290   3.951
 5994WAT     H118224   2.282   1.372   3.903
 5994WAT     H218225   2.227   1.219   3.885
 5995WAT      O18226   7.551   8.777   8.320
 5995WAT     H118227   7.523   8.712   8.248
 5995WAT     H218228   7.649   8.771   8.334
 5996WAT      O18229   4.985   1.038   4.001
 5996WAT     H118230   5.050   0.976   4.046
 5996WAT     H218231   4.905   1.050   4.059
 5997WAT      O18232   0.274   3.931   5.968
 5997WAT     H118233   0.346   3.876   5.926
 5997WAT     H218234   0.235   3.882   6.046
 5998WAT      O18235   6.555   2.570   8.636
 5998WAT     H118236   6.544   2.510   8.556
 5998WAT     H218237   6.604   2.652   8.609
 5999WAT      O18238   4.866   0.346   4.738
 5999WAT     H118239   4.900   0.302   4.822
 5999WAT     H218240   4.836   0.439   4.760
 6000WAT      O18241   2.990   0.782   3.131
 6000WAT     H118242   2.998   0.687   3.102
 6000WAT     H218243   2.933   0.787   3.213
 6001WAT      O18244   1.486   7.120   1.095
 6001WAT     H118245   1.496   7.053   1.168
 6001WAT     H218246   1.394   7.113   1.056
 6002WAT      O18247   3.698   8.132   8.382
 6002WAT     H118248   3.630   8.199   8.410
 6002WAT     H218249   3.768   8.124   8.453
 6003WAT      O18250   5.587   1.925   3.993
 6003WAT     H118251   5.577   1.836   4.038
 6003WAT     H218252   5.497   1.967   3.982
 6004WAT      O18253   6.908   0.502   3.870
 6004WAT     H118254   6.961   0.587   3.865
 6004WAT     H218255   6.811   0.524   3.874
 6005WAT      O18256   1.241   7.638   2.491
 6005WAT     H118257   1.178   7.715   2.496
 6005WAT     H218258   1.218   7.581   2.412
 6006WAT      O18259   4.631   3.355   6.699
 6006WAT     H118260   4.546   3.302   6.701
 6006WAT     H218261   4.655   3.378   6.605
 6007WAT      O18262   8.725   2.803   8.225
 6007WAT     H118263   8.688   2.781   8.315
 6007WAT     H218264   8.814   2.760   8.214
 6008WAT      O18265   9.208   8.296   6.010
 6008WAT     H118266   9.137   8.331   6.072
 6008WAT     H218267   9.167   8.274   5.922
 6009WAT      O18268   2.645   2.018   0.166
 6009WAT     H118269   2.648   2.069   0.080
 6009WAT     H218270   2.593   1.934   0.152
 6010WAT      O18271   9.070   4.122   0.684
 6010WAT     H118272   9.099   4.218   0.684
 6010WAT     H218273   9.072   4.087   0.591
 6011WAT      O18274   6.086   4.058   3.202
 6011WAT     H118275   6.000   4.036   3.156
 6011WAT     H218276   6.107   4.155   3.190
 6012WAT      O18277   6.466   9.617   1.205
 6012WAT     H118278   6.378   9.591   1.167
 6012WAT     H218279   6.475   9.579   1.297
 6013WAT      O18280   4.975   9.618   1.874
 6013WAT     H118281   4.962   9.707   1.831
 6013WAT     H218282   5.045   9.625   1.945
 6014WAT      O18283   6.645   2.024   5.278
 6014WAT     H118284   6.592   1.969   5.213
 6014WAT     H218285   6.742   2.016   5.259
 6015WAT      O18286   0.696   4.612   7.612
 6015WAT     H118287   0.723   4.573   7.524
 6015WAT     H218288   0.597   4.628   7.613
 6016WAT      O18289   9.245   6.868   8.112
 6016WAT     H118290   9.149   6.893   8.124
 6016WAT     H218291   9.304   6.941   8.147
 6017WAT      O18292   1.714   2.683   3.998
 6017WAT     H118293   1.671   2.604   3.955
 6017WAT     H218294   1.688   2.687   4.094
 6018WAT      O18295   3.923   6.539   3.831
 6018WAT     H118296   3.913   6.443   3.808
 6018WAT     H218297   3.851   6.592   3.786
 6019WAT      O18298   7.934   7.881   5.104
 6019WAT     H118299   7.861   7.881   5.035
 6019WAT     H218300   8.004   7.946   5.077
 6020WAT      O18301   9.758   4.060   5.079
 6020WAT     H118302   9.776   4.152   5.114
 6020WAT     H218303   9.820   4.041   5.003
 6021WAT      O18304   7.892   1.001   3.818
 6021WAT     H118305   7.857   0.918   3.862
 6021WAT     H218306   7.987   0.986   3.789
 6022WAT      O18307   6.071   5.030   4.239
 6022WAT     H118308   5.980   5.008   4.203
 6022WAT     H218309   6.068   5.030   4.339
 6023WAT      O18310   3.794   6.238   0.272
 6023WAT     H118311   3.847   6.285   0.342
 6023WAT     H218312   3.852   6.171   0.225
 6024WAT      O18313   7.163   0.146   5.650
 6024WAT     H118314   7.109   0.168   5.732
 6024WAT     H218315   7.251   0.108   5.678
 6025WAT      O18316   4.191   8.976   0.758
 6025WAT     H118317   4.289   8.980   0.739
 6025WAT     H218318   4.140   9.011   0.679
 6026WAT      O18319   0.479   5.962   9.131
 6026WAT     H118320   0.489   6.003   9.222
 6026WAT     H218321   0.456   6.034   9.065
 6027WAT      O18322   6.883   6.178   4.028
 6027WAT     H118323   6.971   6.204   4.069
 6027WAT     H218324   6.864   6.238   3.950
 6028WAT      O18325   8.726   0.302   3.800
 6028WAT     H118326   8.815   0.341   3.825
 6028WAT     H218327   8.730   0.268   3.706
 6029WAT      O18328   9.483   4.150   5.307
 6029WAT     H118329   9.458   4.229   5.363
 6029WAT     H218330   9.547   4.092   5.358
 6030WAT      O18331   1.933   4.613   2.860
 6030WAT     H118332   2.011   4.562   2.896
 6030WAT     H218333   1.965   4.688   2.802
 6031WAT      O18334   7.786   1.909   2.500
 6031WAT     H118335   7.705   1.951   2.541
 6031WAT     H218336   7.856   1.978   2.487
 6032WAT      O18337   8.053   5.229   7.828
 6032WAT     H118338   8.151   5.240   7.809
 6032WAT     H218339   8.005   5.208   7.743
 6033WAT      O18340   6.763   9.645   1.541
 6033WAT     H118341   6.742   9.626   1.637
 6033WAT     H218342   6.855   9.684   1.534
 6034WAT      O18343   6.064   8.702   4.316
 6034WAT     H118344   5.991   8.714   4.384
 6034WAT     H218345   6.152   8.720   4.359
 6035WAT      O18346   4.089   3.295   8.989
 6035WAT     H118347   4.091   3.245   8.902
 6035WAT     H218348   4.025   3.371   8.982
 6036WAT      O18349   7.424   0.572   8.027
 6036WAT     H118350   7.434   0.649   8.090
 6036WAT     H218351   7.474   0.591   7.942
 6037WAT      O18352   4.834   9.006   0.806
 6037WAT     H118353   4.836   8.920   0.858
 6037WAT     H218354   4.739   9.028   0.784
 6038WAT      O18355   8.237   6.077   6.859
 6038WAT     H118356   8.256   6.059   6.956
 6038WAT     H218357   8.225   6.175   6.845
 6039WAT      O18358   5.063   8.079   7.671
 6039WAT     H118359   5.136   8.012   7.657
 6039WAT     H218360   4.977   8.032   7.689
 6040WAT      O18361   2.062   8.651   0.854
 6040WAT     H118362   2.097   8.666   0.761
 6040WAT     H218363   2.104   8.570   0.893
 6041WAT      O18364   9.028   8.448   0.938
 6041WAT     H118365   9.019   8.475   1.034
 6041WAT     H218366   9.019   8.528   0.879
 6042WAT      O18367   3.515   8.119   5.653
 6042WAT     H118368   3.457   8.150   5.728
 6042WAT     H218369   3.574   8.045   5.685
 6043WAT      O18370   5.109   5.252   3.056
 6043WAT     H118371   5.075   5.316   3.124
 6043WAT     H218372   5.060   5.264   2.970
 6044WAT      O18373   6.614   9.802   2.874
 6044WAT     H118374   6.575   9.856   2.949
 6044WAT     H218375   6.669   9.727   2.912
 6045WAT      O18376   2.888   5.770   9.748
 6045WAT     H118377   2.811   5.810   9.798
 6045WAT     H218378   2.973   5.793   9.796
 6046WAT      O18379   7.948   1.989   8.886
 6046WAT     H118380   8.024   2.041   8.926
 6046WAT     H218381   7.873   1.983   8.953
 6047WAT      O18382   2.032   6.832   1.481
 6047WAT     H118383   2.073   6.740   1.478
 6047WAT     H218384   1.969   6.842   1.405
 6048WAT      O18385   8.958   5.268   8.340
 6048WAT     H118386   9.039   5.322   8.320
 6048WAT     H218387   8.921   5.230   8.255
 6049WAT      O18388   3.230   0.612   8.012
 6049WAT     H118389   3.279   0.613   8.100
 6049WAT     H218390   3.203   0.518   7.991
 6050WAT      O18391   6.238   6.639   4.534
 6050WAT     H118392   6.284   6.580   4.600
 6050WAT     H218393   6.141   6.644   4.556
 6051WAT      O18394   4.103   7.567   3.931
 6051WAT     H118395   4.087   7.550   4.028
 6051WAT     H218396   4.052   7.501   3.877
 6052WAT      O18397   0.075   3.610   7.259
 6052WAT     H118398   0.118   3.693   7.293
 6052WAT     H218399  -0.009   3.633   7.210
 6053WAT      O18400   5.963   6.293   3.751
 6053WAT     H118401   5.944   6.197   3.729
 6053WAT     H218402   5.931   6.351   3.676
 6054WAT      O18403   7.288   3.084   1.734
 6054WAT     H118404   7.340   3.006   1.699
 6054WAT     H218405   7.193   3.057   1.749
 6055WAT      O18406   0.730   1.977   0.761
 6055WAT     H118407   0.771   2.051   0.814
 6055WAT     H218408   0.701   2.012   0.672
 6056WAT      O18409   7.977   2.855   8.713
 6056WAT     H118410   7.920   2.774   8.711
 6056WAT     H218411   7.950   2.917   8.639
 6057WAT      O18412   8.071   8.440   6.095
 6057WAT     H118413   8.037   8.534   6.103
 6057WAT     H218414   8.155   8.439   6.042
 6058WAT      O18415   0.822   6.984   0.384
 6058WAT     H118416   0.736   6.937   0.401
 6058WAT     H218417   0.832   7.061   0.447
 6059WAT      O18418   2.501   6.889   2.134
 6059WAT     H118419   2.412   6.917   2.099
 6059WAT     H218420   2.501   6.791   2.151
 6060WAT      O18421   8.834   0.852   9.154
 6060WAT     H118422   8.751   0.902   9.179
 6060WAT     H218423   8.913   0.913   9.159
 6061WAT      O18424   3.084   0.317   6.666
 6061WAT     H118425   3.021   0.341   6.592
 6061WAT     H218426   3.070   0.378   6.743
 6062WAT      O18427   0.401   1.940   0.504
 6062WAT     H118428   0.499   1.955   0.492
 6062WAT     H218429   0.359   1.921   0.415
 6063WAT      O18430   5.255   5.110   0.108
 6063WAT     H118431   5.171   5.055   0.106
 6063WAT     H218432   5.311   5.084   0.187
 6064WAT      O18433   9.737   2.235   6.528
 6064WAT     H118434   9.725   2.159   6.464
 6064WAT     H218435   9.728   2.201   6.622
 6065WAT      O18436   8.549   4.370   1.717
 6065WAT     H118437   8.576   4.276   1.737
 6065WAT     H218438   8.459   4.370   1.673
 6066WAT      O18439   2.444   4.039   3.463
 6066WAT     H118440   2.368   3.974   3.471
 6066WAT     H218441   2.494   4.021   3.378
 6067WAT      O18442   1.144   3.377   1.983
 6067WAT     H118443   1.238   3.409   1.975
 6067WAT     H218444   1.125   3.311   1.910
 6068WAT      O18445   9.417   2.175   8.974
 6068WAT     H118446   9.422   2.078   8.949
 6068WAT     H218447   9.448   2.231   8.897
 6069WAT      O18448   9.605   0.968   5.390
 6069WAT     H118449   9.658   1.042   5.349
 6069WAT     H218450   9.663   0.887   5.400
 6070WAT      O18451   9.192   8.071   8.267
 6070WAT     H118452   9.244   8.133   8.208
 6070WAT     H218453   9.183   7.982   8.222
 6071WAT      O18454   8.119   4.639   6.269
 6071WAT     H118455   8.093   4.635   6.173
 6071WAT     H218456   8.153   4.731   6.291
 6072WAT      O18457   6.660   8.373   9.050
 6072WAT     H118458   6.688   8.433   9.124
 6072WAT     H218459   6.710   8.287   9.056
 6073WAT      O18460   2.522   9.320   6.962
 6073WAT     H118461   2.596   9.283   7.019
 6073WAT     H218462   2.446   9.255   6.961
 6074WAT      O18463   7.838   6.465   7.430
 6074WAT     H118464   7.796   6.394   7.374
 6074WAT     H218465   7.788   6.551   7.418
 6075WAT      O18466   6.689   0.084   0.156
 6075WAT     H118467   6.767   0.112   0.101
 6075WAT     H218468   6.608   0.073   0.098
 6076WAT      O18469   3.171   3.215   5.519
 6076WAT     H118470   3.240   3.286   5.536
 6076WAT     H218471   3.151   3.167   5.604
 6077WAT      O18472   3.123   4.752   8.682
 6077WAT     H118473   3.051   4.778   8.746
 6077WAT     H218474   3.197   4.706   8.731
 6078WAT      O18475   8.851   3.417   2.929
 6078WAT     H118476   8.773   3.393   2.988
 6078WAT     H218477   8.823   3.408   2.833
 6079WAT      O18478   5.917   9.356   4.283
 6079WAT     H118479   5.980   9.315   4.349
 6079WAT     H218480   5.823   9.333   4.308
 6080WAT      O18481   0.404   9.315   8.836
 6080WAT     H118482   0.453   9.255   8.773
 6080WAT     H218483   0.349   9.260   8.899
 6081WAT      O18484   3.729   1.439   2.202
 6081WAT     H118485   3.747   1.522   2.255
 6081WAT     H218486   3.636   1.407   2.221
 6082WAT      O18487   3.104   3.501   4.671
 6082WAT     H118488   3.092   3.542   4.761
 6082WAT     H218489   3.197   3.464   4.663
 6083WAT      O18490   4.063   6.102   3.194
 6083WAT     H118491   4.109   6.013   3.195
 6083WAT     H218492   4.112   6.164   3.133
 6084WAT      O18493   7.610   0.351   1.938
 6084WAT     H118494   7.589   0.440   1.898
 6084WAT     H218495   7.691   0.312   1.894
 6085WAT      O18496   0.965   3.573   0.730
 6085WAT     H118497   0.990   3.492   0.677
 6085WAT     H218498   1.003   3.654   0.687
 6086WAT      O18499   8.164   2.559   8.930
 6086WAT     H118500   8.107   2.632   8.966
 6086WAT     H218501   8.123   2.523   8.846
 6087WAT      O18502   4.228   0.601   9.063
 6087WAT     H118503   4.264   0.553   8.983
 6087WAT     H218504   4.196   0.691   9.036
 6088WAT      O18505   3.740   1.270   5.430
 6088WAT     H118506   3.640   1.268   5.428
 6088WAT     H218507   3.772   1.230   5.516
 6089WAT      O18508   9.582   3.916   6.371
 6089WAT     H118509   9.559   3.865   6.288
 6089WAT     H218510   9.607   3.853   6.444
 6090WAT      O18511   6.653   3.742   5.304
 6090WAT     H118512   6.583   3.788   5.358
 6090WAT     H218513   6.702   3.809   5.249
 6091WAT      O18514   4.969   2.063   1.149
 6091WAT     H118515   4.985   2.126   1.225
 6091WAT     H218516   5.038   2.078   1.078
 6092WAT      O18517   2.629   4.868   8.242
 6092WAT     H118518   2.559   4.933   8.212
 6092WAT     H218519   2.586   4.792   8.292
 6093WAT      O18520   4.732   6.016   9.629
 6093WAT     H118521   4.738   5.919   9.603
 6093WAT     H218522   4.637   6.038   9.653
 6094WAT      O18523   8.356   1.324   8.821
 6094WAT     H118524   8.351   1.355   8.915
 6094WAT     H218525   8.301   1.240   8.811
 6095WAT      O18526   5.814   6.000   7.026
 6095WAT     H118527   5.729   5.954   7.000
 6095WAT     H218528   5.852   5.957   7.108
 6096WAT      O18529   7.885   9.458   2.161
 6096WAT     H118530   7.835   9.538   2.130
 6096WAT     H218531   7.825   9.401   2.218
 6097WAT      O18532   4.147   6.492   9.112
 6097WAT     H118533   4.244   6.477   9.129
 6097WAT     H218534   4.128   6.484   9.015
 6098WAT      O18535   2.778   3.825   9.600
 6098WAT     H118536   2.767   3.730   9.570
 6098WAT     H218537   2.874   3.852   9.588
 6099WAT      O18538   0.612   5.587   6.899
 6099WAT     H118539   0.630   5.684   6.915
 6099WAT     H218540   0.614   5.538   6.987
 6100WAT      O18541   5.630   5.089   1.647
 6100WAT     H118542   5.535   5.082   1.678
 6100WAT     H218543   5.632   5.100   1.548
 6101WAT      O18544   9.182   9.650   0.267
 6101WAT     H118545   9.125   9.643   0.185
 6101WAT     H218546   9.224   9.561   0.287
 6102WAT      O18547   4.932   2.708   2.692
 6102WAT     H118548   4.926   2.762   2.608
 6102WAT     H218549   4.842   2.672   2.715
 6103WAT      O18550   9.331   6.355   0.916
 6103WAT     H118551   9.278   6.325   0.996
 6103WAT     H218552   9.270   6.401   0.851
 6104WAT      O18553   9.473   7.495   6.025
 6104WAT     H118554   9.509   7.451   5.943
 6104WAT     H218555   9.514   7.586   6.035
 6105WAT      O18556   8.928   2.773   4.381
 6105WAT     H118557   8.907   2.707   4.308
 6105WAT     H218558   8.899   2.864   4.352
 6106WAT      O18559   6.727   5.790   3.466
 6106WAT     H118560   6.640   5.837   3.454
 6106WAT     H218561   6.787   5.812   3.389
 6107WAT      O18562   6.109   5.275   4.429
 6107WAT     H118563   6.084   5.358   4.478
 6107WAT     H218564   6.041   5.256   4.358
 6108WAT      O18565   2.909   5.023   2.082
 6108WAT     H118566   2.894   4.964   2.162
 6108WAT     H218567   2.944   4.968   2.006
 6109WAT      O18568   0.750   5.518   9.671
 6109WAT     H118569   0.798   5.447   9.723
 6109WAT     H218570   0.659   5.532   9.710
 6110WAT      O18571   5.714   7.767   9.211
 6110WAT     H118572   5.715   7.679   9.258
 6110WAT     H218573   5.620   7.790   9.185
 6111WAT      O18574   8.696   2.648   5.747
 6111WAT     H118575   8.659   2.583   5.813
 6111WAT     H218576   8.714   2.602   5.660
 6112WAT      O18577   7.321   7.867   4.865
 6112WAT     H118578   7.388   7.845   4.794
 6112WAT     H218579   7.240   7.810   4.853
 6113WAT      O18580   9.680   9.697   7.144
 6113WAT     H118581   9.624   9.780   7.137
 6113WAT     H218582   9.761   9.706   7.087
 6114WAT      O18583   9.250   6.320   3.323
 6114WAT     H118584   9.263   6.233   3.276
 6114WAT     H218585   9.238   6.393   3.255
 6115WAT      O18586   5.859   9.772   5.700
 6115WAT     H118587   5.910   9.858   5.701
 6115WAT     H218588   5.815   9.760   5.611
 6116WAT      O18589   1.473   2.813   6.593
 6116WAT     H118590   1.401   2.756   6.632
 6116WAT     H218591   1.537   2.755   6.542
 6117WAT      O18592   3.209   5.324   0.630
 6117WAT     H118593   3.163   5.244   0.670
 6117WAT     H218594   3.259   5.297   0.548
 6118WAT      O18595   1.292   0.755   9.769
 6118WAT     H118596   1.330   0.803   9.848
 6118WAT     H218597   1.196   0.733   9.786
 6119WAT      O18598   7.137   0.815   2.498
 6119WAT     H118599   7.124   0.903   2.453
 6119WAT     H218600   7.105   0.821   2.593
 6120WAT      O18601   7.174   7.180   8.331
 6120WAT     H118602   7.192   7.235   8.248
 6120WAT     H218603   7.215   7.090   8.320
 6121WAT      O18604   2.674   6.885   5.580
 6121WAT     H118605   2.664   6.849   5.673
 6121WAT     H218606   2.738   6.962   5.581
 6122WAT      O18607   0.386   8.574   0.857
 6122WAT     H118608   0.372   8.582   0.956
 6122WAT     H218609   0.477   8.609   0.834
 6123WAT      O18610   8.001   9.628   7.656
 6123WAT     H118611   7.903   9.641   7.673
 6123WAT     H218612   8.053   9.692   7.713
 6124WAT      O18613   7.377   2.600   5.146
 6124WAT     H118614   7.387   2.681   5.205
 6124WAT     H218615   7.443   2.606   5.071
 6125WAT      O18616   4.683   1.114   7.467
 6125WAT     H118617   4.678   1.214   7.480
 6125WAT     H218618   4.774   1.090   7.433
 6126WAT      O18619   0.419   8.300   6.863
 6126WAT     H118620   0.474   8.302   6.947
 6126WAT     H218621   0.480   8.292   6.784
 6127WAT      O18622   2.808   6.354   0.278
 6127WAT     H118623   2.894   6.313   0.249
 6127WAT     H218624   2.790   6.437   0.226
 6128WAT      O18625   9.161   7.085   4.459
 6128WAT     H118626   9.127   7.106   4.367
 6128WAT     H218627   9.124   7.151   4.524
 6129WAT      O18628   7.511   0.383   4.121
 6129WAT     H118629   7.603   0.406   4.089
 6129WAT     H218630   7.449   0.458   4.102
 6130WAT      O18631   5.628   4.443   7.297
 6130WAT     H118632   5.623   4.543   7.289
 6130WAT     H218633   5.542   4.403   7.265
 6131WAT      O18634   5.865   5.480   9.859
 6131WAT     H118635   5.962   5.458   9.872
 6131WAT     H218636   5.809   5.421   9.916
 6132WAT      O18637   9.077   8.064   1.485
 6132WAT     H118638   9.115   7.989   1.432
 6132WAT     H218639   9.125   8.149   1.461
 6133WAT      O18640   1.580   9.734   4.956
 6133WAT     H118641   1.589   9.809   4.891
 6133WAT     H218642   1.484   9.722   4.981
 6134WAT      O18643   2.586   5.996   3.008
 6134WAT     H118644   2.596   5.988   3.108
 6134WAT     H218645   2.541   5.914   2.973
 6135WAT      O18646   4.682   9.396   4.538
 6135WAT     H118647   4.730   9.326   4.591
 6135WAT     H218648   4.584   9.382   4.546
 6136WAT      O18649   5.402   9.227   0.935
 6136WAT     H118650   5.489   9.218   0.887
 6136WAT     H218651   5.401   9.313   0.987
 6137WAT      O18652   2.137   3.949   6.687
 6137WAT     H118653   2.063   3.969   6.752
 6137WAT     H218654   2.109   3.977   6.595
 6138WAT      O18655   6.551   6.994   2.426
 6138WAT     H118656   6.492   7.071   2.400
 6138WAT     H218657   6.511   6.947   2.504
 6139WAT      O18658   2.520   5.074   8.797
 6139WAT     H118659   2.547   5.062   8.702
 6139WAT     H218660   2.531   5.170   8.823
 6140WAT      O18661   7.117   3.903   6.995
 6140WAT     H118662   7.179   3.825   6.997
 6140WAT     H218663   7.069   3.905   6.908
 6141WAT      O18664   1.841   1.869   8.221
 6141WAT     H118665   1.807   1.962   8.234
 6141WAT     H218666   1.764   1.808   8.202
 6142WAT      O18667   8.178   3.894   6.365
 6142WAT     H118668   8.105   3.921   6.302
 6142WAT     H218669   8.144   3.902   6.459
 6143WAT      O18670   1.185   0.408   4.748
 6143WAT     H118671   1.167   0.371   4.839
 6143WAT     H218672   1.126   0.362   4.681
 6144WAT      O18673   3.674   3.777   4.368
 6144WAT     H118674   3.639   3.724   4.290
 6144WAT     H218675   3.710   3.864   4.335
 6145WAT      O18676   6.852   9.488   0.565
 6145WAT     H118677   6.797   9.409   0.591
 6145WAT     H218678   6.803   9.541   0.495
 6146WAT      O18679   3.108   3.190   2.548
 6146WAT     H118680   3.056   3.196   2.463
 6146WAT     H218681   3.197   3.232   2.536
 6147WAT      O18682   2.059   8.544   4.925
 6147WAT     H118683   2.149   8.514   4.957
 6147WAT     H218684   1.989   8.513   4.989
 6148WAT      O18685   7.706   8.639   5.832
 6148WAT     H118686   7.751   8.566   5.883
 6148WAT     H218687   7.658   8.700   5.895
 6149WAT      O18688   6.359   3.232   0.992
 6149WAT     H118689   6.387   3.220   0.897
 6149WAT     H218690   6.414   3.172   1.051
 6150WAT      O18691   5.864   4.413   4.323
 6150WAT     H118692   5.934   4.387   4.390
 6150WAT     H218693   5.907   4.458   4.245
 6151WAT      O18694   3.448   8.732   3.667
 6151WAT     H118695   3.513   8.656   3.677
 6151WAT     H218696   3.436   8.777   3.756
 6152WAT      O18697   2.352   7.936   3.932
 6152WAT     H118698   2.378   7.867   3.999
 6152WAT     H218699   2.427   7.950   3.868
 6153WAT      O18700   7.842   5.372   0.726
 6153WAT     H118701   7.815   5.292   0.674
 6153WAT     H218702   7.922   5.414   0.684
 6154WAT      O18703   9.230   4.409   4.913
 6154WAT     H118704   9.300   4.398   4.842
 6154WAT     H218705   9.254   4.352   4.992
 6155WAT      O18706   7.570   2.239   5.624
 6155WAT     H118707   7.486   2.290   5.645
 6155WAT     H218708   7.548   2.158   5.571
 6156WAT      O18709   1.392   2.682   0.275
 6156WAT     H118710   1.304   2.693   0.229
 6156WAT     H218711   1.406   2.756   0.341
 6157WAT      O18712   2.522   2.051   9.180
 6157WAT     H118713   2.562   2.106   9.107
 6157WAT     H218714   2.423   2.048   9.169
 6158WAT      O18715   5.348   2.800   3.751
 6158WAT     H118716   5.299   2.713   3.744
 6158WAT     H218717   5.317   2.848   3.833
 6159WAT      O18718   2.037   8.331   7.673
 6159WAT     H118719   2.067   8.301   7.763
 6159WAT     H218720   2.117   8.353   7.617
 6160WAT      O18721   6.251   8.903   5.997
 6160WAT     H118722   6.274   8.881   5.903
 6160WAT     H218723   6.228   9.000   6.005
 6161WAT      O18724   4.920   1.616   3.921
 6161WAT     H118725   4.878   1.689   3.974
 6161WAT     H218726   4.917   1.531   3.973
 6162WAT      O18727   1.044   2.198   0.150
 6162WAT     H118728   1.099   2.115   0.152
 6162WAT     H218729   0.951   2.176   0.119
 6163WAT      O18730   2.912   1.842   8.417
 6163WAT     H118731   2.931   1.869   8.511
 6163WAT     H218732   2.949   1.910   8.354
 6164WAT      O18733   3.532   8.983   6.233
 6164WAT     H118734   3.528   8.908   6.167
 6164WAT     H218735   3.579   9.061   6.192
 6165WAT      O18736   1.591   8.459   8.430
 6165WAT     H118737   1.642   8.374   8.436
 6165WAT     H218738   1.605   8.500   8.339
 6166WAT      O18739   9.196   6.957   2.938
 6166WAT     H118740   9.157   6.933   2.848
 6166WAT     H218741   9.168   6.888   3.005
 6167WAT      O18742   3.449   7.747   8.054
 6167WAT     H118743   3.419   7.838   8.083
 6167WAT     H218744   3.480   7.695   8.134
 6168WAT      O18745   3.421   5.794   2.371
 6168WAT     H118746   3.499   5.827   2.317
 6168WAT     H218747   3.346   5.859   2.365
 6169WAT      O18748   2.638   9.374   9.181
 6169WAT     H118749   2.606   9.287   9.143
 6169WAT     H218750   2.679   9.358   9.271
 6170WAT      O18751   8.664   0.506   4.017
 6170WAT     H118752   8.745   0.517   3.958
 6170WAT     H218753   8.662   0.413   4.053
 6171WAT      O18754   5.623   8.823   0.002
 6171WAT     H118755   5.538   8.864  -0.031
 6171WAT     H218756   5.606   8.778   0.090
 6172WAT      O18757   8.813   4.224   0.757
 6172WAT     H118758   8.899   4.173   0.748
 6172WAT     H218759   8.790   4.234   0.854
 6173WAT      O18760   3.372   6.971   6.509
 6173WAT     H118761   3.315   6.920   6.444
 6173WAT     H218762   3.403   7.057   6.467
 6174WAT      O18763   7.000   7.285   1.593
 6174WAT     H118764   7.050   7.346   1.532
 6174WAT     H218765   7.011   7.316   1.688
 6175WAT      O18766   7.208   4.302   3.821
 6175WAT     H118767   7.267   4.311   3.902
 6175WAT     H218768   7.237   4.222   3.769
 6176WAT      O18769   6.963   5.037   3.891
 6176WAT     H118770   6.897   4.963   3.879
 6176WAT     H218771   6.946   5.083   3.978
 6177WAT      O18772   8.044   3.269   9.633
 6177WAT     H118773   8.045   3.187   9.690
 6177WAT     H218774   8.036   3.350   9.691
 6178WAT      O18775   9.375   3.703   7.436
 6178WAT     H118776   9.284   3.744   7.437
 6178WAT     H218777   9.438   3.760   7.489
 6179WAT      O18778   6.815   8.509   7.847
 6179WAT     H118779   6.725   8.481   7.812
 6179WAT     H218780   6.884   8.444   7.816
 6180WAT      O18781   9.714   6.243   0.028
 6180WAT     H118782   9.776   6.321   0.019
 6180WAT     H218783   9.707   6.216   0.124
 6181WAT      O18784   2.575   5.398   0.419
 6181WAT     H118785   2.494   5.340   0.411
 6181WAT     H218786   2.634   5.384   0.339
 6182WAT      O18787   4.404   2.320   8.019
 6182WAT     H118788   4.343   2.393   8.052
 6182WAT     H218789   4.348   2.244   7.986
 6183WAT      O18790   7.201   3.641   4.537
 6183WAT     H118791   7.229   3.685   4.622
 6183WAT     H218792   7.199   3.542   4.551
 6184WAT      O18793   0.892   5.513   2.029
 6184WAT     H118794   0.853   5.546   2.115
 6184WAT     H218795   0.984   5.478   2.045
 6185WAT      O18796   4.285   8.328   8.089
 6185WAT     H118797   4.201   8.295   8.046
 6185WAT     H218798   4.266   8.413   8.138
 6186WAT      O18799   2.867   3.702   1.835
 6186WAT     H118800   2.953   3.744   1.804
 6186WAT     H218801   2.887   3.621   1.890
 6187WAT      O18802   3.782   0.621   3.976
 6187WAT     H118803   3.683   0.616   3.991
 6187WAT     H218804   3.804   0.708   3.931
 6188WAT      O18805   6.624   6.206   6.799
 6188WAT     H118806   6.565   6.127   6.814
 6188WAT     H218807   6.694   6.209   6.870
 6189WAT      O18808   6.640   9.096   0.630
 6189WAT     H118809   6.669   9.065   0.720
 6189WAT     H218810   6.552   9.055   0.607
 6190WAT      O18811   4.556   0.064   4.835
 6190WAT     H118812   4.536  -0.034   4.832
 6190WAT     H218813   4.616   0.089   4.760
 6191WAT      O18814   2.449   6.527   8.406
 6191WAT     H118815   2.454   6.598   8.335
 6191WAT     H218816   2.360   6.531   8.451
 6192WAT      O18817   5.333   0.120   2.176
 6192WAT     H118818   5.240   0.091   2.201
 6192WAT     H218819   5.379   0.047   2.126
 6193WAT      O18820   9.243   3.817   1.910
 6193WAT     H118821   9.203   3.811   2.001
 6193WAT     H218822   9.288   3.906   1.899
 6194WAT      O18823   7.627   9.446   5.283
 6194WAT     H118824   7.587   9.484   5.200
 6194WAT     H218825   7.727   9.451   5.276
 6195WAT      O18826   2.316   4.727   4.786
 6195WAT     H118827   2.273   4.670   4.856
 6195WAT     H218828   2.401   4.765   4.822
 6196WAT      O18829   0.290   6.472   7.574
 6196WAT     H118830   0.362   6.535   7.604
 6196WAT     H218831   0.255   6.502   7.485
 6197WAT      O18832   2.466   4.592   5.788
 6197WAT     H118833   2.541   4.625   5.845
 6197WAT     H218834   2.478   4.494   5.772
 6198WAT      O18835   4.628   0.892   3.431
 6198WAT     H118836   4.588   0.977   3.394
 6198WAT     H218837   4.689   0.915   3.507
 6199WAT      O18838   6.336   4.158   0.560
 6199WAT     H118839   6.346   4.062   0.536
 6199WAT     H218840   6.325   4.213   0.477
 6200WAT      O18841   5.727   1.454   8.338
 6200WAT     H118842   5.809   1.445   8.394
 6200WAT     H218843   5.753   1.482   8.246
 6201WAT      O18844   6.142   1.872   4.450
 6201WAT     H118845   6.175   1.782   4.423
 6201WAT     H218846   6.216   1.938   4.443
 6202WAT      O18847   2.402   9.825   0.617
 6202WAT     H118848   2.437   9.740   0.657
 6202WAT     H218849   2.377   9.889   0.690
 6203WAT      O18850   0.558   0.410   3.075
 6203WAT     H118851   0.639   0.450   3.117
 6203WAT     H218852   0.477   0.461   3.104
 6204WAT      O18853   0.540   4.705   5.098
 6204WAT     H118854   0.514   4.618   5.141
 6204WAT     H218855   0.495   4.712   5.009
 6205WAT      O18856   1.535   2.345   6.269
 6205WAT     H118857   1.531   2.337   6.169
 6205WAT     H218858   1.481   2.424   6.298
 6206WAT      O18859   2.431   9.086   4.805
 6206WAT     H118860   2.473   9.051   4.721
 6206WAT     H218861   2.438   9.016   4.876
 6207WAT      O18862   3.331   5.925   7.659
 6207WAT     H118863   3.314   5.890   7.751
 6207WAT     H218864   3.311   5.855   7.591
 6208WAT      O18865   8.531   2.551   8.220
 6208WAT     H118866   8.470   2.615   8.173
 6208WAT     H218867   8.565   2.594   8.304
 6209WAT      O18868   5.130   9.027   9.546
 6209WAT     H118869   5.199   9.066   9.484
 6209WAT     H218870   5.154   9.049   9.640
 6210WAT      O18871   5.303   2.248   9.184
 6210WAT     H118872   5.324   2.328   9.127
 6210WAT     H218873   5.354   2.254   9.269
 6211WAT      O18874   9.247   1.946   5.716
 6211WAT     H118875   9.203   1.872   5.766
 6211WAT     H218876   9.236   2.032   5.767
 6212WAT      O18877   2.985   0.116   0.401
 6212WAT     H118878   2.967   0.214   0.396
 6212WAT     H218879   2.998   0.090   0.497
 6213WAT      O18880   8.351   9.602   2.569
 6213WAT     H118881   8.271   9.659   2.551
 6213WAT     H218882   8.411   9.650   2.634
 6214WAT      O18883  -0.001   6.799   5.824
 6214WAT     H118884  -0.017   6.873   5.758
 6214WAT     H218885   0.039   6.721   5.777
 6215WAT      O18886   5.931   8.000   0.219
 6215WAT     H118887   5.989   8.009   0.301
 6215WAT     H218888   5.888   8.087   0.199
 6216WAT      O18889   1.048   2.709   6.264
 6216WAT     H118890   0.965   2.764   6.251
 6216WAT     H218891   1.123   2.768   6.292
 6217WAT      O18892   9.144   7.080   0.698
 6217WAT     H118893   9.173   7.005   0.758
 6217WAT     H218894   9.118   7.043   0.609
 6218WAT      O18895   7.157   5.658   0.028
 6218WAT     H118896   7.060   5.656   0.002
 6218WAT     H218897   7.173   5.592   0.101
 6219WAT      O18898   0.885   4.643   1.392
 6219WAT     H118899   0.787   4.652   1.372
 6219WAT     H218900   0.933   4.616   1.309
 6220WAT      O18901   5.170   1.259   2.604
 6220WAT     H118902   5.192   1.163   2.592
 6220WAT     H218903   5.178   1.284   2.701
 6221WAT      O18904   1.207   9.836   4.508
 6221WAT     H118905   1.260   9.791   4.580
 6221WAT     H218906   1.238   9.930   4.498
 6222WAT      O18907   0.345   2.035   8.931
 6222WAT     H118908   0.414   2.045   8.859
 6222WAT     H218909   0.332   2.123   8.976
 6223WAT      O18910   7.914   5.169   9.454
 6223WAT     H118911   7.843   5.165   9.524
 6223WAT     H218912   7.882   5.223   9.376
 6224WAT      O18913   3.383   6.049   3.874
 6224WAT     H118914   3.355   5.961   3.835
 6224WAT     H218915   3.417   6.108   3.801
 6225WAT      O18916   7.977   8.922   9.753
 6225WAT     H118917   7.980   9.009   9.803
 6225WAT     H218918   7.936   8.937   9.662
 6226WAT      O18919   3.574   1.228   7.267
 6226WAT     H118920   3.552   1.186   7.355
 6226WAT     H218921   3.518   1.310   7.254
 6227WAT      O18922   0.844   0.162   0.111
 6227WAT     H118923   0.815   0.198   0.022
 6227WAT     H218924   0.885   0.072   0.098
 6228WAT      O18925   9.630   5.895   6.593
 6228WAT     H118926   9.572   5.914   6.514
 6228WAT     H218927   9.672   5.980   6.624
 6229WAT      O18928   9.580   3.661   9.460
 6229WAT     H118929   9.655   3.694   9.516
 6229WAT     H218930   9.543   3.737   9.406
 6230WAT      O18931   9.889   0.402   7.017
 6230WAT     H118932   9.827   0.438   7.086
 6230WAT     H218933   9.862   0.437   6.927
 6231WAT      O18934   9.118   6.379   7.735
 6231WAT     H118935   9.021   6.383   7.711
 6231WAT     H218936   9.172   6.422   7.662
 6232WAT      O18937   0.611   7.289   0.848
 6232WAT     H118938   0.535   7.334   0.802
 6232WAT     H218939   0.603   7.190   0.839
 6233WAT      O18940   8.680   3.341   3.110
 6233WAT     H118941   8.596   3.387   3.137
 6233WAT     H218942   8.671   3.243   3.124
 6234WAT      O18943   9.766   2.128   7.409
 6234WAT     H118944   9.802   2.035   7.406
 6234WAT     H218945   9.835   2.189   7.447
 6235WAT      O18946   7.097   3.946   5.173
 6235WAT     H118947   7.197   3.950   5.170
 6235WAT     H218948   7.066   3.960   5.267
 6236WAT      O18949   9.458   7.446   0.090
 6236WAT     H118950   9.363   7.473   0.105
 6236WAT     H218951   9.462   7.349   0.063
 6237WAT      O18952   0.550   4.486   2.453
 6237WAT     H118953   0.628   4.424   2.455
 6237WAT     H218954   0.567   4.559   2.387
 6238WAT      O18955   9.512   3.396   6.905
 6238WAT     H118956   9.487   3.388   6.809
 6238WAT     H218957   9.445   3.453   6.953
 6239WAT      O18958   3.957   8.429   7.410
 6239WAT     H118959   3.897   8.360   7.371
 6239WAT     H218960   3.908   8.480   7.481
 6240WAT      O18961   7.862   4.897   6.448
 6240WAT     H118962   7.789   4.874   6.384
 6240WAT     H218963   7.823   4.930   6.534
 6241WAT      O18964   2.787   0.524   6.855
 6241WAT     H118965   2.835   0.500   6.770
 6241WAT     H218966   2.785   0.444   6.916
 6242WAT      O18967   5.060   4.821   9.761
 6242WAT     H118968   5.074   4.913   9.798
 6242WAT     H218969   5.133   4.761   9.794
 6243WAT      O18970   2.555   9.800   8.074
 6243WAT     H118971   2.544   9.754   7.985
 6243WAT     H218972   2.468   9.842   8.101
 6244WAT      O18973   8.800   2.387   7.691
 6244WAT     H118974   8.853   2.448   7.633
 6244WAT     H218975   8.704   2.415   7.692
 6245WAT      O18976   1.255   0.603   6.558
 6245WAT     H118977   1.262   0.695   6.597
 6245WAT     H218978   1.321   0.593   6.484
 6246WAT      O18979   8.691   9.499   6.404
 6246WAT     H118980   8.605   9.463   6.368
 6246WAT     H218981   8.673   9.554   6.486
 6247WAT      O18982   3.306   2.524   0.018
 6247WAT     H118983   3.358   2.597   0.063
 6247WAT     H218984   3.250   2.476   0.086
 6248WAT      O18985   2.610   7.247   8.481
 6248WAT     H118986   2.642   7.340   8.462
 6248WAT     H218987   2.637   7.186   8.406
 6249WAT      O18988   9.017   8.422   0.279
 6249WAT     H118989   9.003   8.339   0.335
 6249WAT     H218990   8.944   8.428   0.211
 6250WAT      O18991   3.615   7.452   0.722
 6250WAT     H118992   3.580   7.402   0.802
 6250WAT     H218993   3.548   7.447   0.648
 6251WAT      O18994   1.707   0.696   4.713
 6251WAT     H118995   1.749   0.695   4.622
 6251WAT     H218996   1.752   0.628   4.771
 6252WAT      O18997   7.673   0.345   1.620
 6252WAT     H118998   7.668   0.257   1.572
 6252WAT     H218999   7.582   0.369   1.654
 6253WAT      O19000   3.974   3.065   1.116
 6253WAT     H119001   3.878   3.050   1.140
 6253WAT     H219002   3.999   3.159   1.139
 6254WAT      O19003   3.018   3.906   3.383
 6254WAT     H119004   3.059   3.983   3.432
 6254WAT     H219005   3.031   3.919   3.285
 6255WAT      O19006   2.412   6.779   6.688
 6255WAT     H119007   2.315   6.799   6.705
 6255WAT     H219008   2.451   6.849   6.629
 6256WAT      O19009   5.330   8.074   6.924
 6256WAT     H119010   5.315   7.981   6.890
 6256WAT     H219011   5.264   8.095   6.995
 6257WAT      O19012   7.419   7.124   8.786
 6257WAT     H119013   7.471   7.045   8.819
 6257WAT     H219014   7.468   7.208   8.809
 6258WAT      O19015   5.920   0.095   8.848
 6258WAT     H119016   5.924   0.195   8.841
 6258WAT     H219017   5.829   0.067   8.876
 6259WAT      O19018   6.243   1.246   7.582
 6259WAT     H119019   6.214   1.161   7.627
 6259WAT     H219020   6.330   1.276   7.621
 6260WAT      O19021   3.677   1.225   9.166
 6260WAT     H119022   3.695   1.154   9.098
 6260WAT     H219023   3.753   1.229   9.231
 6261WAT      O19024   2.342   8.585   3.377
 6261WAT     H119025   2.323   8.660   3.440
 6261WAT     H219026   2.369   8.504   3.430
 6262WAT      O19027   3.614   6.817   5.577
 6262WAT     H119028   3.703   6.786   5.608
 6262WAT     H219029   3.544   6.794   5.644
 6263WAT      O19030   3.386   8.341   3.706
 6263WAT     H119031   3.446   8.421   3.701
 6263WAT     H219032   3.369   8.318   3.802
 6264WAT      O19033   6.086   2.566   1.055
 6264WAT     H119034   6.094   2.606   0.964
 6264WAT     H219035   6.069   2.467   1.046
 6265WAT      O19036   0.076   7.948   9.798
 6265WAT     H119037   0.161   7.898   9.778
 6265WAT     H219038   0.098   8.035   9.843
 6266WAT      O19039   3.050   0.677   0.121
 6266WAT     H119040   2.991   0.627   0.057
 6266WAT     H219041   3.103   0.611   0.175
 6267WAT      O19042   2.353   7.446   3.414
 6267WAT     H119043   2.262   7.417   3.386
 6267WAT     H219044   2.410   7.462   3.334
 6268WAT      O19045   6.450   3.768   3.998
 6268WAT     H119046   6.494   3.787   4.085
 6268WAT     H219047   6.442   3.852   3.945
 6269WAT      O19048   2.110   5.775   2.526
 6269WAT     H119049   2.115   5.711   2.603
 6269WAT     H219050   2.181   5.844   2.536
 6270WAT      O19051   6.042   5.017   1.220
 6270WAT     H119052   6.032   4.936   1.279
 6270WAT     H219053   6.100   5.084   1.267
 6271WAT      O19054   1.200   2.153   8.226
 6271WAT     H119055   1.225   2.226   8.290
 6271WAT     H219056   1.205   2.187   8.132
 6272WAT      O19057   6.004   2.214   9.135
 6272WAT     H119058   5.956   2.254   9.057
 6272WAT     H219059   6.080   2.274   9.161
 6273WAT      O19060   3.447   0.748   7.923
 6273WAT     H119061   3.367   0.697   7.955
 6273WAT     H219062   3.467   0.822   7.987
 6274WAT      O19063   4.402   1.091   3.007
 6274WAT     H119064   4.456   1.109   2.925
 6274WAT     H219065   4.344   1.171   3.026
 6275WAT      O19066   6.552   5.523   7.600
 6275WAT     H119067   6.626   5.572   7.552
 6275WAT     H219068   6.588   5.438   7.638
 6276WAT      O19069   0.328   3.069   3.186
 6276WAT     H119070   0.341   3.029   3.095
 6276WAT     H219071   0.397   3.139   3.203
 6277WAT      O19072   6.078   6.008   0.233
 6277WAT     H119073   5.991   6.054   0.216
 6277WAT     H219074   6.140   6.025   0.156
 6278WAT      O19075   8.730   3.007   7.550
 6278WAT     H119076   8.829   3.027   7.549
 6278WAT     H219077   8.680   3.085   7.513
 6279WAT      O19078   8.150   5.581   1.816
 6279WAT     H119079   8.159   5.589   1.915
 6279WAT     H219080   8.080   5.644   1.783
 6280WAT      O19081   1.619   4.776   9.545
 6280WAT     H119082   1.650   4.858   9.496
 6280WAT     H219083   1.694   4.710   9.550
 6281WAT      O19084   9.405   8.126   6.863
 6281WAT     H119085   9.412   8.059   6.790
 6281WAT     H219086   9.328   8.104   6.923
 6282WAT      O19087   7.854   3.789   7.550
 6282WAT     H119088   7.950   3.812   7.560
 6282WAT     H219089   7.810   3.855   7.488
 6283WAT      O19090   8.104   4.677   3.974
 6283WAT     H119091   8.092   4.641   4.066
 6283WAT     H219092   8.168   4.620   3.923
 6284WAT      O19093   5.301   8.918   1.811
 6284WAT     H119094   5.338   8.980   1.742
 6284WAT     H219095   5.367   8.911   1.887
 6285WAT      O19096   2.932   9.597   7.926
 6285WAT     H119097   3.016   9.642   7.956
 6285WAT     H219098   2.856   9.625   7.984
 6286WAT      O19099   1.872   9.560   4.557
 6286WAT     H119100   1.799   9.559   4.489
 6286WAT     H219101   1.832   9.560   4.649
 6287WAT      O19102   9.116   4.062   7.223
 6287WAT     H119103   9.028   4.109   7.224
 6287WAT     H219104   9.144   4.044   7.128
 6288WAT      O19105   8.523   8.720   8.893
 6288WAT     H119106   8.606   8.738   8.841
 6288WAT     H219107   8.544   8.723   8.991
 6289WAT      O19108   5.360   5.884   1.098
 6289WAT     H119109   5.412   5.877   1.183
 6289WAT     H219110   5.334   5.980   1.083
 6290WAT      O19111   7.138   2.514   5.240
 6290WAT     H119112   7.233   2.537   5.217
 6290WAT     H219113   7.077   2.552   5.171
 6291WAT      O19114   4.104   1.417   1.631
 6291WAT     H119115   4.144   1.430   1.540
 6291WAT     H219116   4.167   1.364   1.688
 6292WAT      O19117   5.170   7.805   6.561
 6292WAT     H119118   5.203   7.763   6.477
 6292WAT     H219119   5.085   7.855   6.543
 6293WAT      O19120   0.623   5.253   9.492
 6293WAT     H119121   0.690   5.296   9.433
 6293WAT     H219122   0.669   5.190   9.554
 6294WAT      O19123   6.913   1.696   5.035
 6294WAT     H119124   6.830   1.696   5.092
 6294WAT     H219125   6.950   1.789   5.030
 6295WAT      O19126   7.493   9.688   2.213
 6295WAT     H119127   7.446   9.662   2.297
 6295WAT     H219128   7.509   9.786   2.213
 6296WAT      O19129   6.412   3.622   4.895
 6296WAT     H119130   6.319   3.599   4.921
 6296WAT     H219131   6.472   3.617   4.975
 6297WAT      O19132   7.658   3.793   1.126
 6297WAT     H119133   7.628   3.854   1.053
 6297WAT     H219134   7.749   3.821   1.158
 6298WAT      O19135   1.170   0.968   9.144
 6298WAT     H119136   1.090   1.021   9.117
 6298WAT     H219137   1.252   1.010   9.107
 6299WAT      O19138   8.400   5.903   5.660
 6299WAT     H119139   8.415   5.831   5.592
 6299WAT     H219140   8.486   5.949   5.680
 6300WAT      O19141   5.916   2.596   7.653
 6300WAT     H119142   5.906   2.587   7.554
 6300WAT     H219143   6.007   2.566   7.680
 6301WAT      O19144   4.526   7.329   0.837
 6301WAT     H119145   4.544   7.233   0.816
 6301WAT     H219146   4.432   7.352   0.810
 6302WAT      O19147   5.009   1.446   4.577
 6302WAT     H119148   5.098   1.403   4.595
 6302WAT     H219149   4.936   1.393   4.619
 6303WAT      O19150   5.687   2.565   7.807
 6303WAT     H119151   5.770   2.570   7.751
 6303WAT     H219152   5.636   2.482   7.783
 6304WAT      O19153   3.888   4.578   7.726
 6304WAT     H119154   3.859   4.531   7.643
 6304WAT     H219155   3.970   4.532   7.762
 6305WAT      O19156   5.357   8.986   6.867
 6305WAT     H119157   5.412   9.031   6.938
 6305WAT     H219158   5.335   9.052   6.795
 6306WAT      O19159   9.404   8.502   7.826
 6306WAT     H119160   9.365   8.548   7.906
 6306WAT     H219161   9.484   8.449   7.854
 6307WAT      O19162   6.790   8.050   2.097
 6307WAT     H119163   6.830   7.986   2.031
 6307WAT     H219164   6.754   7.999   2.175
 6308WAT      O19165   3.273   3.999   2.827
 6308WAT     H119166   3.191   3.941   2.830
 6308WAT     H219167   3.354   3.941   2.826
 6309WAT      O19168   5.965   2.178   5.670
 6309WAT     H119169   5.887   2.153   5.613
 6309WAT     H219170   5.989   2.274   5.653
 6310WAT      O19171   5.559   1.815   6.626
 6310WAT     H119172   5.570   1.732   6.680
 6310WAT     H219173   5.476   1.863   6.656
 6311WAT      O19174   3.222   6.143   6.273
 6311WAT     H119175   3.203   6.184   6.363
 6311WAT     H219176   3.319   6.121   6.266
 6312WAT      O19177   2.809   7.148   3.845
 6312WAT     H119178   2.783   7.052   3.829
 6312WAT     H219179   2.903   7.152   3.878
 6313WAT      O19180   8.809   5.198   8.996
 6313WAT     H119181   8.763   5.284   8.971
 6313WAT     H219182   8.908   5.209   8.987
 6314WAT      O19183   6.018   2.372   8.921
 6314WAT     H119184   6.047   2.325   8.837
 6314WAT     H219185   6.098   2.392   8.977
 6315WAT      O19186   8.652   3.909   6.473
 6315WAT     H119187   8.576   3.864   6.425
 6315WAT     H219188   8.720   3.840   6.499
 6316WAT      O19189   4.006   3.149   9.380
 6316WAT     H119190   3.921   3.142   9.432
 6316WAT     H219191   4.043   3.241   9.390
 6317WAT      O19192   4.371   8.654   2.436
 6317WAT     H119193   4.309   8.730   2.418
 6317WAT     H219194   4.463   8.688   2.451
 6318WAT      O19195   0.381   4.191   0.448
 6318WAT     H119196   0.479   4.202   0.467
 6318WAT     H219197   0.328   4.225   0.525
 6319WAT      O19198   0.220   4.921   1.829
 6319WAT     H119199   0.127   4.885   1.827
 6319WAT     H219200   0.221   5.011   1.786
 6320WAT      O19201   6.731   9.134   7.771
 6320WAT     H119202   6.809   9.125   7.833
 6320WAT     H219203   6.655   9.079   7.805
 6321WAT      O19204   0.775   1.906   5.070
 6321WAT     H119205   0.820   1.995   5.077
 6321WAT     H219206   0.768   1.880   4.974
 6322WAT      O19207   4.833   2.741   8.815
 6322WAT     H119208   4.745   2.738   8.768
 6322WAT     H219209   4.876   2.651   8.813
 6323WAT      O19210   9.296   2.964   7.733
 6323WAT     H119211   9.359   3.042   7.742
 6323WAT     H219212   9.317   2.896   7.803
 6324WAT      O19213   6.081   0.360   2.075
 6324WAT     H119214   6.021   0.312   2.140
 6324WAT     H219215   6.150   0.412   2.126
 6325WAT      O19216   9.441   9.442   5.102
 6325WAT     H119217   9.513   9.441   5.172
 6325WAT     H219218   9.478   9.408   5.016
 6326WAT      O19219   5.536   7.011   3.280
 6326WAT     H119220   5.626   7.053   3.270
 6326WAT     H219221   5.516   6.956   3.198
 6327WAT      O19222   2.414   4.133   4.596
 6327WAT     H119223   2.475   4.127   4.517
 6327WAT     H219224   2.404   4.228   4.624
 6328WAT      O19225   3.748   9.000   1.400
 6328WAT     H119226   3.709   8.983   1.491
 6328WAT     H219227   3.824   8.937   1.385
 6329WAT      O19228   5.230   6.583   9.679
 6329WAT     H119229   5.157   6.591   9.610
 6329WAT     H219230   5.315   6.556   9.634
 6330WAT      O19231   8.109   2.462   2.941
 6330WAT     H119232   8.161   2.394   2.992
 6330WAT     H219233   8.169   2.538   2.917
 6331WAT      O19234   6.714   8.161   0.983
 6331WAT     H119235   6.720   8.108   0.898
 6331WAT     H219236   6.766   8.115   1.055
 6332WAT      O19237   3.056   8.180   5.584
 6332WAT     H119238   2.987   8.111   5.605
 6332WAT     H219239   3.039   8.217   5.493
 6333WAT      O19240   9.384   4.440   9.453
 6333WAT     H119241   9.456   4.397   9.398
 6333WAT     H219242   9.307   4.465   9.394
 6334WAT      O19243   4.253   4.854   7.862
 6334WAT     H119244   4.304   4.771   7.835
 6334WAT     H219245   4.159   4.829   7.883
 6335WAT      O19246   4.752   2.176   3.226
 6335WAT     H119247   4.761   2.106   3.297
 6335WAT     H219248   4.698   2.252   3.262
 6336WAT      O19249   6.413   6.300   5.050
 6336WAT     H119250   6.451   6.316   4.959
 6336WAT     H219251   6.354   6.219   5.048
 6337WAT      O19252   4.216   2.102   8.263
 6337WAT     H119253   4.275   2.021   8.262
 6337WAT     H219254   4.219   2.147   8.174
 6338WAT      O19255   5.033   5.008   9.289
 6338WAT     H119256   5.077   5.093   9.316
 6338WAT     H219257   5.060   4.935   9.352
 6339WAT      O19258   8.104   0.720   8.222
 6339WAT     H119259   8.067   0.763   8.305
 6339WAT     H219260   8.043   0.647   8.192
 6340WAT      O19261   6.272   3.218   7.905
 6340WAT     H119262   6.271   3.125   7.868
 6340WAT     H219263   6.293   3.283   7.832
 6341WAT      O19264   5.500   0.788   1.708
 6341WAT     H119265   5.593   0.813   1.734
 6341WAT     H219266   5.441   0.793   1.788
 6342WAT      O19267   7.940   4.975   2.362
 6342WAT     H119268   7.888   5.040   2.307
 6342WAT     H219269   7.974   4.902   2.303
 6343WAT      O19270   5.767   9.597   3.074
 6343WAT     H119271   5.695   9.568   3.137
 6343WAT     H219272   5.780   9.696   3.081
 6344WAT      O19273   4.575   3.772   3.832
 6344WAT     H119274   4.620   3.838   3.772
 6344WAT     H219275   4.499   3.730   3.783
 6345WAT      O19276   6.200   0.267   0.349
 6345WAT     H119277   6.143   0.302   0.423
 6345WAT     H219278   6.145   0.205   0.292
 6346WAT      O19279   9.721   5.100   2.017
 6346WAT     H119280   9.697   5.008   2.048
 6346WAT     H219281   9.641   5.159   2.025
 6347WAT      O19282   1.774   5.310   7.708
 6347WAT     H119283   1.824   5.396   7.711
 6347WAT     H219284   1.713   5.303   7.787
 6348WAT      O19285   3.325   6.229   8.211
 6348WAT     H119286   3.424   6.243   8.204
 6348WAT     H219287   3.301   6.216   8.308
 6349WAT      O19288   5.526   1.253   4.099
 6349WAT     H119289   5.436   1.211   4.085
 6349WAT     H219290   5.544   1.318   4.026
 6350WAT      O19291   1.121   4.078   1.227
 6350WAT     H119292   1.102   4.143   1.301
 6350WAT     H219293   1.115   3.985   1.262
 6351WAT      O19294   5.818   0.863   6.514
 6351WAT     H119295   5.776   0.795   6.455
 6351WAT     H219296   5.836   0.946   6.461
 6352WAT      O19297   8.567   5.668   2.822
 6352WAT     H119298   8.652   5.701   2.861
 6352WAT     H219299   8.498   5.658   2.895
 6353WAT      O19300   1.593   6.421   0.840
 6353WAT     H119301   1.513   6.474   0.866
 6353WAT     H219302   1.659   6.420   0.915
 6354WAT      O19303   1.027   6.126   6.764
 6354WAT     H119304   1.006   6.035   6.799
 6354WAT     H219305   1.026   6.125   6.664
 6355WAT      O19306   5.882   8.983   2.155
 6355WAT     H119307   5.797   8.937   2.129
 6355WAT     H219308   5.864   9.080   2.169
 6356WAT      O19309   8.592   2.705   0.544
 6356WAT     H119310   8.574   2.796   0.579
 6356WAT     H219311   8.534   2.639   0.592
 6357WAT      O19312   6.662   2.137   6.768
 6357WAT     H119313   6.615   2.224   6.752
 6357WAT     H219314   6.629   2.096   6.853
 6358WAT      O19315   0.478   0.414   7.843
 6358WAT     H119316   0.517   0.325   7.821
 6358WAT     H219317   0.500   0.437   7.938
 6359WAT      O19318   1.776   7.942   6.956
 6359WAT     H119319   1.687   7.986   6.944
 6359WAT     H219320   1.808   7.957   7.050
 6360WAT      O19321   6.859   5.415   2.939
 6360WAT     H119322   6.839   5.383   3.032
 6360WAT     H219323   6.795   5.488   2.915
 6361WAT      O19324   4.873   8.682   6.439
 6361WAT     H119325   4.954   8.664   6.495
 6361WAT     H219326   4.791   8.654   6.488
 6362WAT      O19327   3.211   8.226   6.828
 6362WAT     H119328   3.293   8.277   6.853
 6362WAT     H219329   3.130   8.283   6.844
 6363WAT      O19330   3.541   5.730   7.059
 6363WAT     H119331   3.496   5.801   7.113
 6363WAT     H219332   3.518   5.640   7.096
 6364WAT      O19333   5.695   9.091   1.065
 6364WAT     H119334   5.735   9.057   1.150
 6364WAT     H219335   5.658   9.183   1.080
 6365WAT      O19336   4.811   2.207   7.159
 6365WAT     H119337   4.775   2.300   7.148
 6365WAT     H219338   4.901   2.211   7.202
 6366WAT      O19339   0.406   7.955   8.514
 6366WAT     H119340   0.468   7.884   8.546
 6366WAT     H219341   0.432   8.043   8.553
 6367WAT      O19342   6.228   8.623   9.663
 6367WAT     H119343   6.259   8.550   9.725
 6367WAT     H219344   6.213   8.707   9.715
 6368WAT      O19345   9.718   7.555   4.879
 6368WAT     H119346   9.621   7.562   4.903
 6368WAT     H219347   9.736   7.466   4.838
 6369WAT      O19348   3.075   2.921   9.030
 6369WAT     H119349   3.001   2.956   8.972
 6369WAT     H219350   3.079   2.975   9.115
 6370WAT      O19351   9.154   8.418   6.876
 6370WAT     H119352   9.104   8.425   6.790
 6370WAT     H219353   9.252   8.423   6.859
 6371WAT      O19354   4.618   6.403   7.483
 6371WAT     H119355   4.659   6.409   7.391
 6371WAT     H219356   4.691   6.402   7.551
 6372WAT      O19357   3.282   9.136   2.441
 6372WAT     H119358   3.234   9.199   2.502
 6372WAT     H219359   3.344   9.188   2.382
 6373WAT      O19360   4.982   1.770   2.575
 6373WAT     H119361   4.933   1.719   2.646
 6373WAT     H219362   4.962   1.731   2.485
 6374WAT      O19363   6.183   4.353   2.336
 6374WAT     H119364   6.093   4.329   2.301
 6374WAT     H219365   6.188   4.452   2.349
 6375WAT      O19366   7.041   8.206   0.001
 6375WAT     H119367   7.089   8.291   0.023
 6375WAT     H219368   6.963   8.195   0.063
 6376WAT      O19369   4.464   3.726   9.451
 6376WAT     H119370   4.436   3.630   9.451
 6376WAT     H219371   4.387   3.784   9.477
 6377WAT      O19372   8.607   3.781   0.699
 6377WAT     H119373   8.609   3.881   0.696
 6377WAT     H219374   8.512   3.750   0.701
 6378WAT      O19375   4.317   2.285   1.726
 6378WAT     H119376   4.411   2.319   1.731
 6378WAT     H219377   4.315   2.188   1.752
 6379WAT      O19378   0.004   3.064   9.697
 6379WAT     H119379   0.059   2.981   9.710
 6379WAT     H219380  -0.092   3.038   9.686
 6380WAT      O19381   4.733   6.380   4.903
 6380WAT     H119382   4.824   6.364   4.865
 6380WAT     H219383   4.689   6.293   4.923
 6381WAT      O19384   6.058   6.455   4.912
 6381WAT     H119385   6.101   6.438   5.001
 6381WAT     H219386   6.110   6.408   4.840
 6382WAT      O19387   4.080   6.847   3.118
 6382WAT     H119388   4.027   6.932   3.116
 6382WAT     H219389   4.029   6.777   3.167
 6383WAT      O19390   5.361   7.572   0.114
 6383WAT     H119391   5.304   7.654   0.106
 6383WAT     H219392   5.450   7.597   0.153
 6384WAT      O19393   6.983   4.788   7.474
 6384WAT     H119394   7.003   4.725   7.399
 6384WAT     H219395   7.026   4.755   7.558
 6385WAT      O19396   3.621   4.412   1.757
 6385WAT     H119397   3.719   4.389   1.762
 6385WAT     H219398   3.589   4.401   1.664
 6386WAT      O19399   6.956   3.077   5.436
 6386WAT     H119400   6.961   3.004   5.505
 6386WAT     H219401   6.881   3.057   5.372
 6387WAT      O19402   3.993   6.717   1.617
 6387WAT     H119403   3.978   6.620   1.631
 6387WAT     H219404   4.084   6.732   1.578
 6388WAT      O19405   1.466   3.397   6.508
 6388WAT     H119406   1.530   3.361   6.577
 6388WAT     H219407   1.507   3.475   6.463
 6389WAT      O19408   8.096   3.896   7.520
 6389WAT     H119409   8.057   3.986   7.538
 6389WAT     H219410   8.120   3.888   7.423
 6390WAT      O19411   7.651   0.216   5.491
 6390WAT     H119412   7.587   0.152   5.535
 6390WAT     H219413   7.606   0.258   5.412
 6391WAT      O19414   0.058   0.535   7.615
 6391WAT     H119415   0.075   0.504   7.522
 6391WAT     H219416   0.093   0.467   7.680
 6392WAT      O19417   5.103   7.476   2.757
 6392WAT     H119418   5.024   7.415   2.754
 6392WAT     H219419   5.142   7.475   2.849
 6393WAT      O19420   4.379   1.722   9.819
 6393WAT     H119421   4.399   1.660   9.894
 6393WAT     H219422   4.295   1.773   9.838
 6394WAT      O19423   3.424   6.247   4.046
 6394WAT     H119424   3.420   6.171   3.981
 6394WAT     H219425   3.334   6.289   4.055
 6395WAT      O19426   1.837   5.798   3.432
 6395WAT     H119427   1.860   5.785   3.529
 6395WAT     H219428   1.917   5.779   3.376
 6396WAT      O19429   2.396   3.656   3.583
 6396WAT     H119430   2.461   3.726   3.613
 6396WAT     H219431   2.436   3.604   3.507
 6397WAT      O19432   3.972   2.469   9.792
 6397WAT     H119433   4.038   2.524   9.844
 6397WAT     H219434   4.020   2.398   9.741
 6398WAT      O19435   8.670   6.999   5.082
 6398WAT     H119436   8.693   7.095   5.091
 6398WAT     H219437   8.723   6.946   5.149
 6399WAT      O19438   9.617   5.474   2.595
 6399WAT     H119439   9.701   5.438   2.555
 6399WAT     H219440   9.638   5.555   2.650
 6400WAT      O19441   5.606   4.018   4.551
 6400WAT     H119442   5.620   4.096   4.489
 6400WAT     H219443   5.542   4.044   4.623
 6401WAT      O19444   4.810   8.767   9.395
 6401WAT     H119445   4.895   8.752   9.345
 6401WAT     H219446   4.755   8.684   9.392
 6402WAT      O19447   7.412   4.661   4.915
 6402WAT     H119448   7.512   4.670   4.924
 6402WAT     H219449   7.384   4.692   4.825
 6403WAT      O19450   6.203   0.920   0.538
 6403WAT     H119451   6.227   0.968   0.454
 6403WAT     H219452   6.119   0.958   0.576
 6404WAT      O19453   5.502   6.781   1.529
 6404WAT     H119454   5.444   6.855   1.495
 6404WAT     H219455   5.597   6.798   1.501
 6405WAT      O19456   5.133   8.682   8.540
 6405WAT     H119457   5.045   8.696   8.585
 6405WAT     H219458   5.170   8.770   8.512
 6406WAT      O19459   6.987   3.528   3.375
 6406WAT     H119460   7.003   3.430   3.387
 6406WAT     H219461   7.075   3.576   3.376
 6407WAT      O19462   8.673   9.184   0.005
 6407WAT     H119463   8.671   9.094   0.048
 6407WAT     H219464   8.739   9.242   0.053
 6408WAT      O19465   8.918   1.062   2.628
 6408WAT     H119466   8.991   1.045   2.561
 6408WAT     H219467   8.897   1.159   2.630
 6409WAT      O19468   8.358   6.275   8.560
 6409WAT     H119469   8.438   6.306   8.610
 6409WAT     H219470   8.381   6.262   8.463
 6410WAT      O19471   6.623   7.927   9.414
 6410WAT     H119472   6.708   7.934   9.361
 6410WAT     H219473   6.619   7.838   9.459
 6411WAT      O19474   7.955   1.647   2.259
 6411WAT     H119475   8.019   1.616   2.188
 6411WAT     H219476   7.932   1.571   2.319
 6412WAT      O19477   3.059   6.983   2.842
 6412WAT     H119478   3.027   6.961   2.750
 6412WAT     H219479   2.982   6.982   2.905
 6413WAT      O19480   8.147   2.520   8.089
 6413WAT     H119481   8.193   2.445   8.043
 6413WAT     H219482   8.055   2.532   8.051
 6414WAT      O19483   5.228   0.949   6.256
 6414WAT     H119484   5.163   0.938   6.331
 6414WAT     H219485   5.213   1.036   6.211
 6415WAT      O19486   1.489   9.829   5.591
 6415WAT     H119487   1.476   9.848   5.688
 6415WAT     H219488   1.473   9.912   5.538
 6416WAT      O19489   9.102   4.385   8.064
 6416WAT     H119490   9.135   4.427   7.979
 6416WAT     H219491   9.180   4.359   8.121
 6417WAT      O19492   6.764   0.275   4.180
 6417WAT     H119493   6.764   0.202   4.248
 6417WAT     H219494   6.808   0.243   4.096
 6418WAT      O19495   7.240   5.909   3.007
 6418WAT     H119496   7.171   5.905   2.935
 6418WAT     H219497   7.221   5.986   3.068
 6419WAT      O19498   5.073   6.613   9.459
 6419WAT     H119499   5.054   6.706   9.427
 6419WAT     H219500   5.153   6.578   9.412
 6420WAT      O19501   5.988   9.033   2.460
 6420WAT     H119502   6.024   8.968   2.394
 6420WAT     H219503   5.889   9.024   2.467
 6421WAT      O19504   5.624   8.596   5.067
 6421WAT     H119505   5.705   8.569   5.016
 6421WAT     H219506   5.586   8.680   5.027
 6422WAT      O19507   6.989   8.711   1.561
 6422WAT     H119508   6.973   8.810   1.556
 6422WAT     H219509   6.919   8.669   1.619
 6423WAT      O19510   2.498   3.336   8.127
 6423WAT     H119511   2.509   3.425   8.170
 6423WAT     H219512   2.401   3.311   8.125
 6424WAT      O19513   5.991   2.539   6.328
 6424WAT     H119514   5.990   2.545   6.427
 6424WAT     H219515   6.007   2.444   6.301
 6425WAT      O19516   0.228   5.063   9.230
 6425WAT     H119517   0.276   5.116   9.300
 6425WAT     H219518   0.250   4.966   9.241
 6426WAT      O19519   1.189   0.968   2.940
 6426WAT     H119520   1.131   1.042   2.974
 6426WAT     H219521   1.204   0.901   3.013
 6427WAT      O19522   2.305   7.792   5.114
 6427WAT     H119523   2.399   7.805   5.145
 6427WAT     H219524   2.304   7.728   5.037
 6428WAT      O19525   5.752   2.354   5.424
 6428WAT     H119526   5.807   2.337   5.343
 6428WAT     H219527   5.707   2.443   5.415
 6429WAT      O19528   0.339   6.452   1.285
 6429WAT     H119529   0.323   6.380   1.352
 6429WAT     H219530   0.365   6.411   1.198
 6430WAT      O19531   3.808   0.367   0.241
 6430WAT     H119532   3.834   0.296   0.176
 6430WAT     H219533   3.763   0.326   0.321
 6431WAT      O19534   4.316   5.218   5.723
 6431WAT     H119535   4.382   5.143   5.724
 6431WAT     H219536   4.337   5.282   5.797
 6432WAT      O19537   4.628   6.468   5.952
 6432WAT     H119538   4.535   6.437   5.969
 6432WAT     H219539   4.644   6.554   6.001
 6433WAT      O19540   2.498   5.565   6.984
 6433WAT     H119541   2.580   5.618   6.963
 6433WAT     H219542   2.515   5.468   6.964
 6434WAT      O19543   2.329   5.851   6.471
 6434WAT     H119544   2.316   5.938   6.519
 6434WAT     H219545   2.338   5.778   6.538
 6435WAT      O19546   1.741   3.750   2.572
 6435WAT     H119547   1.822   3.726   2.625
 6435WAT     H219548   1.756   3.730   2.475
 6436WAT      O19549   3.013   3.092   6.980
 6436WAT     H119550   3.040   3.119   7.072
 6436WAT     H219551   3.086   3.037   6.938
 6437WAT      O19552   1.901   2.665   1.924
 6437WAT     H119553   1.832   2.710   1.980
 6437WAT     H219554   1.863   2.581   1.885
 6438WAT      O19555   7.529   2.973   3.049
 6438WAT     H119556   7.431   2.978   3.028
 6438WAT     H219557   7.568   2.893   3.004
 6439WAT      O19558   0.015   2.493   1.914
 6439WAT     H119559  -0.049   2.566   1.891
 6439WAT     H219560   0.053   2.509   2.005
 6440WAT      O19561   0.193   8.976   4.332
 6440WAT     H119562   0.226   9.010   4.244
 6440WAT     H219563   0.158   8.883   4.320
 6441WAT      O19564   7.878   6.124   2.369
 6441WAT     H119565   7.839   6.033   2.359
 6441WAT     H219566   7.824   6.190   2.317
 6442WAT      O19567   1.757   7.404   0.849
 6442WAT     H119568   1.854   7.383   0.861
 6442WAT     H219569   1.708   7.321   0.825
 6443WAT      O19570   9.826   1.831   6.861
 6443WAT     H119571   9.876   1.906   6.902
 6443WAT     H219572   9.789   1.859   6.773
 6444WAT      O19573   4.720   1.354   3.250
 6444WAT     H119574   4.754   1.442   3.281
 6444WAT     H219575   4.791   1.285   3.259
 6445WAT      O19576   4.294   1.970   5.792
 6445WAT     H119577   4.374   2.028   5.802
 6445WAT     H219578   4.216   2.013   5.837
 6446WAT      O19579   0.200   3.127   3.866
 6446WAT     H119580   0.232   3.168   3.952
 6446WAT     H219581   0.166   3.035   3.884
 6447WAT      O19582   1.661   3.473   3.344
 6447WAT     H119583   1.586   3.485   3.408
 6447WAT     H219584   1.705   3.561   3.328
 6448WAT      O19585   7.842   6.391   3.301
 6448WAT     H119586   7.871   6.407   3.395
 6448WAT     H219587   7.915   6.418   3.238
 6449WAT      O19588   1.772   8.609   3.104
 6449WAT     H119589   1.760   8.590   3.007
 6449WAT     H219590   1.837   8.543   3.143
 6450WAT      O19591   3.327   7.599   2.213
 6450WAT     H119592   3.357   7.679   2.162
 6450WAT     H219593   3.262   7.626   2.283
 6451WAT      O19594   6.973   1.546   3.763
 6451WAT     H119595   6.972   1.644   3.742
 6451WAT     H219596   6.897   1.502   3.716
 6452WAT      O19597   8.281   2.914   6.999
 6452WAT     H119598   8.193   2.959   7.012
 6452WAT     H219599   8.355   2.976   7.025
 6453WAT      O19600   9.854   4.734   3.400
 6453WAT     H119601   9.788   4.796   3.356
 6453WAT     H219602   9.872   4.766   3.493
 6454WAT      O19603   4.848   7.715   0.453
 6454WAT     H119604   4.863   7.784   0.524
 6454WAT     H219605   4.793   7.640   0.490
 6455WAT      O19606   9.503   3.740   0.530
 6455WAT     H119607   9.589   3.775   0.493
 6455WAT     H219608   9.434   3.736   0.458
 6456WAT      O19609   7.723   2.887   7.946
 6456WAT     H119610   7.767   2.951   7.883
 6456WAT     H219611   7.682   2.812   7.894
 6457WAT      O19612   3.507   5.579   4.950
 6457WAT     H119613   3.433   5.520   4.983
 6457WAT     H219614   3.476   5.675   4.952
 6458WAT      O19615   0.731   8.096   5.904
 6458WAT     H119616   0.711   8.016   5.848
 6458WAT     H219617   0.733   8.178   5.847
 6459WAT      O19618   0.277   3.021   7.544
 6459WAT     H119619   0.238   3.073   7.620
 6459WAT     H219620   0.367   3.057   7.521
 6460WAT      O19621   8.498   6.812   5.574
 6460WAT     H119622   8.518   6.733   5.516
 6460WAT     H219623   8.574   6.876   5.570
 6461WAT      O19624   0.014   1.652   4.526
 6461WAT     H119625   0.020   1.564   4.478
 6461WAT     H219626   0.103   1.675   4.565
 6462WAT      O19627   4.129   0.146   4.868
 6462WAT     H119628   4.038   0.126   4.905
 6462WAT     H219629   4.172   0.217   4.924
 6463WAT      O19630   4.525   0.696   8.546
 6463WAT     H119631   4.489   0.702   8.453
 6463WAT     H219632   4.461   0.740   8.609
 6464WAT      O19633   2.661   0.097   6.193
 6464WAT     H119634   2.739   0.043   6.225
 6464WAT     H219635   2.609   0.129   6.271
 6465WAT      O19636   0.775   1.662   2.330
 6465WAT     H119637   0.707   1.730   2.357
 6465WAT     H219638   0.866   1.695   2.353
 6466WAT      O19639   3.633   7.079   5.124
 6466WAT     H119640   3.721   7.033   5.119
 6466WAT     H219641   3.633   7.159   5.063
 6467WAT      O19642   3.118   0.422   6.982
 6467WAT     H119643   3.189   0.374   6.931
 6467WAT     H219644   3.126   0.520   6.965
 6468WAT      O19645   7.477   5.986   5.087
 6468WAT     H119646   7.511   5.893   5.078
 6468WAT     H219647   7.553   6.050   5.081
 6469WAT      O19648   6.840   5.175   2.407
 6469WAT     H119649   6.860   5.138   2.497
 6469WAT     H219650   6.916   5.235   2.378
 6470WAT      O19651   4.553   8.787   0.248
 6470WAT     H119652   4.512   8.876   0.269
 6470WAT     H219653   4.481   8.723   0.219
 6471WAT      O19654   1.247   7.580   4.745
 6471WAT     H119655   1.287   7.645   4.681
 6471WAT     H219656   1.309   7.564   4.821
 6472WAT      O19657   4.627   0.087   9.766
 6472WAT     H119658   4.619   0.043   9.855
 6472WAT     H219659   4.540   0.082   9.717
 6473WAT      O19660   9.379   9.530   3.701
 6473WAT     H119661   9.437   9.526   3.783
 6473WAT     H219662   9.433   9.560   3.623
 6474WAT      O19663   8.728   7.262   7.479
 6474WAT     H119664   8.774   7.175   7.501
 6474WAT     H219665   8.791   7.321   7.428
 6475WAT      O19666   0.220   1.997   0.279
 6475WAT     H119667   0.162   2.017   0.358
 6475WAT     H219668   0.262   2.082   0.246
 6476WAT      O19669   2.164   5.087   0.520
 6476WAT     H119670   2.152   5.043   0.431
 6476WAT     H219671   2.185   5.184   0.506
 6477WAT      O19672   8.643   4.818   1.299
 6477WAT     H119673   8.732   4.793   1.338
 6477WAT     H219674   8.631   4.917   1.305
 6478WAT      O19675   6.460   8.004   6.764
 6478WAT     H119676   6.366   8.035   6.782
 6478WAT     H219677   6.503   8.067   6.699
 6479WAT      O19678   0.612   6.477   3.226
 6479WAT     H119679   0.615   6.402   3.292
 6479WAT     H219680   0.601   6.563   3.275
 6480WAT      O19681   8.938   1.589   7.056
 6480WAT     H119682   8.989   1.503   7.059
 6480WAT     H219683   8.988   1.659   7.107
 6481WAT      O19684   1.739   7.567   9.015
 6481WAT     H119685   1.738   7.467   9.004
 6481WAT     H219686   1.751   7.590   9.112
 6482WAT      O19687   6.749   3.194   2.559
 6482WAT     H119688   6.803   3.116   2.529
 6482WAT     H219689   6.676   3.163   2.620
 6483WAT      O19690   7.953   7.705   1.025
 6483WAT     H119691   8.047   7.729   1.047
 6483WAT     H219692   7.903   7.786   0.996
 6484WAT      O19693   1.514   6.329   0.404
 6484WAT     H119694   1.414   6.322   0.405
 6484WAT     H219695   1.540   6.422   0.378
 6485WAT      O19696   6.230   6.518   8.471
 6485WAT     H119697   6.167   6.447   8.439
 6485WAT     H219698   6.180   6.602   8.488
 6486WAT      O19699   2.733   3.291   2.970
 6486WAT     H119700   2.790   3.275   2.889
 6486WAT     H219701   2.727   3.207   3.024
 6487WAT      O19702   2.097   3.256   1.227
 6487WAT     H119703   2.113   3.231   1.132
 6487WAT     H219704   2.168   3.319   1.258
 6488WAT      O19705   1.676   3.406   4.398
 6488WAT     H119706   1.761   3.435   4.354
 6488WAT     H219707   1.601   3.462   4.365
 6489WAT      O19708   7.133   0.768   1.632
 6489WAT     H119709   7.162   0.834   1.701
 6489WAT     H219710   7.201   0.763   1.559
 6490WAT      O19711   4.876   3.544   1.364
 6490WAT     H119712   4.878   3.458   1.313
 6490WAT     H219713   4.968   3.580   1.373
 6491WAT      O19714   4.125   1.617   0.526
 6491WAT     H119715   4.192   1.691   0.514
 6491WAT     H219716   4.032   1.655   0.521
 6492WAT      O19717   5.027   8.885   3.626
 6492WAT     H119718   4.998   8.878   3.722
 6492WAT     H219719   5.117   8.844   3.615
 6493WAT      O19720   7.248   7.981   8.118
 6493WAT     H119721   7.254   7.983   8.019
 6493WAT     H219722   7.333   7.944   8.156
 6494WAT      O19723   5.338   3.956   6.922
 6494WAT     H119724   5.385   4.004   6.847
 6494WAT     H219725   5.249   3.924   6.890
 6495WAT      O19726   8.942   7.458   4.396
 6495WAT     H119727   8.912   7.410   4.479
 6495WAT     H219728   9.039   7.439   4.380
 6496WAT      O19729   0.270   1.894   9.321
 6496WAT     H119730   0.322   1.929   9.243
 6496WAT     H219731   0.329   1.894   9.402
 6497WAT      O19732   3.267   2.803   0.698
 6497WAT     H119733   3.194   2.757   0.648
 6497WAT     H219734   3.237   2.820   0.792
 6498WAT      O19735   3.814   3.907   3.321
 6498WAT     H119736   3.841   3.825   3.271
 6498WAT     H219737   3.891   3.940   3.375
 6499WAT      O19738   3.203   9.270   5.414
 6499WAT     H119739   3.252   9.226   5.489
 6499WAT     H219740   3.109   9.234   5.410
 6500WAT      O19741   2.586   2.031   9.687
 6500WAT     H119742   2.543   2.063   9.602
 6500WAT     H219743   2.611   1.935   9.677
 6501WAT      O19744   0.337   0.527   6.165
 6501WAT     H119745   0.242   0.555   6.158
 6501WAT     H219746   0.378   0.567   6.247
 6502WAT      O19747   2.970   2.514   4.334
 6502WAT     H119748   2.921   2.457   4.400
 6502WAT     H219749   3.041   2.460   4.289
 6503WAT      O19750   3.018   4.388   9.375
 6503WAT     H119751   2.944   4.423   9.317
 6503WAT     H219752   3.090   4.456   9.382
 6504WAT      O19753   4.498   2.609   2.923
 6504WAT     H119754   4.498   2.569   3.015
 6504WAT     H219755   4.404   2.620   2.891
 6505WAT      O19756   5.978   5.219   7.533
 6505WAT     H119757   5.885   5.185   7.544
 6505WAT     H219758   6.034   5.190   7.611
 6506WAT      O19759   6.914   8.047   8.465
 6506WAT     H119760   6.860   8.042   8.548
 6506WAT     H219761   6.990   8.111   8.478
 6507WAT      O19762   9.613   0.002   5.559
 6507WAT     H119763   9.614   0.092   5.516
 6507WAT     H219764   9.524  -0.041   5.544
 6508WAT      O19765   4.637   0.329   7.612
 6508WAT     H119766   4.707   0.397   7.592
 6508WAT     H219767   4.648   0.250   7.550
 6509WAT      O19768   8.084   6.702   0.985
 6509WAT     H119769   8.119   6.610   1.003
 6509WAT     H219770   8.160   6.766   0.977
 6510WAT      O19771   8.893   0.446   1.621
 6510WAT     H119772   8.963   0.415   1.557
 6510WAT     H219773   8.839   0.519   1.579
 6511WAT      O19774   2.158   4.488   8.509
 6511WAT     H119775   2.256   4.505   8.516
 6511WAT     H219776   2.127   4.437   8.589
 6512WAT      O19777   5.887   8.713   5.141
 6512WAT     H119778   5.826   8.722   5.220
 6512WAT     H219779   5.974   8.757   5.161
 6513WAT      O19780   2.858   3.198   4.966
 6513WAT     H119781   2.813   3.281   5.000
 6513WAT     H219782   2.906   3.219   4.881
 6514WAT      O19783   5.832   7.868   6.699
 6514WAT     H119784   5.926   7.893   6.725
 6514WAT     H219785   5.795   7.803   6.765
 6515WAT      O19786   1.525   7.148   8.155
 6515WAT     H119787   1.492   7.233   8.195
 6515WAT     H219788   1.541   7.080   8.227
 6516WAT      O19789   2.203   6.638   3.225
 6516WAT     H119790   2.183   6.546   3.192
 6516WAT     H219791   2.118   6.681   3.259
 6517WAT      O19792   9.419   7.910   7.844
 6517WAT     H119793   9.394   7.979   7.776
 6517WAT     H219794   9.380   7.822   7.818
 6518WAT      O19795   6.555   2.079   1.325
 6518WAT     H119796   6.519   2.155   1.380
 6518WAT     H219797   6.481   2.017   1.301
 6519WAT      O19798   8.944   4.043   5.394
 6519WAT     H119799   8.988   4.097   5.323
 6519WAT     H219800   8.921   3.953   5.358
 6520WAT      O19801   0.304   8.748   7.246
 6520WAT     H119802   0.340   8.725   7.336
 6520WAT     H219803   0.204   8.742   7.248
 6521WAT      O19804   5.135   6.976   0.634
 6521WAT     H119805   5.201   7.051   0.633
 6521WAT     H219806   5.120   6.944   0.541
 6522WAT      O19807   1.471   6.096   7.218
 6522WAT     H119808   1.471   6.042   7.302
 6522WAT     H219809   1.435   6.040   7.143
 6523WAT      O19810   8.402   6.496   4.651
 6523WAT     H119811   8.452   6.571   4.694
 6523WAT     H219812   8.391   6.421   4.717
 6524WAT      O19813   3.413   3.007   0.567
 6524WAT     H119814   3.510   3.003   0.592
 6524WAT     H219815   3.360   2.955   0.632
 6525WAT      O19816   3.381   7.413   2.855
 6525WAT     H119817   3.321   7.338   2.829
 6525WAT     H219818   3.329   7.499   2.853
 6526WAT      O19819   5.351   3.587   8.980
 6526WAT     H119820   5.442   3.629   8.983
 6526WAT     H219821   5.319   3.570   9.074
 6527WAT      O19822   6.733   8.636   8.970
 6527WAT     H119823   6.680   8.684   8.900
 6527WAT     H219824   6.677   8.563   9.010
 6528WAT      O19825   9.183   5.125   0.946
 6528WAT     H119826   9.092   5.157   0.974
 6528WAT     H219827   9.205   5.041   0.995
 6529WAT      O19828   8.671   4.494   1.929
 6529WAT     H119829   8.745   4.448   1.977
 6529WAT     H219830   8.642   4.438   1.851
 6530WAT      O19831   8.445   4.618   5.293
 6530WAT     H119832   8.392   4.694   5.255
 6530WAT     H219833   8.486   4.565   5.218
 6531WAT      O19834   7.229   6.920   6.246
 6531WAT     H119835   7.215   6.869   6.331
 6531WAT     H219836   7.170   7.001   6.246
 6532WAT      O19837   0.430   1.446   1.279
 6532WAT     H119838   0.483   1.400   1.208
 6532WAT     H219839   0.434   1.545   1.264
 6533WAT      O19840   9.533   6.187   5.364
 6533WAT     H119841   9.435   6.185   5.380
 6533WAT     H219842   9.555   6.132   5.284
 6534WAT      O19843   6.594   7.655   8.667
 6534WAT     H119844   6.649   7.729   8.627
 6534WAT     H219845   6.522   7.695   8.725
 6535WAT      O19846   1.870   2.934   1.069
 6535WAT     H119847   1.925   3.000   1.120
 6535WAT     H219848   1.826   2.981   0.992
 6536WAT      O19849   2.071   2.008   7.185
 6536WAT     H119850   1.975   2.004   7.213
 6536WAT     H219851   2.108   1.915   7.182
 6537WAT      O19852   7.752   5.712   5.133
 6537WAT     H119853   7.668   5.739   5.086
 6537WAT     H219854   7.738   5.621   5.173
 6538WAT      O19855   1.514   6.723   7.627
 6538WAT     H119856   1.571   6.647   7.662
 6538WAT     H219857   1.420   6.710   7.656
 6539WAT      O19858   8.709   7.834   9.676
 6539WAT     H119859   8.801   7.836   9.637
 6539WAT     H219860   8.698   7.753   9.733
 6540WAT      O19861   1.467   9.463   2.999
 6540WAT     H119862   1.558   9.423   3.009
 6540WAT     H219863   1.475   9.562   2.992
 6541WAT      O19864   6.044   6.428   6.103
 6541WAT     H119865   5.951   6.390   6.110
 6541WAT     H219866   6.043   6.523   6.133
 6542WAT      O19867   6.763   9.616   3.054
 6542WAT     H119868   6.706   9.650   3.129
 6542WAT     H219869   6.854   9.659   3.060
 6543WAT      O19870   2.485   1.273   0.330
 6543WAT     H119871   2.549   1.239   0.261
 6543WAT     H219872   2.533   1.292   0.415
 6544WAT      O19873   4.970   6.353   7.891
 6544WAT     H119874   5.048   6.364   7.830
 6544WAT     H219875   4.885   6.374   7.842
 6545WAT      O19876   7.052   4.701   4.828
 6545WAT     H119877   6.991   4.622   4.827
 6545WAT     H219878   7.047   4.746   4.917
 6546WAT      O19879   9.124   8.731   0.576
 6546WAT     H119880   9.115   8.708   0.480
 6546WAT     H219881   9.139   8.829   0.585
 6547WAT      O19882   5.081   1.534   8.846
 6547WAT     H119883   5.009   1.469   8.822
 6547WAT     H219884   5.039   1.621   8.871
 6548WAT      O19885   2.827   5.615   6.871
 6548WAT     H119886   2.901   5.627   6.805
 6548WAT     H219887   2.845   5.534   6.926
 6549WAT      O19888   3.746   5.623   8.665
 6549WAT     H119889   3.651   5.610   8.636
 6549WAT     H219890   3.806   5.570   8.605
 6550WAT      O19891   1.760   4.908   1.706
 6550WAT     H119892   1.669   4.867   1.714
 6550WAT     H219893   1.798   4.886   1.616
 6551WAT      O19894   2.644   4.242   9.383
 6551WAT     H119895   2.727   4.204   9.423
 6551WAT     H219896   2.582   4.168   9.358
 6552WAT      O19897   0.454   0.960   0.618
 6552WAT     H119898   0.524   0.981   0.550
 6552WAT     H219899   0.445   0.860   0.626
 6553WAT      O19900   4.577   3.186   7.028
 6553WAT     H119901   4.537   3.144   6.947
 6553WAT     H219902   4.668   3.222   7.005
 6554WAT      O19903   0.393   9.760   9.196
 6554WAT     H119904   0.311   9.759   9.139
 6554WAT     H219905   0.474   9.765   9.137
 6555WAT      O19906   2.344   4.531   2.137
 6555WAT     H119907   2.312   4.606   2.194
 6555WAT     H219908   2.401   4.470   2.192
 6556WAT      O19909   8.550   0.538   3.052
 6556WAT     H119910   8.600   0.452   3.061
 6556WAT     H219911   8.478   0.528   2.984
 6557WAT      O19912   9.597   5.510   8.131
 6557WAT     H119913   9.612   5.470   8.221
 6557WAT     H219914   9.540   5.448   8.076
 6558WAT      O19915   2.594   9.515   0.982
 6558WAT     H119916   2.562   9.562   1.064
 6558WAT     H219917   2.547   9.428   0.973
 6559WAT      O19918   3.212   7.132   4.395
 6559WAT     H119919   3.206   7.106   4.492
 6559WAT     H219920   3.307   7.147   4.371
 6560WAT      O19921   2.944   5.448   9.897
 6560WAT     H119922   2.848   5.420   9.893
 6560WAT     H219923   2.988   5.428   9.809
 6561WAT      O19924   2.287   7.342   7.978
 6561WAT     H119925   2.243   7.432   7.977
 6561WAT     H219926   2.353   7.338   8.053
 6562WAT      O19927   4.020   1.058   4.486
 6562WAT     H119928   4.093   1.067   4.418
 6562WAT     H219929   3.951   1.129   4.470
 6563WAT      O19930   0.634   9.369   6.370
 6563WAT     H119931   0.595   9.456   6.401
 6563WAT     H219932   0.727   9.360   6.405
 6564WAT      O19933   5.381   1.890   2.299
 6564WAT     H119934   5.355   1.836   2.378
 6564WAT     H219935   5.376   1.833   2.217
 6565WAT      O19936   1.612   3.017   2.201
 6565WAT     H119937   1.621   2.992   2.297
 6565WAT     H219938   1.696   2.991   2.152
 6566WAT      O19939   3.960   4.011   6.505
 6566WAT     H119940   3.984   3.957   6.424
 6566WAT     H219941   4.016   3.981   6.582
 6567WAT      O19942   0.826   3.662   5.121
 6567WAT     H119943   0.876   3.617   5.196
 6567WAT     H219944   0.728   3.656   5.138
 6568WAT      O19945   5.568   9.527   6.182
 6568WAT     H119946   5.614   9.616   6.185
 6568WAT     H219947   5.580   9.486   6.092
 6569WAT      O19948   8.986   3.929   7.628
 6569WAT     H119949   8.927   3.933   7.709
 6569WAT     H219950   9.027   4.019   7.612
 6570WAT      O19951   8.502   5.125   3.661
 6570WAT     H119952   8.467   5.134   3.567
 6570WAT     H219953   8.450   5.054   3.709
 6571WAT      O19954   1.999   6.601   2.390
 6571WAT     H119955   2.073   6.534   2.385
 6571WAT     H219956   2.036   6.693   2.377
 6572WAT      O19957   0.292   7.038   0.843
 6572WAT     H119958   0.270   6.968   0.775
 6572WAT     H219959   0.276   7.002   0.935
 6573WAT      O19960   5.198   4.779   5.422
 6573WAT     H119961   5.265   4.730   5.366
 6573WAT     H219962   5.175   4.866   5.378
 6574WAT      O19963   6.348   2.954   4.472
 6574WAT     H119964   6.312   2.900   4.396
 6574WAT     H219965   6.337   3.051   4.452
 6575WAT      O19966   7.709   2.482   6.322
 6575WAT     H119967   7.776   2.543   6.279
 6575WAT     H219968   7.685   2.410   6.257
 6576WAT      O19969   5.486   0.969   6.421
 6576WAT     H119970   5.491   0.929   6.513
 6576WAT     H219971   5.398   0.946   6.379
 6577WAT      O19972   6.800   6.037   9.471
 6577WAT     H119973   6.896   6.020   9.494
 6577WAT     H219974   6.743   6.024   9.552
 6578WAT      O19975   4.709   7.664   9.168
 6578WAT     H119976   4.758   7.685   9.253
 6578WAT     H219977   4.704   7.746   9.112
 6579WAT      O19978   1.876   0.484   7.764
 6579WAT     H119979   1.872   0.541   7.846
 6579WAT     H219980   1.805   0.513   7.700
 6580WAT      O19981   6.106   3.536   0.762
 6580WAT     H119982   6.083   3.619   0.711
 6580WAT     H219983   6.137   3.465   0.698
 6581WAT      O19984   9.208   2.640   7.361
 6581WAT     H119985   9.161   2.619   7.276
 6581WAT     H219986   9.212   2.739   7.374
 6582WAT      O19987   0.411   9.218   7.770
 6582WAT     H119988   0.492   9.201   7.827
 6582WAT     H219989   0.414   9.311   7.736
 6583WAT      O19990   9.151   7.194   8.618
 6583WAT     H119991   9.181   7.254   8.692
 6583WAT     H219992   9.117   7.108   8.657
 6584WAT      O19993   8.731   8.340   4.322
 6584WAT     H119994   8.773   8.425   4.290
 6584WAT     H219995   8.706   8.283   4.243
 6585WAT      O19996   8.306   8.580   8.801
 6585WAT     H119997   8.374   8.633   8.851
 6585WAT     H219998   8.262   8.637   8.732
 6586WAT      O19999   4.528   2.581   5.154
 6586WAT     H120000   4.585   2.499   5.151
 6586WAT     H220001   4.576   2.653   5.204
 6587WAT      O20002   8.303   5.761   8.131
 6587WAT     H120003   8.385   5.817   8.133
 6587WAT     H220004   8.240   5.792   8.202
 6588WAT      O20005   9.096   0.913   4.444
 6588WAT     H120006   9.050   0.873   4.365
 6588WAT     H220007   9.061   0.872   4.528
 6589WAT      O20008   5.601   2.406   3.720
 6589WAT     H120009   5.653   2.335   3.671
 6589WAT     H220010   5.573   2.477   3.656
 6590WAT      O20011   6.476   7.385   9.743
 6590WAT     H120012   6.435   7.472   9.715
 6590WAT     H220013   6.537   7.401   9.821
 6591WAT      O20014   8.352   2.447   6.007
 6591WAT     H120015   8.345   2.373   6.073
 6591WAT     H220016   8.325   2.414   5.917
 6592WAT      O20017   8.467   9.179   2.108
 6592WAT     H120018   8.491   9.160   2.203
 6592WAT     H220019   8.538   9.236   2.067
 6593WAT      O20020   1.030   1.405   7.880
 6593WAT     H120021   0.931   1.406   7.872
 6593WAT     H220022   1.069   1.340   7.814
 6594WAT      O20023   6.745   8.159   0.612
 6594WAT     H120024   6.646   8.147   0.621
 6594WAT     H220025   6.787   8.073   0.586
 6595WAT      O20026   4.532   2.688   2.289
 6595WAT     H120027   4.434   2.696   2.303
 6595WAT     H220028   4.579   2.685   2.378
 6596WAT      O20029   0.758   6.994   3.901
 6596WAT     H120030   0.845   6.964   3.861
 6596WAT     H220031   0.765   6.992   4.001
 6597WAT      O20032   3.154   0.272   7.408
 6597WAT     H120033   3.165   0.235   7.315
 6597WAT     H220034   3.238   0.319   7.435
 6598WAT      O20035   7.781   6.440   0.955
 6598WAT     H120036   7.772   6.537   0.977
 6598WAT     H220037   7.706   6.413   0.894
 6599WAT      O20038   2.728   9.018   9.683
 6599WAT     H120039   2.680   8.961   9.616
 6599WAT     H220040   2.733   8.969   9.770
 6600WAT      O20041   8.914   8.651   9.204
 6600WAT     H120042   8.998   8.677   9.156
 6600WAT     H220043   8.905   8.551   9.203
 6601WAT      O20044   6.578   6.468   3.696
 6601WAT     H120045   6.657   6.449   3.755
 6601WAT     H220046   6.499   6.489   3.753
 6602WAT      O20047   3.344   4.848   5.992
 6602WAT     H120048   3.367   4.883   6.083
 6602WAT     H220049   3.410   4.779   5.964
 6603WAT      O20050   7.639   6.373   7.837
 6603WAT     H120051   7.646   6.311   7.915
 6603WAT     H220052   7.623   6.320   7.754
 6604WAT      O20053   2.149   0.899   5.832
 6604WAT     H120054   2.150   0.913   5.931
 6604WAT     H220055   2.176   0.805   5.811
 6605WAT      O20056   7.140   1.609   3.285
 6605WAT     H120057   7.102   1.528   3.329
 6605WAT     H220058   7.097   1.691   3.324
 6606WAT      O20059   1.055   5.485   6.129
 6606WAT     H120060   1.091   5.545   6.200
 6606WAT     H220061   0.956   5.484   6.133
 6607WAT      O20062   7.331   5.171   7.616
 6607WAT     H120063   7.382   5.093   7.651
 6607WAT     H220064   7.252   5.138   7.563
 6608WAT      O20065   1.102   5.066   3.386
 6608WAT     H120066   1.178   5.101   3.440
 6608WAT     H220067   1.016   5.103   3.420
 6609WAT      O20068   5.616   2.311   2.491
 6609WAT     H120069   5.602   2.269   2.581
 6609WAT     H220070   5.674   2.252   2.435
 6610WAT      O20071   1.120   2.759   4.987
 6610WAT     H120072   1.152   2.854   4.977
 6610WAT     H220073   1.022   2.754   4.968
 6611WAT      O20074   8.794   2.920   0.713
 6611WAT     H120075   8.838   2.951   0.797
 6611WAT     H220076   8.851   2.851   0.669
 6612WAT      O20077   7.693   9.323   2.354
 6612WAT     H120078   7.746   9.239   2.361
 6612WAT     H220079   7.616   9.309   2.292
 6613WAT      O20080   7.535   0.902   1.682
 6613WAT     H120081   7.544   0.863   1.774
 6613WAT     H220082   7.611   0.871   1.625
 6614WAT      O20083   0.941   4.492   8.322
 6614WAT     H120084   0.918   4.554   8.397
 6614WAT     H220085   1.040   4.495   8.306
 6615WAT      O20086   6.004   3.759   0.656
 6615WAT     H120087   5.967   3.795   0.741
 6615WAT     H220088   5.931   3.753   0.588
 6616WAT      O20089   6.929   3.606   3.833
 6616WAT     H120090   6.999   3.536   3.826
 6616WAT     H220091   6.889   3.624   3.743
 6617WAT      O20092   6.148   1.939   7.771
 6617WAT     H120093   6.206   1.927   7.852
 6617WAT     H220094   6.200   1.988   7.701
 6618WAT      O20095   4.235   8.805   4.884
 6618WAT     H120096   4.314   8.746   4.898
 6618WAT     H220097   4.230   8.872   4.958
 6619WAT      O20098   4.477   6.490   8.223
 6619WAT     H120099   4.380   6.476   8.204
 6619WAT     H220100   4.530   6.477   8.139
 6620WAT      O20101   7.461   3.881   4.716
 6620WAT     H120102   7.374   3.851   4.756
 6620WAT     H220103   7.479   3.975   4.742
 6621WAT      O20104   6.081   8.351   5.218
 6621WAT     H120105   6.088   8.253   5.202
 6621WAT     H220106   6.039   8.368   5.307
 6622WAT      O20107   9.176   2.931   2.442
 6622WAT     H120108   9.127   2.997   2.498
 6622WAT     H220109   9.250   2.890   2.495
 6623WAT      O20110   6.955   3.855   6.778
 6623WAT     H120111   6.873   3.800   6.762
 6623WAT     H220112   6.949   3.939   6.723
 6624WAT      O20113   7.672   0.130   0.692
 6624WAT     H120114   7.574   0.128   0.713
 6624WAT     H220115   7.714   0.208   0.738
 6625WAT      O20116   6.829   9.438   3.987
 6625WAT     H120117   6.832   9.430   3.887
 6625WAT     H220118   6.821   9.347   4.027
 6626WAT      O20119   7.984   9.221   6.872
 6626WAT     H120120   8.002   9.248   6.967
 6626WAT     H220121   8.069   9.226   6.820
 6627WAT      O20122   3.554   6.915   9.732
 6627WAT     H120123   3.616   6.957   9.798
 6627WAT     H220124   3.597   6.833   9.694
 6628WAT      O20125   3.217   8.303   4.491
 6628WAT     H120126   3.204   8.242   4.570
 6628WAT     H220127   3.306   8.348   4.498
 6629WAT      O20128   6.050   8.374   5.511
 6629WAT     H120129   6.092   8.464   5.525
 6629WAT     H220130   5.951   8.381   5.526
 6630WAT      O20131   2.226   6.633   4.259
 6630WAT     H120132   2.156   6.586   4.312
 6630WAT     H220133   2.215   6.610   4.162
 6631WAT      O20134   4.853   1.260   4.373
 6631WAT     H120135   4.867   1.356   4.349
 6631WAT     H220136   4.765   1.250   4.419
 6632WAT      O20137   9.078   3.993   6.289
 6632WAT     H120138   8.992   4.043   6.282
 6632WAT     H220139   9.132   4.009   6.206
 6633WAT      O20140   9.159   4.720   1.351
 6633WAT     H120141   9.210   4.781   1.411
 6633WAT     H220142   9.189   4.626   1.365
 6634WAT      O20143   5.443   3.636   2.864
 6634WAT     H120144   5.490   3.648   2.951
 6634WAT     H220145   5.473   3.551   2.821
 6635WAT      O20146   9.212   9.143   6.834
 6635WAT     H120147   9.281   9.154   6.763
 6635WAT     H220148   9.160   9.058   6.816
 6636WAT      O20149   8.768   2.571   3.573
 6636WAT     H120150   8.709   2.507   3.524
 6636WAT     H220151   8.719   2.610   3.651
 6637WAT      O20152   2.730   8.032   4.002
 6637WAT     H120153   2.662   8.049   3.931
 6637WAT     H220154   2.773   7.944   3.987
 6638WAT      O20155   7.767   1.712   3.958
 6638WAT     H120156   7.728   1.620   3.946
 6638WAT     H220157   7.759   1.763   3.873
 6639WAT      O20158   4.402   4.485   8.449
 6639WAT     H120159   4.349   4.565   8.476
 6639WAT     H220160   4.437   4.439   8.531
 6640WAT      O20161   8.308   6.925   2.629
 6640WAT     H120162   8.291   7.017   2.592
 6640WAT     H220163   8.220   6.879   2.645
 6641WAT      O20164   4.073   7.183   5.792
 6641WAT     H120165   4.065   7.207   5.695
 6641WAT     H220166   4.058   7.264   5.848
 6642WAT      O20167   8.480   4.992   2.574
 6642WAT     H120168   8.417   4.921   2.544
 6642WAT     H220169   8.571   4.952   2.587
 6643WAT      O20170   2.706   3.217   7.243
 6643WAT     H120171   2.739   3.143   7.185
 6643WAT     H220172   2.751   3.213   7.332
 6644WAT      O20173   9.302   7.498   6.228
 6644WAT     H120174   9.363   7.499   6.149
 6644WAT     H220175   9.311   7.583   6.279
 6645WAT      O20176   0.326   0.880   5.379
 6645WAT     H120177   0.268   0.950   5.421
 6645WAT     H220178   0.422   0.901   5.397
 6646WAT      O20179   9.018   0.648   2.318
 6646WAT     H120180   8.971   0.582   2.376
 6646WAT     H220181   9.067   0.714   2.375
 6647WAT      O20182   6.568   4.189   6.929
 6647WAT     H120183   6.548   4.200   6.832
 6647WAT     H220184   6.665   4.207   6.945
 6648WAT      O20185   5.904   1.256   8.053
 6648WAT     H120186   5.947   1.324   7.993
 6648WAT     H220187   5.958   1.247   8.137
 6649WAT      O20188   0.134   6.462   3.517
 6649WAT     H120189   0.081   6.419   3.589
 6649WAT     H220190   0.182   6.542   3.553
 6650WAT      O20191   6.166   7.546   8.255
 6650WAT     H120192   6.208   7.536   8.164
 6650WAT     H220193   6.234   7.585   8.318
 6651WAT      O20194   8.905   5.709   2.237
 6651WAT     H120195   8.937   5.648   2.165
 6651WAT     H220196   8.962   5.697   2.319
 6652WAT      O20197   8.179   5.961   4.718
 6652WAT     H120198   8.119   5.945   4.797
 6652WAT     H220199   8.234   5.880   4.700
 6653WAT      O20200   7.006   0.847   0.199
 6653WAT     H120201   7.087   0.792   0.177
 6653WAT     H220202   6.965   0.812   0.283
 6654WAT      O20203   3.845   7.416   1.473
 6654WAT     H120204   3.765   7.475   1.480
 6654WAT     H220205   3.928   7.471   1.466
 6655WAT      O20206   9.278   1.559   7.250
 6655WAT     H120207   9.194   1.574   7.302
 6655WAT     H220208   9.308   1.644   7.208
 6656WAT      O20209   3.192   2.373   5.790
 6656WAT     H120210   3.268   2.403   5.848
 6656WAT     H220211   3.229   2.341   5.702
 6657WAT      O20212   8.413   1.535   6.252
 6657WAT     H120213   8.487   1.467   6.256
 6657WAT     H220214   8.343   1.504   6.188
 6658WAT      O20215   0.051   2.934   7.387
 6658WAT     H120216   0.132   2.954   7.441
 6658WAT     H220217   0.075   2.933   7.290
 6659WAT      O20218   9.411   4.049   1.806
 6659WAT     H120219   9.321   4.081   1.777
 6659WAT     H220220   9.478   4.066   1.734
 6660WAT      O20221   2.760   9.779   9.815
 6660WAT     H120222   2.720   9.724   9.743
 6660WAT     H220223   2.848   9.741   9.843
 6661WAT      O20224   5.478   3.647   0.306
 6661WAT     H120225   5.425   3.716   0.355
 6661WAT     H220226   5.565   3.687   0.275
 6662WAT      O20227   5.786   8.024   7.034
 6662WAT     H120228   5.715   8.060   6.974
 6662WAT     H220229   5.774   8.059   7.127
 6663WAT      O20230   3.783   9.337   0.930
 6663WAT     H120231   3.805   9.416   0.988
 6663WAT     H220232   3.783   9.254   0.986
 6664WAT      O20233   0.815   7.165   6.345
 6664WAT     H120234   0.838   7.251   6.389
 6664WAT     H220235   0.890   7.100   6.356
 6665WAT      O20236   9.246   2.764   1.668
 6665WAT     H120237   9.317   2.705   1.706
 6665WAT     H220238   9.156   2.722   1.682
 6666WAT      O20239   8.900   6.475   6.878
 6666WAT     H120240   8.909   6.379   6.854
 6666WAT     H220241   8.962   6.496   6.955
 6667WAT      O20242   3.714   4.100   0.761
 6667WAT     H120243   3.737   4.080   0.856
 6667WAT     H220244   3.639   4.166   0.758
 6668WAT      O20245   0.386   2.982   3.675
 6668WAT     H120246   0.333   3.064   3.698
 6668WAT     H220247   0.357   2.906   3.734
 6669WAT      O20248   9.049   4.035   4.999
 6669WAT     H120249   9.009   3.944   4.987
 6669WAT     H220250   8.989   4.090   5.058
 6670WAT      O20251   6.157   2.351   6.468
 6670WAT     H120252   6.075   2.321   6.419
 6670WAT     H220253   6.239   2.318   6.422
 6671WAT      O20254   3.444   7.073   3.819
 6671WAT     H120255   3.438   7.043   3.724
 6671WAT     H220256   3.485   7.001   3.874
 6672WAT      O20257   8.013   8.304   3.325
 6672WAT     H120258   8.111   8.313   3.308
 6672WAT     H220259   7.997   8.299   3.423
 6673WAT      O20260   7.215   8.882   7.943
 6673WAT     H120261   7.243   8.837   8.027
 6673WAT     H220262   7.124   8.852   7.917
 6674WAT      O20263   7.133   1.174   4.369
 6674WAT     H120264   7.154   1.272   4.362
 6674WAT     H220265   7.218   1.121   4.365
 6675WAT      O20266   7.471   7.668   7.968
 6675WAT     H120267   7.536   7.598   7.939
 6675WAT     H220268   7.442   7.721   7.888
 6676WAT      O20269   4.203   4.134   7.678
 6676WAT     H120270   4.103   4.131   7.678
 6676WAT     H220271   4.238   4.069   7.746
 6677WAT      O20272   3.422   5.536   4.546
 6677WAT     H120273   3.373   5.616   4.581
 6677WAT     H220274   3.516   5.537   4.579
 6678WAT      O20275   8.890   9.377   9.028
 6678WAT     H120276   8.963   9.323   9.071
 6678WAT     H220277   8.827   9.409   9.099
 6679WAT      O20278   0.467   3.162   0.876
 6679WAT     H120279   0.475   3.187   0.780
 6679WAT     H220280   0.397   3.218   0.920
 6680WAT      O20281   3.655   0.171   0.671
 6680WAT     H120282   3.597   0.091   0.661
 6680WAT     H220283   3.617   0.233   0.739
 6681WAT      O20284   3.405   1.889   9.437
 6681WAT     H120285   3.366   1.905   9.346
 6681WAT     H220286   3.439   1.796   9.443
 6682WAT      O20287   9.474   5.947   9.832
 6682WAT     H120288   9.573   5.948   9.827
 6682WAT     H220289   9.444   5.880   9.900
 6683WAT      O20290   6.765   5.700   7.518
 6683WAT     H120291   6.785   5.746   7.605
 6683WAT     H220292   6.748   5.769   7.447
 6684WAT      O20293   0.394   0.519   0.897
 6684WAT     H120294   0.442   0.485   0.816
 6684WAT     H220295   0.386   0.445   0.964
 6685WAT      O20296   9.625   2.760   4.147
 6685WAT     H120297   9.705   2.800   4.193
 6685WAT     H220298   9.552   2.828   4.142
 6686WAT      O20299   3.434   1.557   2.047
 6686WAT     H120300   3.487   1.492   1.993
 6686WAT     H220301   3.336   1.541   2.031
 6687WAT      O20302   5.875   9.594   9.078
 6687WAT     H120303   5.784   9.575   9.041
 6687WAT     H220304   5.944   9.574   9.008
 6688WAT      O20305   6.290   4.489   0.529
 6688WAT     H120306   6.277   4.550   0.607
 6688WAT     H220307   6.356   4.418   0.553
 6689WAT      O20308   7.627   7.747   1.252
 6689WAT     H120309   7.560   7.758   1.326
 6689WAT     H220310   7.680   7.664   1.267
 6690WAT      O20311   6.678   5.628   6.419
 6690WAT     H120312   6.667   5.580   6.506
 6690WAT     H220313   6.596   5.617   6.363
 6691WAT      O20314   6.136   2.278   9.846
 6691WAT     H120315   6.225   2.256   9.886
 6691WAT     H220316   6.090   2.194   9.819
 6692WAT      O20317   5.675   0.930   2.142
 6692WAT     H120318   5.604   0.951   2.075
 6692WAT     H220319   5.750   0.881   2.097
 6693WAT      O20320   1.324   4.407   0.211
 6693WAT     H120321   1.231   4.378   0.189
 6693WAT     H220322   1.385   4.327   0.213
 6694WAT      O20323   4.780   8.799   5.945
 6694WAT     H120324   4.846   8.724   5.948
 6694WAT     H220325   4.687   8.763   5.939
 6695WAT      O20326   3.936   4.634   1.238
 6695WAT     H120327   3.999   4.578   1.184
 6695WAT     H220328   3.843   4.624   1.202
 6696WAT      O20329   2.444   1.482   5.062
 6696WAT     H120330   2.401   1.573   5.062
 6696WAT     H220331   2.443   1.445   4.969
 6697WAT      O20332   4.456   3.037   9.840
 6697WAT     H120333   4.472   3.089   9.923
 6697WAT     H220334   4.357   3.028   9.825
 6698WAT      O20335   2.146   1.152   2.678
 6698WAT     H120336   2.146   1.225   2.609
 6698WAT     H220337   2.237   1.145   2.719
 6699WAT      O20338   6.966   7.969   4.557
 6699WAT     H120339   6.886   7.919   4.591
 6699WAT     H220340   6.994   8.037   4.625
 6700WAT      O20341   5.990   2.560   9.862
 6700WAT     H120342   5.897   2.574   9.897
 6700WAT     H220343   6.010   2.462   9.859
 6701WAT      O20344   2.554   9.365   8.844
 6701WAT     H120345   2.580   9.303   8.918
 6701WAT     H220346   2.455   9.379   8.846
 6702WAT      O20347   0.352   5.937   9.702
 6702WAT     H120348   0.293   5.888   9.766
 6702WAT     H220349   0.418   5.991   9.753
 6703WAT      O20350   3.013   6.728   6.166
 6703WAT     H120351   3.083   6.658   6.151
 6703WAT     H220352   2.923   6.691   6.142
 6704WAT      O20353   2.137   3.285   5.466
 6704WAT     H120354   2.061   3.349   5.470
 6704WAT     H220355   2.136   3.226   5.547
 6705WAT      O20356   9.402   9.697   6.601
 6705WAT     H120357   9.339   9.743   6.664
 6705WAT     H220358   9.445   9.765   6.542
 6706WAT      O20359   1.260   4.967   7.786
 6706WAT     H120360   1.161   4.950   7.793
 6706WAT     H220361   1.276   5.066   7.775
 6707WAT      O20362   2.189   3.826   6.051
 6707WAT     H120363   2.263   3.768   6.084
 6707WAT     H220364   2.117   3.769   6.011
 6708WAT      O20365   5.218   6.071   5.776
 6708WAT     H120366   5.134   6.016   5.782
 6708WAT     H220367   5.198   6.156   5.727
 6709WAT      O20368   7.205   4.508   2.152
 6709WAT     H120369   7.205   4.562   2.068
 6709WAT     H220370   7.111   4.484   2.177
 6710WAT      O20371   4.331   0.636   4.136
 6710WAT     H120372   4.378   0.721   4.115
 6710WAT     H220373   4.397   0.560   4.133
 6711WAT      O20374   5.096   1.537   3.719
 6711WAT     H120375   5.037   1.584   3.785
 6711WAT     H220376   5.185   1.582   3.716
 6712WAT      O20377   9.040   5.769   4.821
 6712WAT     H120378   9.075   5.755   4.729
 6712WAT     H220379   9.103   5.828   4.872
 6713WAT      O20380   0.204   7.581   7.912
 6713WAT     H120381   0.152   7.602   7.996
 6713WAT     H220382   0.151   7.518   7.855
 6714WAT      O20383   4.901   1.689   0.431
 6714WAT     H120384   4.858   1.775   0.460
 6714WAT     H220385   4.906   1.627   0.509
 6715WAT      O20386   4.332   3.081   7.815
 6715WAT     H120387   4.361   3.171   7.780
 6715WAT     H220388   4.262   3.043   7.755
 6716WAT      O20389   0.759   6.772   6.341
 6716WAT     H120390   0.792   6.756   6.434
 6716WAT     H220391   0.705   6.856   6.339
 6717WAT      O20392   8.436   3.342   1.447
 6717WAT     H120393   8.378   3.343   1.529
 6717WAT     H220394   8.524   3.298   1.469
 6718WAT      O20395   0.617   9.020   6.162
 6718WAT     H120396   0.665   9.003   6.248
 6718WAT     H220397   0.519   9.002   6.174
 6719WAT      O20398   0.503   0.637   9.423
 6719WAT     H120399   0.541   0.711   9.478
 6719WAT     H220400   0.558   0.555   9.435
 6720WAT      O20401   6.611   6.016   5.203
 6720WAT     H120402   6.696   6.033   5.152
 6720WAT     H220403   6.632   5.966   5.287
 6721WAT      O20404   0.024   8.228   8.401
 6721WAT     H120405   0.032   8.253   8.304
 6721WAT     H220406   0.081   8.149   8.420
 6722WAT      O20407   8.685   2.536   7.990
 6722WAT     H120408   8.608   2.547   7.927
 6722WAT     H220409   8.651   2.530   8.084
 6723WAT      O20410   7.768   3.800   9.175
 6723WAT     H120411   7.734   3.755   9.257
 6723WAT     H220412   7.845   3.859   9.198
 6724WAT      O20413   2.009   7.342   0.931
 6724WAT     H120414   2.072   7.417   0.909
 6724WAT     H220415   1.989   7.342   1.029
 6725WAT      O20416   5.889   5.028   2.731
 6725WAT     H120417   5.808   5.017   2.788
 6725WAT     H220418   5.946   4.947   2.737
 6726WAT      O20419   4.438   8.422   4.718
 6726WAT     H120420   4.460   8.359   4.792
 6726WAT     H220421   4.512   8.420   4.650
 6727WAT      O20422   5.507   9.653   8.534
 6727WAT     H120423   5.421   9.703   8.521
 6727WAT     H220424   5.539   9.620   8.445
 6728WAT      O20425   7.983   1.193   2.570
 6728WAT     H120426   7.887   1.182   2.595
 6728WAT     H220427   8.041   1.161   2.645
 6729WAT      O20428   0.033   7.678   1.205
 6729WAT     H120429   0.031   7.719   1.296
 6729WAT     H220430   0.109   7.613   1.199
 6730WAT      O20431   8.472   9.453   0.183
 6730WAT     H120432   8.545   9.412   0.237
 6730WAT     H220433   8.384   9.436   0.227
 6731WAT      O20434   2.355   1.268   7.829
 6731WAT     H120435   2.400   1.208   7.763
 6731WAT     H220436   2.283   1.217   7.877
 6732WAT      O20437   8.140   5.084   3.355
 6732WAT     H120438   8.134   4.994   3.311
 6732WAT     H220439   8.085   5.083   3.439
 6733WAT      O20440   3.888   8.566   8.516
 6733WAT     H120441   3.961   8.512   8.474
 6733WAT     H220442   3.927   8.652   8.550
 6734WAT      O20443   4.078   8.689   4.268
 6734WAT     H120444   4.052   8.751   4.341
 6734WAT     H220445   4.097   8.598   4.307
 6735WAT      O20446   7.069   5.427   3.600
 6735WAT     H120447   7.022   5.367   3.665
 6735WAT     H220448   7.098   5.511   3.645
 6736WAT      O20449   7.344   2.638   8.822
 6736WAT     H120450   7.395   2.705   8.769
 6736WAT     H220451   7.249   2.635   8.790
 6737WAT      O20452   5.334   6.236   3.971
 6737WAT     H120453   5.355   6.147   4.012
 6737WAT     H220454   5.269   6.286   4.029
 6738WAT      O20455   3.943   1.333   6.386
 6738WAT     H120456   3.965   1.332   6.288
 6738WAT     H220457   3.999   1.403   6.431
 6739WAT      O20458   3.375   8.266   3.969
 6739WAT     H120459   3.330   8.238   4.053
 6739WAT     H220460   3.420   8.355   3.983
 6740WAT      O20461   1.297   3.813   0.326
 6740WAT     H120462   1.282   3.756   0.407
 6740WAT     H220463   1.209   3.851   0.295
 6741WAT      O20464   3.809   9.007   2.353
 6741WAT     H120465   3.742   8.943   2.317
 6741WAT     H220466   3.764   9.094   2.375
 6742WAT      O20467   8.966   3.787   5.259
 6742WAT     H120468   8.901   3.771   5.184
 6742WAT     H220469   9.043   3.724   5.250
 6743WAT      O20470   6.297   8.389   9.815
 6743WAT     H120471   6.206   8.370   9.853
 6743WAT     H220472   6.363   8.326   9.854
 6744WAT      O20473   0.778   2.505   0.141
 6744WAT     H120474   0.828   2.545   0.064
 6744WAT     H220475   0.737   2.579   0.195
 6745WAT      O20476   7.553   5.906   2.148
 6745WAT     H120477   7.479   5.970   2.128
 6745WAT     H220478   7.602   5.885   2.064
 6746WAT      O20479   2.839   4.133   4.131
 6746WAT     H120480   2.790   4.142   4.044
 6746WAT     H220481   2.904   4.208   4.141
 6747WAT      O20482   3.044   8.097   9.112
 6747WAT     H120483   3.027   8.075   9.208
 6747WAT     H220484   2.983   8.044   9.054
 6748WAT      O20485   5.493   8.906   8.848
 6748WAT     H120486   5.583   8.935   8.818
 6748WAT     H220487   5.493   8.808   8.867
 6749WAT      O20488   9.165   1.581   9.296
 6749WAT     H120489   9.166   1.548   9.390
 6749WAT     H220490   9.072   1.576   9.260
 6750WAT      O20491   7.974   8.307   5.803
 6750WAT     H120492   7.945   8.263   5.717
 6750WAT     H220493   8.057   8.360   5.786
 6751WAT      O20494   2.041   4.586   7.758
 6751WAT     H120495   2.102   4.520   7.715
 6751WAT     H220496   2.051   4.674   7.713
 6752WAT      O20497   7.828   4.001   8.856
 6752WAT     H120498   7.807   4.093   8.822
 6752WAT     H220499   7.898   4.006   8.926
 6753WAT      O20500   0.010   6.061   7.465
 6753WAT     H120501   0.097   6.087   7.505
 6753WAT     H220502  -0.056   6.136   7.476
 6754WAT      O20503   5.566   5.989   2.200
 6754WAT     H120504   5.470   6.003   2.175
 6754WAT     H220505   5.621   6.066   2.167
 6755WAT      O20506   8.746   9.063   5.213
 6755WAT     H120507   8.744   8.995   5.286
 6755WAT     H220508   8.653   9.081   5.181
 6756WAT      O20509   7.032   1.343   0.329
 6756WAT     H120510   7.044   1.428   0.278
 6756WAT     H220511   6.946   1.345   0.379
 6757WAT      O20512   9.213   5.850   0.630
 6757WAT     H120513   9.124   5.865   0.588
 6757WAT     H220514   9.237   5.753   0.624
 6758WAT      O20515   0.400   9.201   7.288
 6758WAT     H120516   0.426   9.180   7.382
 6758WAT     H220517   0.332   9.275   7.288
 6759WAT      O20518   1.317   0.698   2.142
 6759WAT     H120519   1.273   0.627   2.085
 6759WAT     H220520   1.416   0.694   2.130
 6760WAT      O20521   4.630   4.432   3.683
 6760WAT     H120522   4.709   4.483   3.720
 6760WAT     H220523   4.607   4.358   3.746
 6761WAT      O20524   0.769   2.436   8.701
 6761WAT     H120525   0.752   2.441   8.602
 6761WAT     H220526   0.837   2.366   8.720
 6762WAT      O20527   0.554   5.607   4.901
 6762WAT     H120528   0.488   5.628   4.828
 6762WAT     H220529   0.537   5.515   4.935
 6763WAT      O20530   4.500   3.160   4.769
 6763WAT     H120531   4.547   3.205   4.694
 6763WAT     H220532   4.506   3.061   4.758
 6764WAT      O20533   5.279   6.054   8.726
 6764WAT     H120534   5.188   6.074   8.690
 6764WAT     H220535   5.346   6.115   8.683
 6765WAT      O20536   5.870   8.042   3.705
 6765WAT     H120537   5.876   7.942   3.715
 6765WAT     H220538   5.911   8.068   3.617
 6766WAT      O20539   3.190   1.914   9.193
 6766WAT     H120540   3.211   1.828   9.146
 6766WAT     H220541   3.092   1.930   9.190
 6767WAT      O20542   6.474   9.272   2.517
 6767WAT     H120543   6.406   9.246   2.448
 6767WAT     H220544   6.477   9.371   2.525
 6768WAT      O20545   5.942   9.518   7.402
 6768WAT     H120546   5.921   9.595   7.342
 6768WAT     H220547   5.862   9.459   7.409
 6769WAT      O20548   8.781   6.103   3.650
 6769WAT     H120549   8.701   6.144   3.696
 6769WAT     H220550   8.790   6.008   3.679
 6770WAT      O20551   9.512   6.280   2.216
 6770WAT     H120552   9.569   6.330   2.151
 6770WAT     H220553   9.562   6.200   2.250
 6771WAT      O20554   7.984   3.772   0.470
 6771WAT     H120555   7.891   3.809   0.471
 6771WAT     H220556   7.993   3.704   0.544
 6772WAT      O20557   2.980   1.514   7.944
 6772WAT     H120558   2.996   1.601   7.989
 6772WAT     H220559   2.948   1.530   7.851
 6773WAT      O20560   3.605   8.489   9.453
 6773WAT     H120561   3.580   8.519   9.545
 6773WAT     H220562   3.652   8.564   9.406
 6774WAT      O20563   9.204   4.867   8.228
 6774WAT     H120564   9.139   4.927   8.275
 6774WAT     H220565   9.163   4.778   8.213
 6775WAT      O20566   9.879   1.016   1.280
 6775WAT     H120567   9.867   1.115   1.269
 6775WAT     H220568   9.799   0.977   1.325
 6776WAT      O20569   7.883   4.379   3.620
 6776WAT     H120570   7.914   4.320   3.696
 6776WAT     H220571   7.834   4.458   3.657
 6777WAT      O20572   6.047   8.507   6.511
 6777WAT     H120573   5.964   8.532   6.561
 6777WAT     H220574   6.121   8.488   6.576
 6778WAT      O20575   1.958   2.608   9.166
 6778WAT     H120576   1.990   2.637   9.076
 6778WAT     H220577   2.019   2.643   9.236
 6779WAT      O20578   9.101   7.927   4.604
 6779WAT     H120579   9.189   7.909   4.647
 6779WAT     H220580   9.037   7.853   4.626
 6780WAT      O20581   8.191   5.710   4.164
 6780WAT     H120582   8.187   5.791   4.223
 6780WAT     H220583   8.231   5.736   4.076
 6781WAT      O20584   6.208   5.226   9.405
 6781WAT     H120585   6.154   5.295   9.455
 6781WAT     H220586   6.304   5.254   9.403
 6782WAT      O20587   6.377   3.770   8.613
 6782WAT     H120588   6.320   3.688   8.623
 6782WAT     H220589   6.423   3.767   8.524
 6783WAT      O20590   0.501   4.776   9.105
 6783WAT     H120591   0.598   4.769   9.084
 6783WAT     H220592   0.468   4.867   9.081
 6784WAT      O20593   0.052   3.600   9.695
 6784WAT     H120594   0.042   3.502   9.674
 6784WAT     H220595   0.149   3.624   9.692
 6785WAT      O20596   2.929   3.000   5.351
 6785WAT     H120597   2.981   3.032   5.272
 6785WAT     H220598   2.861   3.069   5.378
 6786WAT      O20599   7.310   7.636   0.673
 6786WAT     H120600   7.330   7.729   0.704
 6786WAT     H220601   7.344   7.624   0.580
 6787WAT      O20602   8.371   5.583   0.511
 6787WAT     H120603   8.467   5.607   0.496
 6787WAT     H220604   8.359   5.484   0.500
 6788WAT      O20605   4.919   2.725   7.377
 6788WAT     H120606   4.870   2.643   7.346
 6788WAT     H220607   4.943   2.781   7.297
 6789WAT      O20608   8.308   0.520   9.246
 6789WAT     H120609   8.287   0.600   9.190
 6789WAT     H220610   8.287   0.436   9.196
 6790WAT      O20611   4.922   1.028   6.007
 6790WAT     H120612   4.977   0.974   5.943
 6790WAT     H220613   4.901   1.117   5.966
 6791WAT      O20614   7.298   1.987   9.664
 6791WAT     H120615   7.355   2.068   9.655
 6791WAT     H220616   7.208   2.013   9.700
 6792WAT      O20617   8.640   5.059   2.997
 6792WAT     H120618   8.546   5.040   2.971
 6792WAT     H220619   8.671   4.990   3.063
 6793WAT      O20620   3.526   3.530   3.928
 6793WAT     H120621   3.527   3.610   3.867
 6793WAT     H220622   3.432   3.510   3.956
 6794WAT      O20623   0.641   2.562   7.071
 6794WAT     H120624   0.650   2.610   7.158
 6794WAT     H220625   0.722   2.505   7.056
 6795WAT      O20626   3.987   8.293   9.573
 6795WAT     H120627   3.898   8.252   9.595
 6795WAT     H220628   4.053   8.267   9.644
 6796WAT      O20629   4.745   0.416   2.013
 6796WAT     H120630   4.807   0.345   1.981
 6796WAT     H220631   4.797   0.488   2.058
 6797WAT      O20632   1.163   7.486   7.501
 6797WAT     H120633   1.242   7.467   7.558
 6797WAT     H220634   1.192   7.536   7.419
 6798WAT      O20635   0.609   0.503   5.223
 6798WAT     H120636   0.555   0.457   5.153
 6798WAT     H220637   0.698   0.530   5.184
 6799WAT      O20638   0.871   7.210   3.265
 6799WAT     H120639   0.838   7.194   3.358
 6799WAT     H220640   0.856   7.129   3.209
 6800WAT      O20641   9.128   2.233   2.514
 6800WAT     H120642   9.099   2.141   2.540
 6800WAT     H220643   9.088   2.257   2.425
 6801WAT      O20644   1.730   3.203   7.829
 6801WAT     H120645   1.793   3.185   7.905
 6801WAT     H220646   1.685   3.291   7.844
 6802WAT      O20647   2.123   6.663   1.955
 6802WAT     H120648   2.044   6.681   1.896
 6802WAT     H220649   2.186   6.740   1.950
 6803WAT      O20650   4.581   8.858   5.085
 6803WAT     H120651   4.548   8.917   5.158
 6803WAT     H220652   4.565   8.903   4.996
 6804WAT      O20653   3.233   7.618   9.420
 6804WAT     H120654   3.144   7.600   9.377
 6804WAT     H220655   3.270   7.704   9.385
 6805WAT      O20656   1.797   0.758   6.492
 6805WAT     H120657   1.751   0.847   6.493
 6805WAT     H220658   1.753   0.697   6.557
 6806WAT      O20659   7.317   8.266   5.234
 6806WAT     H120660   7.388   8.244   5.301
 6806WAT     H220661   7.279   8.181   5.197
 6807WAT      O20662   6.726   6.736   8.521
 6807WAT     H120663   6.712   6.639   8.539
 6807WAT     H220664   6.787   6.747   8.442
 6808WAT      O20665   8.738   6.523   4.465
 6808WAT     H120666   8.764   6.611   4.505
 6808WAT     H220667   8.639   6.522   4.450
 6809WAT      O20668   5.075   3.048   9.741
 6809WAT     H120669   5.137   3.013   9.671
 6809WAT     H220670   4.981   3.048   9.706
 6810WAT      O20671   6.359   1.133   7.131
 6810WAT     H120672   6.350   1.191   7.212
 6810WAT     H220673   6.272   1.087   7.113
 6811WAT      O20674   2.561   6.927   7.602
 6811WAT     H120675   2.624   6.914   7.526
 6811WAT     H220676   2.503   7.007   7.584
 6812WAT      O20677   1.509   6.972   1.499
 6812WAT     H120678   1.580   7.042   1.496
 6812WAT     H220679   1.492   6.937   1.407
 6813WAT      O20680   7.580   2.879   3.531
 6813WAT     H120681   7.528   2.954   3.490
 6813WAT     H220682   7.634   2.834   3.461
 6814WAT      O20683   6.458   9.603   2.038
 6814WAT     H120684   6.494   9.665   1.969
 6814WAT     H220685   6.497   9.512   2.024
 6815WAT      O20686   1.376   9.741   2.248
 6815WAT     H120687   1.281   9.715   2.264
 6815WAT     H220688   1.418   9.675   2.185
 6816WAT      O20689   3.919   8.856   7.115
 6816WAT     H120690   3.955   8.870   7.207
 6816WAT     H220691   3.895   8.760   7.103
 6817WAT      O20692   4.952   3.642   7.759
 6817WAT     H120693   4.858   3.673   7.774
 6817WAT     H220694   5.002   3.710   7.706
 6818WAT      O20695   1.258   4.316   1.893
 6818WAT     H120696   1.239   4.397   1.947
 6818WAT     H220697   1.230   4.234   1.944
 6819WAT      O20698   1.956   0.778   0.667
 6819WAT     H120699   1.993   0.869   0.682
 6819WAT     H220700   1.907   0.775   0.579
 6820WAT      O20701   8.975   0.240   6.966
 6820WAT     H120702   9.012   0.289   7.045
 6820WAT     H220703   9.047   0.227   6.898
 6821WAT      O20704   2.909   0.384   2.395
 6821WAT     H120705   2.862   0.345   2.475
 6821WAT     H220706   2.852   0.370   2.313
 6822WAT      O20707   7.967   2.813   8.191
 6822WAT     H120708   7.960   2.743   8.120
 6822WAT     H220709   8.032   2.883   8.163
 6823WAT      O20710   8.746   3.604   5.125
 6823WAT     H120711   8.727   3.661   5.046
 6823WAT     H220712   8.733   3.508   5.101
 6824WAT      O20713   7.995   4.522   5.584
 6824WAT     H120714   8.080   4.518   5.637
 6824WAT     H220715   8.008   4.473   5.498
 6825WAT      O20716   9.729   4.653   1.339
 6825WAT     H120717   9.791   4.689   1.408
 6825WAT     H220718   9.753   4.691   1.249
 6826WAT      O20719   0.590   5.679   2.279
 6826WAT     H120720   0.622   5.765   2.239
 6826WAT     H220721   0.527   5.698   2.354
 6827WAT      O20722   7.391   2.223   1.590
 6827WAT     H120723   7.404   2.250   1.686
 6827WAT     H220724   7.350   2.132   1.587
 6828WAT      O20725   4.164   6.737   9.698
 6828WAT     H120726   4.163   6.783   9.786
 6828WAT     H220727   4.245   6.765   9.647
 6829WAT      O20728   3.381   8.044   7.179
 6829WAT     H120729   3.464   8.012   7.133
 6829WAT     H220730   3.397   8.136   7.216
 6830WAT      O20731   8.331   2.926   8.256
 6830WAT     H120732   8.337   2.952   8.353
 6830WAT     H220733   8.263   2.983   8.211
 6831WAT      O20734   0.619   9.068   1.948
 6831WAT     H120735   0.695   9.016   1.988
 6831WAT     H220736   0.554   9.092   2.019
 6832WAT      O20737   5.201   8.376   9.546
 6832WAT     H120738   5.298   8.377   9.520
 6832WAT     H220739   5.150   8.439   9.488
 6833WAT      O20740   6.802   0.604   6.593
 6833WAT     H120741   6.715   0.557   6.605
 6833WAT     H220742   6.877   0.543   6.619
 6834WAT      O20743   8.800   6.452   2.829
 6834WAT     H120744   8.865   6.527   2.844
 6834WAT     H220745   8.719   6.466   2.887
 6835WAT      O20746   6.023   5.275   6.375
 6835WAT     H120747   5.977   5.199   6.421
 6835WAT     H220748   5.955   5.331   6.327
 6836WAT      O20749   2.667   8.771   4.312
 6836WAT     H120750   2.611   8.709   4.367
 6836WAT     H220751   2.614   8.852   4.289
 6837WAT      O20752   6.494   3.535   1.338
 6837WAT     H120753   6.428   3.610   1.348
 6837WAT     H220754   6.478   3.488   1.251
 6838WAT      O20755   2.386   1.781   9.719
 6838WAT     H120756   2.373   1.691   9.758
 6838WAT     H220757   2.479   1.788   9.681
 6839WAT      O20758   8.444   2.808   2.568
 6839WAT     H120759   8.470   2.856   2.652
 6839WAT     H220760   8.394   2.724   2.591
 6840WAT      O20761   8.454   3.053   4.204
 6840WAT     H120762   8.358   3.069   4.229
 6840WAT     H220763   8.484   2.965   4.240
 6841WAT      O20764   8.997   4.407   1.351
 6841WAT     H120765   8.948   4.343   1.411
 6841WAT     H220766   9.092   4.415   1.383
 6842WAT      O20767   3.014   6.872   3.667
 6842WAT     H120768   3.051   6.792   3.618
 6842WAT     H220769   3.051   6.874   3.760
 6843WAT      O20770   4.473   8.241   2.152
 6843WAT     H120771   4.464   8.162   2.213
 6843WAT     H220772   4.415   8.315   2.185
 6844WAT      O20773   3.880   6.690   3.197
 6844WAT     H120774   3.799   6.722   3.149
 6844WAT     H220775   3.900   6.596   3.171
 6845WAT      O20776   2.289   5.437   6.253
 6845WAT     H120777   2.327   5.422   6.162
 6845WAT     H220778   2.340   5.382   6.320
 6846WAT      O20779   5.378   8.375   5.902
 6846WAT     H120780   5.294   8.321   5.903
 6846WAT     H220781   5.356   8.471   5.915
 6847WAT      O20782   9.432   8.676   4.248
 6847WAT     H120783   9.387   8.627   4.173
 6847WAT     H220784   9.456   8.768   4.218
 6848WAT      O20785   2.549   8.028   4.243
 6848WAT     H120786   2.613   7.998   4.172
 6848WAT     H220787   2.589   8.104   4.294
 6849WAT      O20788   6.006   2.132   2.465
 6849WAT     H120789   5.920   2.118   2.417
 6849WAT     H220790   5.989   2.141   2.563
 6850WAT      O20791   8.239   9.179   9.763
 6850WAT     H120792   8.200   9.215   9.679
 6850WAT     H220793   8.302   9.246   9.802
 6851WAT      O20794   8.084   6.482   1.352
 6851WAT     H120795   8.131   6.481   1.264
 6851WAT     H220796   7.996   6.528   1.343
 6852WAT      O20797   1.778   7.503   5.416
 6852WAT     H120798   1.766   7.411   5.377
 6852WAT     H220799   1.864   7.507   5.466
 6853WAT      O20800   0.966   5.172   8.163
 6853WAT     H120801   1.057   5.170   8.121
 6853WAT     H220802   0.974   5.203   8.258
 6854WAT      O20803   8.067   9.003   1.269
 6854WAT     H120804   7.969   8.993   1.289
 6854WAT     H220805   8.098   8.926   1.214
 6855WAT      O20806   6.624   4.051   8.639
 6855WAT     H120807   6.531   4.042   8.605
 6855WAT     H220808   6.629   4.013   8.732
 6856WAT      O20809   6.218   9.002   5.469
 6856WAT     H120810   6.315   9.021   5.451
 6856WAT     H220811   6.171   9.087   5.493
 6857WAT      O20812   8.003   3.555   0.658
 6857WAT     H120813   8.018   3.554   0.756
 6857WAT     H220814   8.063   3.488   0.614
 6858WAT      O20815   6.124   0.564   7.008
 6858WAT     H120816   6.150   0.578   6.912
 6858WAT     H220817   6.045   0.622   7.029
 6859WAT      O20818   0.256   0.782   4.302
 6859WAT     H120819   0.238   0.718   4.227
 6859WAT     H220820   0.354   0.785   4.320
 6860WAT      O20821   0.535   1.229   8.755
 6860WAT     H120822   0.541   1.129   8.761
 6860WAT     H220823   0.626   1.268   8.770
 6861WAT      O20824   7.035   5.806   6.484
 6861WAT     H120825   7.108   5.852   6.536
 6861WAT     H220826   7.059   5.806   6.387
 6862WAT      O20827   8.191   7.053   2.309
 6862WAT     H120828   8.099   7.015   2.316
 6862WAT     H220829   8.208   7.114   2.387
 6863WAT      O20830   5.889   0.814   2.785
 6863WAT     H120831   5.898   0.778   2.878
 6863WAT     H220832   5.925   0.907   2.782
 6864WAT      O20833   8.109   2.412   3.386
 6864WAT     H120834   8.142   2.332   3.336
 6864WAT     H220835   8.135   2.405   3.482
 6865WAT      O20836   9.333   8.605   1.359
 6865WAT     H120837   9.348   8.603   1.260
 6865WAT     H220838   9.235   8.603   1.377
 6866WAT      O20839   6.175   1.897   6.511
 6866WAT     H120840   6.108   1.941   6.452
 6866WAT     H220841   6.263   1.891   6.462
 6867WAT      O20842   8.455   7.507   1.713
 6867WAT     H120843   8.462   7.446   1.634
 6867WAT     H220844   8.481   7.457   1.796
 6868WAT      O20845   7.595   9.016   6.991
 6868WAT     H120846   7.598   8.943   6.923
 6868WAT     H220847   7.535   9.089   6.959
 6869WAT      O20848   0.147   7.157   6.559
 6869WAT     H120849   0.143   7.246   6.513
 6869WAT     H220850   0.209   7.097   6.510
 6870WAT      O20851   0.308   0.921   5.874
 6870WAT     H120852   0.241   0.987   5.841
 6870WAT     H220853   0.371   0.965   5.938
 6871WAT      O20854   1.033   6.903   1.927
 6871WAT     H120855   1.071   6.934   1.840
 6871WAT     H220856   1.066   6.962   2.001
 6872WAT      O20857   1.607   4.560   1.798
 6872WAT     H120858   1.513   4.590   1.778
 6872WAT     H220859   1.649   4.526   1.714
 6873WAT      O20860   9.046   4.168   8.949
 6873WAT     H120861   9.022   4.234   8.878
 6873WAT     H220862   9.037   4.210   9.039
 6874WAT      O20863   1.216   7.108   3.604
 6874WAT     H120864   1.164   7.143   3.526
 6874WAT     H220865   1.307   7.080   3.574
 6875WAT      O20866   9.230   7.745   6.016
 6875WAT     H120867   9.263   7.732   6.110
 6875WAT     H220868   9.163   7.674   5.994
 6876WAT      O20869   6.615   5.444   4.396
 6876WAT     H120870   6.565   5.357   4.399
 6876WAT     H220871   6.624   5.481   4.489
 6877WAT      O20872   8.672   0.389   7.611
 6877WAT     H120873   8.614   0.392   7.693
 6877WAT     H220874   8.617   0.363   7.532
 6878WAT      O20875   3.986   6.007   2.634
 6878WAT     H120876   4.026   6.073   2.571
 6878WAT     H220877   3.960   6.053   2.719
 6879WAT      O20878   4.090   4.488   1.876
 6879WAT     H120879   4.096   4.522   1.970
 6879WAT     H220880   4.144   4.405   1.867
 6880WAT      O20881   5.309   7.946   7.618
 6880WAT     H120882   5.360   7.860   7.612
 6880WAT     H220883   5.373   8.021   7.636
 6881WAT      O20884   0.557   0.529   6.026
 6881WAT     H120885   0.565   0.588   5.946
 6881WAT     H220886   0.470   0.546   6.072
 6882WAT      O20887   3.731   3.456   3.566
 6882WAT     H120888   3.773   3.390   3.629
 6882WAT     H220889   3.698   3.408   3.485
 6883WAT      O20890   3.053   1.195   4.368
 6883WAT     H120891   3.021   1.147   4.286
 6883WAT     H220892   3.135   1.248   4.345
 6884WAT      O20893   1.693   8.247   3.090
 6884WAT     H120894   1.647   8.255   3.002
 6884WAT     H220895   1.768   8.313   3.095
 6885WAT      O20896   3.987   1.249   9.018
 6885WAT     H120897   3.971   1.341   8.983
 6885WAT     H220898   4.072   1.213   8.978
 6886WAT      O20899   7.792   0.580   1.537
 6886WAT     H120900   7.767   0.628   1.621
 6886WAT     H220901   7.762   0.485   1.543
 6887WAT      O20902   1.662   5.655   8.466
 6887WAT     H120903   1.647   5.566   8.511
 6887WAT     H220904   1.734   5.705   8.514
 6888WAT      O20905   2.360   1.507   9.199
 6888WAT     H120906   2.351   1.469   9.107
 6888WAT     H220907   2.318   1.597   9.203
 6889WAT      O20908   6.148   0.863   0.918
 6889WAT     H120909   6.092   0.785   0.889
 6889WAT     H220910   6.137   0.938   0.854
 6890WAT      O20911   8.650   0.229   6.034
 6890WAT     H120912   8.636   0.164   6.109
 6890WAT     H220913   8.610   0.317   6.060
 6891WAT      O20914   7.363   1.647   9.387
 6891WAT     H120915   7.282   1.704   9.403
 6891WAT     H220916   7.392   1.655   9.292
 6892WAT      O20917   8.938   3.959   4.205
 6892WAT     H120918   8.941   4.058   4.220
 6892WAT     H220919   8.945   3.940   4.107
 6893WAT      O20920   7.584   4.299   5.718
 6893WAT     H120921   7.584   4.252   5.806
 6893WAT     H220922   7.490   4.312   5.686
 6894WAT      O20923   6.556   7.088   0.960
 6894WAT     H120924   6.624   7.105   1.032
 6894WAT     H220925   6.511   7.000   0.977
 6895WAT      O20926   9.178   6.471   9.157
 6895WAT     H120927   9.186   6.372   9.160
 6895WAT     H220928   9.264   6.511   9.126
 6896WAT      O20929   9.773   0.294   5.717
 6896WAT     H120930   9.784   0.260   5.624
 6896WAT     H220931   9.859   0.335   5.748
 6897WAT      O20932   6.271   9.134   6.716
 6897WAT     H120933   6.311   9.217   6.755
 6897WAT     H220934   6.294   9.129   6.619
 6898WAT      O20935   6.658   8.776   7.680
 6898WAT     H120936   6.623   8.849   7.622
 6898WAT     H220937   6.676   8.811   7.772
 6899WAT      O20938   1.087   6.086   9.569
 6899WAT     H120939   1.004   6.032   9.556
 6899WAT     H220940   1.070   6.158   9.637
 6900WAT      O20941   0.036   2.435   7.884
 6900WAT     H120942   0.100   2.367   7.846
 6900WAT     H220943   0.085   2.519   7.906
 6901WAT      O20944   2.717   1.216   2.308
 6901WAT     H120945   2.712   1.308   2.346
 6901WAT     H220946   2.634   1.198   2.254
 6902WAT      O20947   2.446   8.013   2.175
 6902WAT     H120948   2.440   7.946   2.101
 6902WAT     H220949   2.542   8.038   2.189
 6903WAT      O20950   2.913   4.029   7.405
 6903WAT     H120951   2.918   4.020   7.504
 6903WAT     H220952   2.853   3.959   7.368
 6904WAT      O20953   9.166   1.092   3.427
 6904WAT     H120954   9.076   1.136   3.421
 6904WAT     H220955   9.154   0.993   3.420
 6905WAT      O20956   1.347   6.980   4.797
 6905WAT     H120957   1.373   7.063   4.845
 6905WAT     H220958   1.396   6.902   4.837
 6906WAT      O20959   2.085   3.474   9.618
 6906WAT     H120960   2.176   3.436   9.605
 6906WAT     H220961   2.066   3.540   9.545
 6907WAT      O20962   8.465   9.320   9.848
 6907WAT     H120963   8.546   9.264   9.861
 6907WAT     H220964   8.452   9.379   9.928
 6908WAT      O20965   4.456   1.417   5.970
 6908WAT     H120966   4.464   1.459   5.880
 6908WAT     H220967   4.416   1.482   6.034
 6909WAT      O20968   0.579   4.152   2.600
 6909WAT     H120969   0.665   4.196   2.574
 6909WAT     H220970   0.548   4.092   2.526
 6910WAT      O20971   1.130   5.415   2.111
 6910WAT     H120972   1.094   5.323   2.102
 6910WAT     H220973   1.189   5.420   2.192
 6911WAT      O20974   7.518   8.570   7.115
 6911WAT     H120975   7.419   8.582   7.109
 6911WAT     H220976   7.559   8.580   7.024
 6912WAT      O20977   4.820   0.014   8.559
 6912WAT     H120978   4.840   0.087   8.625
 6912WAT     H220979   4.790  -0.067   8.609
 6913WAT      O20980   1.498   0.903   0.416
 6913WAT     H120981   1.522   0.928   0.322
 6913WAT     H220982   1.475   0.805   0.419
 6914WAT      O20983   4.517   4.088   6.416
 6914WAT     H120984   4.571   4.161   6.373
 6914WAT     H220985   4.578   4.014   6.445
 6915WAT      O20986   8.201   7.952   1.296
 6915WAT     H120987   8.144   8.022   1.340
 6915WAT     H220988   8.166   7.935   1.204
 6916WAT      O20989   4.148   1.856   2.413
 6916WAT     H120990   4.217   1.885   2.479
 6916WAT     H220991   4.058   1.856   2.457
 6917WAT      O20992   3.959   6.519   4.649
 6917WAT     H120993   4.040   6.556   4.694
 6917WAT     H220994   3.882   6.581   4.660
 6918WAT      O20995   1.584   0.157   6.658
 6918WAT     H120996   1.671   0.203   6.643
 6918WAT     H220997   1.534   0.149   6.572
 6919WAT      O20998   1.962   1.505   2.972
 6919WAT     H120999   1.988   1.576   3.038
 6919WAT     H221000   2.025   1.507   2.895
 6920WAT      O21001   7.838   5.098   7.936
 6920WAT     H121002   7.841   5.137   8.028
 6920WAT     H221003   7.924   5.119   7.889
 6921WAT      O21004   0.362   9.709   2.344
 6921WAT     H121005   0.401   9.653   2.271
 6921WAT     H221006   0.263   9.696   2.346
 6922WAT      O21007   4.375   6.490   3.301
 6922WAT     H121008   4.282   6.525   3.309
 6922WAT     H221009   4.402   6.490   3.205
 6923WAT      O21010   3.130   9.227   0.607
 6923WAT     H121011   3.160   9.248   0.700
 6923WAT     H221012   3.208   9.238   0.544
 6924WAT      O21013   5.886   7.429   4.261
 6924WAT     H121014   5.860   7.334   4.241
 6924WAT     H221015   5.812   7.473   4.313
 6925WAT      O21016   1.830   9.395   8.054
 6925WAT     H121017   1.861   9.300   8.061
 6925WAT     H221018   1.766   9.415   8.127
 6926WAT      O21019   4.534   2.133   5.834
 6926WAT     H121020   4.546   2.225   5.872
 6926WAT     H221021   4.590   2.068   5.885
 6927WAT      O21022   0.819   0.726   6.602
 6927WAT     H121023   0.864   0.648   6.559
 6927WAT     H221024   0.740   0.694   6.655
 6928WAT      O21025   2.655   6.384   3.241
 6928WAT     H121026   2.662   6.474   3.282
 6928WAT     H221027   2.565   6.373   3.198
 6929WAT      O21028   2.304   2.910   6.121
 6929WAT     H121029   2.288   2.811   6.119
 6929WAT     H221030   2.230   2.954   6.172
 6930WAT      O21031   1.510   2.862   9.687
 6930WAT     H121032   1.510   2.764   9.703
 6930WAT     H221033   1.424   2.902   9.720
 6931WAT      O21034   7.342   3.488   7.403
 6931WAT     H121035   7.394   3.567   7.436
 6931WAT     H221036   7.308   3.435   7.480
 6932WAT      O21037   0.486   8.229   9.853
 6932WAT     H121038   0.554   8.278   9.799
 6932WAT     H221039   0.504   8.244   9.950
 6933WAT      O21040   4.726   9.174   3.278
 6933WAT     H121041   4.640   9.142   3.239
 6933WAT     H221042   4.707   9.237   3.353
 6934WAT      O21043   3.246   7.275   5.699
 6934WAT     H121044   3.298   7.200   5.659
 6934WAT     H221045   3.308   7.343   5.738
 6935WAT      O21046   4.983   8.384   4.327
 6935WAT     H121047   4.933   8.362   4.411
 6935WAT     H221048   5.057   8.319   4.313
 6936WAT      O21049   9.519   3.828   7.707
 6936WAT     H121050   9.609   3.857   7.676
 6936WAT     H221051   9.467   3.907   7.737
 6937WAT      O21052   0.864   6.710   3.353
 6937WAT     H121053   0.940   6.646   3.336
 6937WAT     H221054   0.900   6.796   3.390
 6938WAT      O21055   2.223   6.832   8.674
 6938WAT     H121056   2.128   6.863   8.670
 6938WAT     H221057   2.285   6.907   8.651
 6939WAT      O21058   1.802   6.198   7.230
 6939WAT     H121059   1.779   6.243   7.317
 6939WAT     H221060   1.718   6.180   7.179
 6940WAT      O21061   8.846   6.563   5.481
 6940WAT     H121062   8.756   6.560   5.439
 6940WAT     H221063   8.866   6.474   5.523
 6941WAT      O21064   4.857   0.600   2.179
 6941WAT     H121065   4.812   0.689   2.169
 6941WAT     H221066   4.868   0.579   2.276
 6942WAT      O21067   0.917   7.400   0.318
 6942WAT     H121068   0.995   7.442   0.273
 6942WAT     H221069   0.840   7.464   0.319
 6943WAT      O21070   9.001   4.394   1.064
 6943WAT     H121071   8.922   4.446   1.031
 6943WAT     H221072   9.001   4.392   1.164
 6944WAT      O21073   0.902   5.760   6.075
 6944WAT     H121074   0.854   5.677   6.104
 6944WAT     H221075   0.957   5.740   5.994
 6945WAT      O21076   5.344   2.001   0.289
 6945WAT     H121077   5.410   1.952   0.231
 6945WAT     H221078   5.325   2.091   0.249
 6946WAT      O21079   7.088   6.108   9.305
 6946WAT     H121080   7.188   6.097   9.307
 6946WAT     H221081   7.049   6.071   9.389
 6947WAT      O21082   3.060   6.343   2.529
 6947WAT     H121083   2.980   6.325   2.587
 6947WAT     H221084   3.063   6.439   2.504
 6948WAT      O21085   6.769   4.800   3.846
 6948WAT     H121086   6.682   4.848   3.829
 6948WAT     H221087   6.788   4.739   3.768
 6949WAT      O21088   3.275   1.762   1.794
 6949WAT     H121089   3.276   1.662   1.796
 6949WAT     H221090   3.284   1.794   1.700
 6950WAT      O21091   8.311   4.010   9.331
 6950WAT     H121092   8.257   3.925   9.326
 6950WAT     H221093   8.366   4.018   9.247
 6951WAT      O21094   1.315   8.240   7.835
 6951WAT     H121095   1.370   8.158   7.819
 6951WAT     H221096   1.310   8.293   7.751
 6952WAT      O21097   9.399   2.698   0.044
 6952WAT     H121098   9.450   2.733  -0.034
 6952WAT     H221099   9.360   2.775   0.095
 6953WAT      O21100   2.725   7.651   3.116
 6953WAT     H121101   2.788   7.718   3.154
 6953WAT     H221102   2.662   7.696   3.053
 6954WAT      O21103   2.046   7.983   3.287
 6954WAT     H121104   2.099   8.067   3.276
 6954WAT     H221105   1.974   7.980   3.218
 6955WAT      O21106   9.346   5.671   4.988
 6955WAT     H121107   9.341   5.770   4.989
 6955WAT     H221108   9.296   5.635   4.910
 6956WAT      O21109   8.155   9.310   5.839
 6956WAT     H121110   8.154   9.210   5.843
 6956WAT     H221111   8.218   9.340   5.768
 6957WAT      O21112   6.957   7.577   0.861
 6957WAT     H121113   6.937   7.479   0.851
 6957WAT     H221114   6.873   7.630   0.852
 6958WAT      O21115   9.341   5.120   0.343
 6958WAT     H121116   9.288   5.099   0.261
 6958WAT     H221117   9.437   5.135   0.318
 6959WAT      O21118   1.402   6.447   7.162
 6959WAT     H121119   1.361   6.371   7.111
 6959WAT     H221120   1.419   6.418   7.256
 6960WAT      O21121   3.917   3.766   2.402
 6960WAT     H121122   3.926   3.863   2.424
 6960WAT     H221123   4.001   3.718   2.428
 6961WAT      O21124   0.729   4.954   1.249
 6961WAT     H121125   0.664   5.027   1.229
 6961WAT     H221126   0.779   4.975   1.333
 6962WAT      O21127   9.736   0.327   4.324
 6962WAT     H121128   9.782   0.411   4.297
 6962WAT     H221129   9.661   0.348   4.387
 6963WAT      O21130   0.294   8.682   9.491
 6963WAT     H121131   0.210   8.677   9.545
 6963WAT     H221132   0.372   8.661   9.549
 6964WAT      O21133   6.010   0.777   1.403
 6964WAT     H121134   6.047   0.856   1.452
 6964WAT     H221135   5.910   0.785   1.397
 6965WAT      O21136   4.423   4.182   1.346
 6965WAT     H121137   4.419   4.082   1.339
 6965WAT     H221138   4.504   4.216   1.297
 6966WAT      O21139   1.729   8.223   5.544
 6966WAT     H121140   1.677   8.256   5.464
 6966WAT     H221141   1.752   8.301   5.602
 6967WAT      O21142   5.274   1.417   6.707
 6967WAT     H121143   5.192   1.408   6.651
 6967WAT     H221144   5.353   1.384   6.657
 6968WAT      O21145   8.669   9.424   1.485
 6968WAT     H121146   8.738   9.490   1.458
 6968WAT     H221147   8.581   9.450   1.446
 6969WAT      O21148   6.556   6.250   5.516
 6969WAT     H121149   6.593   6.169   5.561
 6969WAT     H221150   6.514   6.310   5.585
 6970WAT      O21151   5.317   1.691   2.107
 6970WAT     H121152   5.303   1.597   2.075
 6970WAT     H221153   5.286   1.755   2.037
 6971WAT      O21154   7.039   8.005   6.183
 6971WAT     H121155   6.961   7.951   6.151
 6971WAT     H221156   7.040   8.005   6.283
 6972WAT      O21157   5.827   0.644   9.349
 6972WAT     H121158   5.842   0.743   9.347
 6972WAT     H221159   5.800   0.613   9.258
 6973WAT      O21160   0.517   9.237   2.483
 6973WAT     H121161   0.503   9.241   2.582
 6973WAT     H221162   0.526   9.142   2.454
 6974WAT      O21163   0.166   8.459   1.435
 6974WAT     H121164   0.223   8.382   1.407
 6974WAT     H221165   0.206   8.545   1.403
 6975WAT      O21166   2.054   9.806   0.063
 6975WAT     H121167   2.147   9.782   0.035
 6975WAT     H221168   1.988   9.750   0.013
 6976WAT      O21169   1.245   6.895   0.029
 6976WAT     H121170   1.198   6.981   0.045
 6976WAT     H221171   1.185   6.819   0.054
 6977WAT      O21172   8.928   6.018   5.039
 6977WAT     H121173   9.016   6.006   4.993
 6977WAT     H221174   8.854   6.004   4.973
 6978WAT      O21175   7.416   4.707   5.563
 6978WAT     H121176   7.444   4.640   5.494
 6978WAT     H221177   7.455   4.681   5.652
 6979WAT      O21178   6.799   0.868   1.313
 6979WAT     H121179   6.897   0.889   1.311
 6979WAT     H221180   6.786   0.771   1.291
 6980WAT      O21181   2.750   6.220   5.280
 6980WAT     H121182   2.712   6.139   5.325
 6980WAT     H221183   2.747   6.207   5.180
 6981WAT      O21184   4.455   0.031   3.372
 6981WAT     H121185   4.362   0.064   3.391
 6981WAT     H221186   4.505   0.021   3.458
 6982WAT      O21187   4.285   5.884   8.834
 6982WAT     H121188   4.237   5.956   8.884
 6982WAT     H221189   4.326   5.922   8.751
 6983WAT      O21190   6.802   1.410   7.502
 6983WAT     H121191   6.793   1.396   7.601
 6983WAT     H221192   6.722   1.372   7.455
 6984WAT      O21193   6.777   5.651   2.403
 6984WAT     H121194   6.757   5.556   2.424
 6984WAT     H221195   6.875   5.662   2.387
 6985WAT      O21196   2.592   6.708   1.004
 6985WAT     H121197   2.576   6.613   0.979
 6985WAT     H221198   2.540   6.731   1.086
 6986WAT      O21199   1.099   4.226   0.114
 6986WAT     H121200   1.133   4.163   0.045
 6986WAT     H221201   1.007   4.258   0.088
 6987WAT      O21202   8.155   3.199   7.284
 6987WAT     H121203   8.146   3.104   7.314
 6987WAT     H221204   8.181   3.256   7.362
 6988WAT      O21205   0.480   1.388   5.761
 6988WAT     H121206   0.394   1.420   5.722
 6988WAT     H221207   0.540   1.356   5.688
 6989WAT      O21208   8.459   8.356   8.332
 6989WAT     H121209   8.375   8.304   8.316
 6989WAT     H221210   8.436   8.451   8.353
 6990WAT      O21211   2.050   3.740   4.692
 6990WAT     H121212   2.112   3.803   4.645
 6990WAT     H221213   1.992   3.791   4.756
 6991WAT      O21214   5.648   3.967   0.625
 6991WAT     H121215   5.607   4.034   0.563
 6991WAT     H221216   5.724   3.921   0.579
 6992WAT      O21217   9.740   3.891   2.396
 6992WAT     H121218   9.838   3.869   2.395
 6992WAT     H221219   9.689   3.818   2.350
 6993WAT      O21220   0.216   5.565   2.485
 6993WAT     H121221   0.122   5.599   2.481
 6993WAT     H221222   0.227   5.489   2.421
 6994WAT      O21223   9.779   9.688   1.086
 6994WAT     H121224   9.756   9.762   1.149
 6994WAT     H221225   9.807   9.727   0.998
 6995WAT      O21226   1.763   0.487   4.964
 6995WAT     H121227   1.665   0.498   4.977
 6995WAT     H221228   1.810   0.571   4.994
 6996WAT      O21229   6.679   8.966   1.569
 6996WAT     H121230   6.629   8.906   1.507
 6996WAT     H221231   6.628   8.976   1.654
 6997WAT      O21232   0.381   6.837   9.738
 6997WAT     H121233   0.391   6.936   9.746
 6997WAT     H221234   0.398   6.809   9.643
 6998WAT      O21235   6.078   4.807   1.450
 6998WAT     H121236   6.071   4.712   1.420
 6998WAT     H221237   6.172   4.838   1.440
 6999WAT      O21238   1.890   3.078   5.889
 6999WAT     H121239   1.906   3.023   5.971
 6999WAT     H221240   1.818   3.035   5.834
 7000WAT      O21241   7.541   8.774   8.777
 7000WAT     H121242   7.573   8.694   8.828
 7000WAT     H221243   7.611   8.802   8.712
 7001WAT      O21244   5.345   6.785   8.936
 7001WAT     H121245   5.276   6.805   9.005
 7001WAT     H221246   5.305   6.726   8.866
 7002WAT      O21247   2.917   6.824   5.138
 7002WAT     H121248   2.848   6.822   5.066
 7002WAT     H221249   2.887   6.767   5.215
 7003WAT      O21250   7.416   0.121   1.492
 7003WAT     H121251   7.510   0.131   1.459
 7003WAT     H221252   7.394   0.197   1.553
 7004WAT      O21253   6.471   5.329   6.475
 7004WAT     H121254   6.382   5.301   6.511
 7004WAT     H221255   6.542   5.266   6.508
 7005WAT      O21256   3.181   0.364   7.905
 7005WAT     H121257   3.149   0.389   7.813
 7005WAT     H221258   3.150   0.272   7.927
 7006WAT      O21259   6.770   9.705   5.565
 7006WAT     H121260   6.802   9.661   5.649
 7006WAT     H221261   6.849   9.738   5.512
 7007WAT      O21262   0.254   9.001   2.922
 7007WAT     H121263   0.309   9.058   2.860
 7007WAT     H221264   0.299   8.996   3.011
 7008WAT      O21265   3.231   2.987   7.435
 7008WAT     H121266   3.314   2.993   7.380
 7008WAT     H221267   3.222   3.069   7.492
 7009WAT      O21268   4.409   3.752   6.134
 7009WAT     H121269   4.393   3.769   6.037
 7009WAT     H221270   4.504   3.773   6.157
 7010WAT      O21271   5.264   8.090   2.316
 7010WAT     H121272   5.361   8.066   2.316
 7010WAT     H221273   5.209   8.008   2.330
 7011WAT      O21274   8.881   7.711   3.501
 7011WAT     H121275   8.836   7.631   3.541
 7011WAT     H221276   8.980   7.698   3.503
 7012WAT      O21277   5.169   9.741   0.962
 7012WAT     H121278   5.254   9.754   1.012
 7012WAT     H221279   5.149   9.824   0.909
 7013WAT      O21280   4.430   1.806   2.076
 7013WAT     H121281   4.512   1.840   2.030
 7013WAT     H221282   4.423   1.847   2.167
 7014WAT      O21283   9.132   6.731   0.615
 7014WAT     H121284   9.052   6.703   0.560
 7014WAT     H221285   9.194   6.653   0.625
 7015WAT      O21286   8.649   9.065   1.782
 7015WAT     H121287   8.726   9.029   1.729
 7015WAT     H221288   8.572   9.002   1.775
 7016WAT      O21289   8.929   3.550   1.868
 7016WAT     H121290   8.866   3.490   1.818
 7016WAT     H221291   9.007   3.572   1.809
 7017WAT      O21292   2.856   5.290   9.529
 7017WAT     H121293   2.838   5.370   9.472
 7017WAT     H221294   2.811   5.302   9.618
 7018WAT      O21295   4.923   3.478   7.526
 7018WAT     H121296   4.890   3.391   7.490
 7018WAT     H221297   4.918   3.478   7.625
 7019WAT      O21298   6.577   3.888   1.845
 7019WAT     H121299   6.588   3.893   1.746
 7019WAT     H221300   6.568   3.981   1.882
 7020WAT      O21301   0.416   7.780   9.174
 7020WAT     H121302   0.464   7.790   9.261
 7020WAT     H221303   0.467   7.718   9.115
 7021WAT      O21304   6.179   5.650   3.522
 7021WAT     H121305   6.134   5.617   3.439
 7021WAT     H221306   6.227   5.574   3.567
 7022WAT      O21307   6.429   1.890   5.883
 7022WAT     H121308   6.372   1.936   5.951
 7022WAT     H221309   6.418   1.791   5.892
 7023WAT      O21310   9.043   6.036   6.063
 7023WAT     H121311   9.097   6.080   5.991
 7023WAT     H221312   9.030   6.099   6.139
 7024WAT      O21313   1.892   0.217   6.408
 7024WAT     H121314   1.929   0.201   6.316
 7024WAT     H221315   1.850   0.308   6.411
 7025WAT      O21316   5.035   0.076   8.355
 7025WAT     H121317   5.036   0.176   8.362
 7025WAT     H221318   4.974   0.039   8.425
 7026WAT      O21319   7.503   8.566   8.148
 7026WAT     H121320   7.583   8.580   8.090
 7026WAT     H221321   7.480   8.469   8.149
 7027WAT      O21322   4.247   6.657   5.532
 7027WAT     H121323   4.307   6.577   5.531
 7027WAT     H221324   4.179   6.648   5.460
 7028WAT      O21325   4.303   6.561   5.147
 7028WAT     H121326   4.284   6.479   5.092
 7028WAT     H221327   4.396   6.555   5.184
 7029WAT      O21328   7.515   3.514   4.779
 7029WAT     H121329   7.539   3.581   4.850
 7029WAT     H221330   7.506   3.561   4.691
 7030WAT      O21331   2.408   0.822   8.086
 7030WAT     H121332   2.437   0.788   7.997
 7030WAT     H221333   2.453   0.909   8.106
 7031WAT      O21334   1.934   7.784   3.440
 7031WAT     H121335   1.969   7.691   3.427
 7031WAT     H221336   1.978   7.846   3.375
 7032WAT      O21337   3.744   4.496   8.394
 7032WAT     H121338   3.785   4.438   8.325
 7032WAT     H221339   3.786   4.587   8.391
 7033WAT      O21340   3.762   8.600   6.367
 7033WAT     H121341   3.775   8.695   6.395
 7033WAT     H221342   3.777   8.540   6.445
 7034WAT      O21343   7.357   6.762   0.186
 7034WAT     H121344   7.299   6.836   0.150
 7034WAT     H221345   7.385   6.784   0.280
 7035WAT      O21346   0.270   4.296   9.493
 7035WAT     H121347   0.298   4.391   9.508
 7035WAT     H221348   0.187   4.294   9.437
 7036WAT      O21349   2.658   8.626   5.642
 7036WAT     H121350   2.716   8.551   5.609
 7036WAT     H221351   2.703   8.671   5.719
 7037WAT      O21352   0.168   4.932   6.256
 7037WAT     H121353   0.212   4.923   6.166
 7037WAT     H221354   0.072   4.957   6.243
 7038WAT      O21355   3.388   7.423   3.415
 7038WAT     H121356   3.412   7.478   3.335
 7038WAT     H221357   3.330   7.477   3.476
 7039WAT      O21358   3.042   0.966   7.483
 7039WAT     H121359   3.040   1.008   7.574
 7039WAT     H221360   2.991   0.880   7.485
 7040WAT      O21361   4.864   9.020   9.515
 7040WAT     H121362   4.964   9.019   9.521
 7040WAT     H221363   4.834   8.960   9.441
 7041WAT      O21364   3.685   3.082   8.800
 7041WAT     H121365   3.671   3.172   8.758
 7041WAT     H221366   3.599   3.031   8.800
 7042WAT      O21367   2.035   8.584   7.263
 7042WAT     H121368   2.077   8.510   7.211
 7042WAT     H221369   2.032   8.667   7.206
 7043WAT      O21370   3.905   0.105   0.138
 7043WAT     H121371   3.914   0.062   0.228
 7043WAT     H221372   3.840   0.052   0.083
 7044WAT      O21373   3.591   6.372   0.951
 7044WAT     H121374   3.528   6.386   1.028
 7044WAT     H221375   3.685   6.383   0.982
 7045WAT      O21376   2.763   6.940   4.938
 7045WAT     H121377   2.744   7.014   4.874
 7045WAT     H221378   2.688   6.874   4.936
 7046WAT      O21379   5.925   4.151   7.218
 7046WAT     H121380   5.885   4.209   7.146
 7046WAT     H221381   5.913   4.195   7.307
 7047WAT      O21382   8.952   3.107   6.719
 7047WAT     H121383   8.857   3.110   6.689
 7047WAT     H221384   9.009   3.065   6.649
 7048WAT      O21385   0.661   7.528   6.558
 7048WAT     H121386   0.567   7.492   6.559
 7048WAT     H221387   0.687   7.556   6.650
 7049WAT      O21388   5.771   9.133   9.660
 7049WAT     H121389   5.673   9.115   9.650
 7049WAT     H221390   5.785   9.227   9.692
 7050WAT      O21391   5.668   2.922   5.889
 7050WAT     H121392   5.718   2.921   5.975
 7050WAT     H221393   5.602   2.848   5.888
 7051WAT      O21394   6.651   3.341   9.164
 7051WAT     H121395   6.686   3.368   9.074
 7051WAT     H221396   6.581   3.270   9.152
 7052WAT      O21397   6.438   8.732   5.411
 7052WAT     H121398   6.527   8.720   5.456
 7052WAT     H221399   6.428   8.661   5.340
 7053WAT      O21400   0.907   7.173   1.627
 7053WAT     H121401   0.856   7.088   1.636
 7053WAT     H221402   0.948   7.178   1.536
 7054WAT      O21403   5.444   7.044   4.040
 7054WAT     H121404   5.477   7.104   4.114
 7054WAT     H221405   5.495   7.064   3.956
 7055WAT      O21406   5.009   0.389   9.430
 7055WAT     H121407   5.093   0.414   9.478
 7055WAT     H221408   4.959   0.472   9.405
 7056WAT      O21409   3.630   9.571   9.189
 7056WAT     H121410   3.630   9.474   9.167
 7056WAT     H221411   3.539   9.609   9.171
 7057WAT      O21412   1.126   6.225   7.405
 7057WAT     H121413   1.155   6.224   7.500
 7057WAT     H221414   1.093   6.134   7.379
 7058WAT      O21415   3.771   5.085   7.419
 7058WAT     H121416   3.737   5.100   7.326
 7058WAT     H221417   3.702   5.113   7.485
 7059WAT      O21418   1.692   9.321   9.093
 7059WAT     H121419   1.680   9.259   9.016
 7059WAT     H221420   1.779   9.370   9.084
 7060WAT      O21421   2.108   1.835   1.446
 7060WAT     H121422   2.195   1.788   1.433
 7060WAT     H221423   2.033   1.775   1.417
 7061WAT      O21424   1.360   8.972   7.004
 7061WAT     H121425   1.391   8.895   6.949
 7061WAT     H221426   1.370   8.949   7.101
 7062WAT      O21427   3.919   5.637   6.633
 7062WAT     H121428   3.841   5.697   6.651
 7062WAT     H221429   3.999   5.692   6.612
 7063WAT      O21430   5.775   6.793   1.425
 7063WAT     H121431   5.811   6.702   1.445
 7063WAT     H221432   5.815   6.860   1.488
 7064WAT      O21433   8.332   7.138   1.723
 7064WAT     H121434   8.404   7.175   1.664
 7064WAT     H221435   8.245   7.180   1.699
 7065WAT      O21436   8.443   3.508   8.660
 7065WAT     H121437   8.359   3.459   8.639
 7065WAT     H221438   8.521   3.445   8.653
 7066WAT      O21439   8.613   6.811   6.747
 7066WAT     H121440   8.712   6.796   6.742
 7066WAT     H221441   8.575   6.761   6.824
 7067WAT      O21442   8.078   1.950   0.121
 7067WAT     H121443   8.023   1.963   0.038
 7067WAT     H221444   8.057   2.023   0.186
 7068WAT      O21445   1.612   6.101   9.834
 7068WAT     H121446   1.544   6.029   9.818
 7068WAT     H221447   1.684   6.065   9.893
 7069WAT      O21448   7.030   7.401   6.184
 7069WAT     H121449   6.930   7.412   6.184
 7069WAT     H221450   7.059   7.362   6.097
 7070WAT      O21451   4.118   9.798   6.059
 7070WAT     H121452   4.077   9.880   6.020
 7070WAT     H221453   4.217   9.812   6.067
 7071WAT      O21454   5.126   3.955   0.114
 7071WAT     H121455   5.051   3.909   0.162
 7071WAT     H221456   5.168   4.023   0.175
 7072WAT      O21457   6.418   2.941   1.837
 7072WAT     H121458   6.353   2.934   1.912
 7072WAT     H221459   6.369   2.942   1.750
 7073WAT      O21460   9.795   5.115   0.635
 7073WAT     H121461   9.758   5.196   0.590
 7073WAT     H221462   9.732   5.086   0.707
 7074WAT      O21463   3.346   3.274   0.213
 7074WAT     H121464   3.290   3.231   0.284
 7074WAT     H221465   3.412   3.337   0.255
 7075WAT      O21466   0.384   1.952   1.101
 7075WAT     H121467   0.460   1.995   1.150
 7075WAT     H221468   0.414   1.925   1.010
 7076WAT      O21469   5.679   1.783   2.625
 7076WAT     H121470   5.709   1.751   2.535
 7076WAT     H221471   5.616   1.717   2.664
 7077WAT      O21472   7.385   0.400   7.002
 7077WAT     H121473   7.473   0.363   6.972
 7077WAT     H221474   7.376   0.390   7.101
 7078WAT      O21475   7.192   4.580   9.569
 7078WAT     H121476   7.092   4.579   9.564
 7078WAT     H221477   7.223   4.669   9.604
 7079WAT      O21478   5.216   8.172   1.135
 7079WAT     H121479   5.301   8.135   1.172
 7079WAT     H221480   5.221   8.177   1.035
 7080WAT      O21481   8.955   6.641   0.405
 7080WAT     H121482   8.960   6.546   0.374
 7080WAT     H221483   8.926   6.700   0.330
 7081WAT      O21484   5.617   1.925   5.370
 7081WAT     H121485   5.548   1.870   5.416
 7081WAT     H221486   5.576   1.971   5.291
 7082WAT      O21487   9.381   1.349   6.319
 7082WAT     H121488   9.433   1.394   6.392
 7082WAT     H221489   9.333   1.419   6.266
 7083WAT      O21490   2.706   0.095   5.903
 7083WAT     H121491   2.721   0.092   6.002
 7083WAT     H221492   2.676   0.186   5.876
 7084WAT      O21493   7.533   4.925   1.893
 7084WAT     H121494   7.484   4.902   1.977
 7084WAT     H221495   7.550   5.024   1.890
 7085WAT      O21496   4.440   0.713   0.859
 7085WAT     H121497   4.417   0.714   0.957
 7085WAT     H221498   4.356   0.705   0.805
 7086WAT      O21499   5.913   7.214   1.866
 7086WAT     H121500   5.920   7.305   1.907
 7086WAT     H221501   5.824   7.174   1.887
 7087WAT      O21502   1.348   6.290   8.624
 7087WAT     H121503   1.292   6.207   8.622
 7087WAT     H221504   1.418   6.282   8.695
 7088WAT      O21505   8.639   1.400   3.164
 7088WAT     H121506   8.614   1.410   3.260
 7088WAT     H221507   8.626   1.305   3.136
 7089WAT      O21508   5.507   7.791   2.602
 7089WAT     H121509   5.425   7.848   2.589
 7089WAT     H221510   5.501   7.742   2.689
 7090WAT      O21511   8.241   5.562   8.884
 7090WAT     H121512   8.273   5.655   8.867
 7090WAT     H221513   8.257   5.505   8.803
 7091WAT      O21514   8.722   0.337   3.105
 7091WAT     H121515   8.801   0.317   3.161
 7091WAT     H221516   8.748   0.335   3.008
 7092WAT      O21517   8.243   6.780   2.175
 7092WAT     H121518   8.277   6.730   2.255
 7092WAT     H221519   8.230   6.876   2.199
 7093WAT      O21520   4.361   6.633   4.656
 7093WAT     H121521   4.459   6.622   4.675
 7093WAT     H221522   4.341   6.598   4.565
 7094WAT      O21523   7.983   5.749   8.087
 7094WAT     H121524   7.949   5.829   8.136
 7094WAT     H221525   7.910   5.680   8.082
 7095WAT      O21526   8.060   0.221   7.438
 7095WAT     H121527   8.052   0.266   7.526
 7095WAT     H221528   8.112   0.279   7.375
 7096WAT      O21529   8.280   1.507   0.200
 7096WAT     H121530   8.221   1.557   0.263
 7096WAT     H221531   8.291   1.413   0.232
 7097WAT      O21532   1.916   1.983   9.367
 7097WAT     H121533   1.874   2.016   9.451
 7097WAT     H221534   1.943   1.887   9.378
 7098WAT      O21535   9.506   2.672   0.849
 7098WAT     H121536   9.533   2.629   0.763
 7098WAT     H221537   9.587   2.684   0.907
 7099WAT      O21538   0.656   4.259   0.500
 7099WAT     H121539   0.722   4.295   0.435
 7099WAT     H221540   0.669   4.302   0.589
 7100WAT      O21541   7.902   6.425   5.930
 7100WAT     H121542   7.818   6.469   5.898
 7100WAT     H221543   7.963   6.410   5.852
 7101WAT      O21544   2.350   8.251   3.765
 7101WAT     H121545   2.320   8.343   3.788
 7101WAT     H221546   2.275   8.186   3.780
 7102WAT      O21547   5.034   2.335   6.388
 7102WAT     H121548   5.049   2.291   6.477
 7102WAT     H221549   4.997   2.427   6.403
 7103WAT      O21550   2.402   8.556   8.654
 7103WAT     H121551   2.323   8.613   8.633
 7103WAT     H221552   2.485   8.609   8.644
 7104WAT      O21553   1.622   4.216   1.556
 7104WAT     H121554   1.540   4.209   1.613
 7104WAT     H221555   1.639   4.128   1.511
 7105WAT      O21556   7.138   3.863   3.024
 7105WAT     H121557   7.238   3.857   3.015
 7105WAT     H221558   7.097   3.857   2.933
 7106WAT      O21559   4.904   3.637   1.027
 7106WAT     H121560   4.901   3.692   1.110
 7106WAT     H221561   4.992   3.591   1.020
 7107WAT      O21562   5.537   2.978   2.075
 7107WAT     H121563   5.614   2.979   2.010
 7107WAT     H221564   5.473   3.051   2.051
 7108WAT      O21565   7.633   6.992   5.420
 7108WAT     H121566   7.581   6.934   5.358
 7108WAT     H221567   7.730   6.988   5.395
 7109WAT      O21568   7.934   0.265   5.990
 7109WAT     H121569   7.913   0.306   6.078
 7109WAT     H221570   8.016   0.208   5.998
 7110WAT      O21571   6.199   7.274   0.174
 7110WAT     H121572   6.211   7.298   0.077
 7110WAT     H221573   6.129   7.333   0.214
 7111WAT      O21574   7.310   0.529   6.219
 7111WAT     H121575   7.266   0.514   6.308
 7111WAT     H221576   7.403   0.561   6.233
 7112WAT      O21577   3.941   6.033   0.180
 7112WAT     H121578   4.036   6.063   0.183
 7112WAT     H221579   3.911   6.007   0.272
 7113WAT      O21580   1.207   8.890   4.079
 7113WAT     H121581   1.129   8.861   4.133
 7113WAT     H221582   1.215   8.989   4.082
 7114WAT      O21583   9.758   8.021   0.412
 7114WAT     H121584   9.723   7.946   0.356
 7114WAT     H221585   9.858   8.023   0.407
 7115WAT      O21586   9.213   3.231   8.496
 7115WAT     H121587   9.188   3.226   8.400
 7115WAT     H221588   9.268   3.151   8.521
 7116WAT      O21589   1.939   0.135   5.260
 7116WAT     H121590   1.885   0.163   5.181
 7116WAT     H221591   2.001   0.209   5.286
 7117WAT      O21592   8.186   3.128   6.218
 7117WAT     H121593   8.238   3.067   6.158
 7117WAT     H221594   8.180   3.219   6.176
 7118WAT      O21595   7.409   5.571   5.705
 7118WAT     H121596   7.426   5.655   5.654
 7118WAT     H221597   7.310   5.558   5.715
 7119WAT      O21598   8.733   3.118   1.497
 7119WAT     H121599   8.721   3.187   1.568
 7119WAT     H221600   8.796   3.047   1.530
 7120WAT      O21601   7.577   5.071   1.474
 7120WAT     H121602   7.592   5.161   1.516
 7120WAT     H221603   7.643   5.006   1.510
 7121WAT      O21604   8.301   1.892   9.227
 7121WAT     H121605   8.214   1.851   9.252
 7121WAT     H221606   8.336   1.849   9.143
 7122WAT      O21607   1.327   7.036   2.431
 7122WAT     H121608   1.266   6.998   2.500
 7122WAT     H221609   1.287   7.024   2.340
 7123WAT      O21610   8.581   8.080   4.222
 7123WAT     H121611   8.502   8.096   4.281
 7123WAT     H221612   8.584   8.149   4.150
 7124WAT      O21613   3.438   4.686   4.268
 7124WAT     H121614   3.422   4.774   4.223
 7124WAT     H221615   3.374   4.618   4.231
 7125WAT      O21616   7.847   7.942   9.563
 7125WAT     H121617   7.852   7.933   9.662
 7125WAT     H221618   7.939   7.940   9.524
 7126WAT      O21619   8.763   1.904   1.918
 7126WAT     H121620   8.817   1.957   1.983
 7126WAT     H221621   8.719   1.828   1.965
 7127WAT      O21622   3.493   3.080   6.845
 7127WAT     H121623   3.529   3.160   6.797
 7127WAT     H221624   3.552   3.002   6.828
 7128WAT      O21625   1.586   6.864   0.654
 7128WAT     H121626   1.615   6.905   0.568
 7128WAT     H221627   1.633   6.777   0.667
 7129WAT      O21628   2.961   0.724   1.426
 7129WAT     H121629   3.022   0.796   1.392
 7129WAT     H221630   2.972   0.642   1.369
 7130WAT      O21631   1.490   1.253   8.541
 7130WAT     H121632   1.394   1.228   8.523
 7130WAT     H221633   1.534   1.278   8.455
 7131WAT      O21634   9.856   6.785   7.025
 7131WAT     H121635   9.894   6.836   7.102
 7131WAT     H221636   9.865   6.687   7.041
 7132WAT      O21637   6.207   7.761   5.167
 7132WAT     H121638   6.132   7.796   5.224
 7132WAT     H221639   6.285   7.739   5.225
 7133WAT      O21640   7.189   5.152   6.388
 7133WAT     H121641   7.098   5.134   6.424
 7133WAT     H221642   7.250   5.077   6.413
 7134WAT      O21643   6.461   3.440   4.691
 7134WAT     H121644   6.422   3.516   4.744
 7134WAT     H221645   6.437   3.353   4.735
 7135WAT      O21646   2.299   9.450   8.990
 7135WAT     H121647   2.275   9.373   9.049
 7135WAT     H221648   2.324   9.529   9.046
 7136WAT      O21649   4.883   0.620   9.379
 7136WAT     H121650   4.865   0.616   9.281
 7136WAT     H221651   4.887   0.716   9.408
 7137WAT      O21652   5.676   7.211   0.782
 7137WAT     H121653   5.676   7.219   0.882
 7137WAT     H221654   5.617   7.136   0.755
 7138WAT      O21655   8.277   7.914   8.850
 7138WAT     H121656   8.252   7.996   8.901
 7138WAT     H221657   8.355   7.870   8.894
 7139WAT      O21658   3.232   6.905   5.171
 7139WAT     H121659   3.164   6.944   5.109
 7139WAT     H221660   3.246   6.966   5.249
 7140WAT      O21661   0.328   4.259   4.619
 7140WAT     H121662   0.403   4.323   4.602
 7140WAT     H221663   0.241   4.306   4.608
 7141WAT      O21664   3.715   2.999   4.525
 7141WAT     H121665   3.780   2.924   4.538
 7141WAT     H221666   3.702   3.016   4.428
 7142WAT      O21667   5.098   9.479   1.154
 7142WAT     H121668   5.145   9.438   1.233
 7142WAT     H221669   5.150   9.558   1.122
 7143WAT      O21670   3.384   9.294   0.386
 7143WAT     H121671   3.468   9.266   0.432
 7143WAT     H221672   3.350   9.379   0.427
 7144WAT      O21673   5.227   8.264   0.519
 7144WAT     H121674   5.312   8.233   0.563
 7144WAT     H221675   5.175   8.319   0.584
 7145WAT      O21676   6.863   4.397   2.856
 7145WAT     H121677   6.813   4.482   2.872
 7145WAT     H221678   6.926   4.409   2.779
 7146WAT      O21679   9.802   3.631   9.021
 7146WAT     H121680   9.859   3.555   9.053
 7146WAT     H221681   9.784   3.694   9.097
 7147WAT      O21682   0.397   8.651   5.383
 7147WAT     H121683   0.358   8.740   5.357
 7147WAT     H221684   0.457   8.663   5.461
 7148WAT      O21685   9.739   2.303   1.786
 7148WAT     H121686   9.790   2.375   1.833
 7148WAT     H221687   9.709   2.234   1.853
 7149WAT      O21688   3.611   8.874   0.522
 7149WAT     H121689   3.696   8.842   0.564
 7149WAT     H221690   3.533   8.831   0.568
 7150WAT      O21691   0.840   5.325   7.970
 7150WAT     H121692   0.877   5.261   8.038
 7150WAT     H221693   0.798   5.403   8.016
 7151WAT      O21694   3.604   0.772   5.343
 7151WAT     H121695   3.544   0.693   5.324
 7151WAT     H221696   3.628   0.772   5.440
 7152WAT      O21697   1.956   7.766   5.988
 7152WAT     H121698   2.012   7.834   6.037
 7152WAT     H221699   1.930   7.693   6.051
 7153WAT      O21700   6.597   4.129   5.611
 7153WAT     H121701   6.502   4.104   5.630
 7153WAT     H221702   6.654   4.107   5.690
 7154WAT      O21703   7.207   2.097   5.481
 7154WAT     H121704   7.201   2.145   5.394
 7154WAT     H221705   7.135   2.028   5.486
 7155WAT      O21706   2.379   6.644   3.445
 7155WAT     H121707   2.310   6.642   3.373
 7155WAT     H221708   2.468   6.619   3.406
 7156WAT      O21709   7.439   1.234   8.894
 7156WAT     H121710   7.524   1.283   8.873
 7156WAT     H221711   7.440   1.145   8.848
 7157WAT      O21712   2.075   0.417   1.000
 7157WAT     H121713   2.012   0.460   1.065
 7157WAT     H221714   2.050   0.443   0.907
 7158WAT      O21715   5.579   6.252   1.780
 7158WAT     H121716   5.659   6.310   1.764
 7158WAT     H221717   5.582   6.174   1.717
 7159WAT      O21718   6.296   9.604   3.790
 7159WAT     H121719   6.392   9.580   3.806
 7159WAT     H221720   6.286   9.703   3.785
 7160WAT      O21721   3.014   1.663   6.961
 7160WAT     H121722   2.941   1.621   6.907
 7160WAT     H221723   3.081   1.593   6.985
 7161WAT      O21724   6.096   4.595   2.488
 7161WAT     H121725   6.159   4.661   2.530
 7161WAT     H221726   6.007   4.639   2.475
 7162WAT      O21727   5.743   8.767   8.966
 7162WAT     H121728   5.675   8.714   8.914
 7162WAT     H221729   5.799   8.819   8.902
 7163WAT      O21730   3.825   7.943   2.130
 7163WAT     H121731   3.917   7.974   2.107
 7163WAT     H221732   3.813   7.945   2.229
 7164WAT      O21733   4.249   9.251   8.715
 7164WAT     H121734   4.331   9.307   8.712
 7164WAT     H221735   4.199   9.261   8.628
 7165WAT      O21736   0.942   2.720   2.757
 7165WAT     H121737   0.843   2.708   2.763
 7165WAT     H221738   0.983   2.697   2.846
 7166WAT      O21739   9.262   8.348   2.680
 7166WAT     H121740   9.237   8.258   2.645
 7166WAT     H221741   9.275   8.411   2.602
 7167WAT      O21742   0.551   7.070   0.316
 7167WAT     H121743   0.631   7.105   0.267
 7167WAT     H221744   0.493   7.147   0.342
 7168WAT      O21745   4.748   6.611   3.096
 7168WAT     H121746   4.755   6.665   3.180
 7168WAT     H221747   4.743   6.672   3.017
 7169WAT      O21748   6.513   4.363   8.837
 7169WAT     H121749   6.506   4.265   8.819
 7169WAT     H221750   6.571   4.405   8.767
 7170WAT      O21751   9.771   8.535   6.894
 7170WAT     H121752   9.803   8.584   6.813
 7170WAT     H221753   9.787   8.437   6.882
 7171WAT      O21754   0.974   3.536   4.921
 7171WAT     H121755   0.912   3.507   4.848
 7171WAT     H221756   0.926   3.600   4.981
 7172WAT      O21757   2.250   0.508   3.275
 7172WAT     H121758   2.308   0.465   3.205
 7172WAT     H221759   2.235   0.604   3.251
 7173WAT      O21760   1.793   8.457   0.645
 7173WAT     H121761   1.873   8.451   0.586
 7173WAT     H221762   1.771   8.367   0.681
 7174WAT      O21763   0.031   9.673   0.490
 7174WAT     H121764  -0.043   9.736   0.513
 7174WAT     H221765   0.030   9.596   0.553
 7175WAT      O21766   1.747   9.694   9.028
 7175WAT     H121767   1.802   9.709   8.946
 7175WAT     H221768   1.795   9.631   9.089
 7176WAT      O21769   8.091   4.470   9.077
 7176WAT     H121770   8.069   4.531   9.153
 7176WAT     H221771   8.160   4.512   9.018
 7177WAT      O21772   9.759   6.020   5.452
 7177WAT     H121773   9.727   5.929   5.425
 7177WAT     H221774   9.685   6.086   5.440
 7178WAT      O21775   3.740   2.293   8.289
 7178WAT     H121776   3.723   2.243   8.204
 7178WAT     H221777   3.837   2.317   8.295
 7179WAT      O21778   4.573   8.855   9.004
 7179WAT     H121779   4.544   8.818   9.092
 7179WAT     H221780   4.650   8.917   9.018
 7180WAT      O21781   0.869   6.363   3.539
 7180WAT     H121782   0.809   6.417   3.597
 7180WAT     H221783   0.822   6.281   3.509
 7181WAT      O21784   8.645   5.351   8.124
 7181WAT     H121785   8.740   5.320   8.127
 7181WAT     H221786   8.626   5.409   8.203
 7182WAT      O21787   8.924   2.960   6.442
 7182WAT     H121788   8.928   2.864   6.471
 7182WAT     H221789   9.017   2.997   6.438
 7183WAT      O21790   2.164   2.352   6.800
 7183WAT     H121791   2.121   2.367   6.889
 7183WAT     H221792   2.174   2.254   6.783
 7184WAT      O21793   8.915   3.716   5.518
 7184WAT     H121794   8.925   3.735   5.420
 7184WAT     H221795   8.998   3.745   5.566
 7185WAT      O21796   0.367   1.693   7.571
 7185WAT     H121797   0.319   1.623   7.624
 7185WAT     H221798   0.350   1.783   7.611
 7186WAT      O21799   5.799   1.803   4.490
 7186WAT     H121800   5.706   1.800   4.452
 7186WAT     H221801   5.860   1.844   4.422
 7187WAT      O21802   1.148   3.747   9.564
 7187WAT     H121803   1.052   3.768   9.583
 7187WAT     H221804   1.205   3.793   9.632
 7188WAT      O21805   1.341   5.737   7.677
 7188WAT     H121806   1.376   5.667   7.740
 7188WAT     H221807   1.257   5.776   7.713
 7189WAT      O21808   5.428   7.525   9.079
 7189WAT     H121809   5.341   7.530   9.127
 7189WAT     H221810   5.480   7.609   9.095
 7190WAT      O21811   7.150   4.793   5.657
 7190WAT     H121812   7.234   4.746   5.630
 7190WAT     H221813   7.170   4.889   5.676
 7191WAT      O21814   3.985   4.525   6.814
 7191WAT     H121815   4.011   4.467   6.737
 7191WAT     H221816   3.896   4.496   6.849
 7192WAT      O21817   4.653   7.819   6.069
 7192WAT     H121818   4.594   7.807   6.149
 7192WAT     H221819   4.727   7.751   6.071
 7193WAT      O21820   4.951   4.232   6.342
 7193WAT     H121821   4.946   4.227   6.441
 7193WAT     H221822   4.885   4.300   6.309
 7194WAT      O21823   4.106   0.864   2.242
 7194WAT     H121824   4.147   0.782   2.284
 7194WAT     H221825   4.159   0.945   2.269
 7195WAT      O21826   1.423   0.074   2.018
 7195WAT     H121827   1.446   0.002   2.084
 7195WAT     H221828   1.427   0.163   2.064
 7196WAT      O21829   4.773   2.034   5.637
 7196WAT     H121830   4.705   1.961   5.629
 7196WAT     H221831   4.745   2.112   5.581
 7197WAT      O21832   2.295   1.937   8.686
 7197WAT     H121833   2.380   1.906   8.729
 7197WAT     H221834   2.314   1.978   8.597
 7198WAT      O21835   3.985   6.173   0.881
 7198WAT     H121836   3.910   6.113   0.855
 7198WAT     H221837   4.062   6.160   0.818
 7199WAT      O21838   2.302   3.280   9.747
 7199WAT     H121839   2.340   3.331   9.824
 7199WAT     H221840   2.240   3.209   9.781
 7200WAT      O21841   2.068   2.002   4.242
 7200WAT     H121842   2.141   2.008   4.310
 7200WAT     H221843   2.018   1.916   4.254
 7201WAT      O21844   9.788   0.444   0.395
 7201WAT     H121845   9.714   0.511   0.390
 7201WAT     H221846   9.874   0.486   0.367
 7202WAT      O21847   2.889   0.883   2.529
 7202WAT     H121848   2.954   0.879   2.605
 7202WAT     H221849   2.837   0.968   2.534
 7203WAT      O21850   5.699   2.769   1.515
 7203WAT     H121851   5.788   2.787   1.556
 7203WAT     H221852   5.693   2.673   1.488
 7204WAT      O21853   2.791   2.985   9.203
 7204WAT     H121854   2.821   3.077   9.231
 7204WAT     H221855   2.730   2.948   9.273
 7205WAT      O21856   5.523   6.628   1.815
 7205WAT     H121857   5.512   6.674   1.903
 7205WAT     H221858   5.534   6.696   1.743
 7206WAT      O21859   4.596   2.395   1.723
 7206WAT     H121860   4.679   2.431   1.681
 7206WAT     H221861   4.542   2.471   1.760
 7207WAT      O21862   0.977   4.980   0.695
 7207WAT     H121863   1.034   4.947   0.621
 7207WAT     H221864   0.902   4.916   0.711
 7208WAT      O21865   8.892   1.265   9.385
 7208WAT     H121866   8.823   1.205   9.425
 7208WAT     H221867   8.909   1.342   9.447
 7209WAT      O21868   3.458   9.062   8.596
 7209WAT     H121869   3.466   9.142   8.655
 7209WAT     H221870   3.516   8.988   8.631
 7210WAT      O21871   8.325   4.523   8.425
 7210WAT     H121872   8.376   4.438   8.408
 7210WAT     H221873   8.322   4.541   8.523
 7211WAT      O21874   7.540   5.354   9.731
 7211WAT     H121875   7.455   5.321   9.772
 7211WAT     H221876   7.521   5.427   9.666
 7212WAT      O21877   8.634   4.169   6.532
 7212WAT     H121878   8.636   4.069   6.526
 7212WAT     H221879   8.719   4.202   6.573
 7213WAT      O21880   4.893   4.702   1.594
 7213WAT     H121881   4.953   4.766   1.641
 7213WAT     H221882   4.843   4.749   1.522
 7214WAT      O21883   8.237   2.250   7.490
 7214WAT     H121884   8.247   2.328   7.429
 7214WAT     H221885   8.140   2.225   7.497
 7215WAT      O21886   2.709   2.204   7.320
 7215WAT     H121887   2.628   2.250   7.357
 7215WAT     H221888   2.791   2.255   7.345
 7216WAT      O21889   1.358   3.976   2.987
 7216WAT     H121890   1.328   4.065   3.022
 7216WAT     H221891   1.278   3.920   2.967
 7217WAT      O21892   2.756   2.030   4.519
 7217WAT     H121893   2.767   1.939   4.559
 7217WAT     H221894   2.794   2.030   4.427
 7218WAT      O21895   6.951   8.298   2.092
 7218WAT     H121896   6.894   8.370   2.051
 7218WAT     H221897   6.907   8.209   2.079
 7219WAT      O21898   5.847   4.401   6.632
 7219WAT     H121899   5.916   4.436   6.696
 7219WAT     H221900   5.761   4.451   6.646
 7220WAT      O21901   1.561   7.424   6.568
 7220WAT     H121902   1.495   7.444   6.640
 7220WAT     H221903   1.591   7.510   6.526
 7221WAT      O21904   6.006   0.185   4.148
 7221WAT     H121905   6.084   0.131   4.116
 7221WAT     H221906   5.921   0.136   4.127
 7222WAT      O21907   8.093   0.782   7.183
 7222WAT     H121908   8.055   0.871   7.208
 7222WAT     H221909   8.168   0.760   7.245
 7223WAT      O21910   8.566   8.060   3.588
 7223WAT     H121911   8.662   8.046   3.564
 7223WAT     H221912   8.559   8.130   3.659
 7224WAT      O21913   2.168   3.647   2.528
 7224WAT     H121914   2.164   3.550   2.502
 7224WAT     H221915   2.106   3.699   2.469
 7225WAT      O21916   9.096   1.374   5.160
 7225WAT     H121917   9.141   1.462   5.150
 7225WAT     H221918   9.136   1.308   5.096
 7226WAT      O21919   6.431   4.239   4.680
 7226WAT     H121920   6.402   4.151   4.717
 7226WAT     H221921   6.396   4.313   4.737
 7227WAT      O21922   4.162   2.968   2.237
 7227WAT     H121923   4.188   2.872   2.241
 7227WAT     H221924   4.092   2.987   2.306
 7228WAT      O21925   1.715   3.481   7.554
 7228WAT     H121926   1.789   3.524   7.605
 7228WAT     H221927   1.627   3.515   7.589
 7229WAT      O21928   1.959   4.365   8.381
 7229WAT     H121929   1.992   4.438   8.441
 7229WAT     H221930   2.017   4.360   8.299
 7230WAT      O21931   1.730   0.593   8.257
 7230WAT     H121932   1.673   0.675   8.254
 7230WAT     H221933   1.677   0.515   8.291
 7231WAT      O21934   9.399   2.762   6.076
 7231WAT     H121935   9.407   2.859   6.052
 7231WAT     H221936   9.338   2.716   6.011
 7232WAT      O21937   8.493   7.606   9.670
 7232WAT     H121938   8.461   7.511   9.669
 7232WAT     H221939   8.580   7.613   9.622
 7233WAT      O21940   1.919   8.098   3.906
 7233WAT     H121941   1.888   8.031   3.973
 7233WAT     H221942   1.857   8.097   3.827
 7234WAT      O21943   6.225   3.901   1.793
 7234WAT     H121944   6.268   3.959   1.862
 7234WAT     H221945   6.194   3.816   1.837
 7235WAT      O21946   1.132   8.640   1.307
 7235WAT     H121947   1.181   8.559   1.273
 7235WAT     H221948   1.198   8.706   1.341
 7236WAT      O21949   7.159   7.682   2.274
 7236WAT     H121950   7.247   7.730   2.276
 7236WAT     H221951   7.151   7.625   2.356
 7237WAT      O21952   5.748   0.892   1.684
 7237WAT     H121953   5.826   0.858   1.736
 7237WAT     H221954   5.740   0.840   1.599
 7238WAT      O21955   4.987   9.145   4.258
 7238WAT     H121956   5.031   9.062   4.224
 7238WAT     H221957   5.044   9.224   4.236
 7239WAT      O21958   7.736   7.236   0.542
 7239WAT     H121959   7.740   7.144   0.503
 7239WAT     H221960   7.828   7.277   0.542
 7240WAT      O21961   4.115   3.995   6.927
 7240WAT     H121962   4.086   3.903   6.901
 7240WAT     H221963   4.199   3.990   6.980
 7241WAT      O21964   0.950   1.882   0.425
 7241WAT     H121965   0.985   1.850   0.513
 7241WAT     H221966   0.953   1.982   0.422
 7242WAT      O21967   7.691   8.129   6.666
 7242WAT     H121968   7.678   8.033   6.691
 7242WAT     H221969   7.629   8.186   6.719
 7243WAT      O21970   6.437   2.950   9.853
 7243WAT     H121971   6.413   2.917   9.944
 7243WAT     H221972   6.392   3.038   9.836
 7244WAT      O21973   1.508   3.003   3.986
 7244WAT     H121974   1.568   2.975   3.911
 7244WAT     H221975   1.431   2.940   3.991
 7245WAT      O21976   2.703   5.932   0.081
 7245WAT     H121977   2.770   5.930   0.156
 7245WAT     H221978   2.669   6.025   0.070
 7246WAT      O21979   9.618   6.659   5.782
 7246WAT     H121980   9.665   6.570   5.788
 7246WAT     H221981   9.643   6.714   5.861
 7247WAT      O21982   3.414   8.443   9.229
 7247WAT     H121983   3.465   8.456   9.313
 7247WAT     H221984   3.432   8.352   9.192
 7248WAT      O21985   8.793   8.505   8.895
 7248WAT     H121986   8.865   8.459   8.844
 7248WAT     H221987   8.713   8.446   8.902
 7249WAT      O21988   5.753   5.661   2.233
 7249WAT     H121989   5.702   5.697   2.310
 7249WAT     H221990   5.785   5.736   2.176
 7250WAT      O21991   4.201   7.475   7.404
 7250WAT     H121992   4.146   7.401   7.443
 7250WAT     H221993   4.222   7.454   7.309
 7251WAT      O21994   9.826   6.891   2.927
 7251WAT     H121995   9.854   6.987   2.938
 7251WAT     H221996   9.908   6.834   2.920
 7252WAT      O21997   2.864   7.606   7.347
 7252WAT     H121998   2.842   7.666   7.424
 7252WAT     H221999   2.963   7.608   7.330
 7253WAT      O22000   3.639   6.238   5.820
 7253WAT     H122001   3.613   6.280   5.907
 7253WAT     H222002   3.734   6.207   5.825
 7254WAT      O22003   6.314   2.901   3.916
 7254WAT     H122004   6.309   2.974   3.849
 7254WAT     H222005   6.388   2.921   3.981
 7255WAT      O22006   8.822   9.326   6.210
 7255WAT     H122007   8.788   9.387   6.281
 7255WAT     H222008   8.868   9.379   6.139
 7256WAT      O22009   7.222   8.184   3.384
 7256WAT     H122010   7.227   8.264   3.325
 7256WAT     H222011   7.175   8.110   3.336
 7257WAT      O22012   3.299   2.419   6.314
 7257WAT     H122013   3.277   2.516   6.325
 7257WAT     H222014   3.339   2.404   6.224
 7258WAT      O22015   6.513   2.705   4.858
 7258WAT     H122016   6.501   2.735   4.763
 7258WAT     H222017   6.502   2.605   4.863
 7259WAT      O22018   9.247   4.104   1.097
 7259WAT     H122019   9.299   4.100   1.182
 7259WAT     H222020   9.262   4.193   1.054
 7260WAT      O22021   4.592   9.151   5.522
 7260WAT     H122022   4.647   9.230   5.549
 7260WAT     H222023   4.587   9.086   5.597
 7261WAT      O22024   4.358   0.605   3.590
 7261WAT     H122025   4.328   0.661   3.513
 7261WAT     H222026   4.438   0.646   3.633
 7262WAT      O22027   5.178   7.389   0.050
 7262WAT     H122028   5.228   7.465   0.091
 7262WAT     H222029   5.210   7.302   0.088
 7263WAT      O22030   5.480   0.140   5.225
 7263WAT     H122031   5.420   0.203   5.274
 7263WAT     H222032   5.538   0.090   5.290
 7264WAT      O22033   0.079   3.065   5.036
 7264WAT     H122034   0.117   3.025   5.119
 7264WAT     H222035   0.061   2.992   4.970
 7265WAT      O22036   4.126   4.127   3.119
 7265WAT     H122037   4.224   4.147   3.127
 7265WAT     H222038   4.104   4.108   3.024
 7266WAT      O22039   2.567   9.193   1.896
 7266WAT     H122040   2.606   9.152   1.813
 7266WAT     H222041   2.640   9.234   1.950
 7267WAT      O22042   0.241   9.363   8.631
 7267WAT     H122043   0.273   9.349   8.537
 7267WAT     H222044   0.310   9.331   8.695
 7268WAT      O22045   1.664   1.604   3.640
 7268WAT     H122046   1.693   1.644   3.727
 7268WAT     H222047   1.744   1.590   3.581
 7269WAT      O22048   4.048   2.812   6.918
 7269WAT     H122049   4.129   2.787   6.866
 7269WAT     H222050   4.075   2.839   7.010
 7270WAT      O22051   1.839   7.887   4.041
 7270WAT     H122052   1.781   7.823   4.092
 7270WAT     H222053   1.880   7.840   3.963
 7271WAT      O22054   3.358   3.847   6.071
 7271WAT     H122055   3.354   3.864   6.170
 7271WAT     H222056   3.265   3.835   6.035
 7272WAT      O22057   6.430   3.960   8.197
 7272WAT     H122058   6.458   4.037   8.253
 7272WAT     H222059   6.508   3.927   8.143
 7273WAT      O22060   3.825   9.210   7.311
 7273WAT     H122061   3.805   9.161   7.396
 7273WAT     H222062   3.768   9.173   7.237
 7274WAT      O22063   4.576   1.259   0.857
 7274WAT     H122064   4.491   1.310   0.868
 7274WAT     H222065   4.579   1.218   0.765
 7275WAT      O22066   0.457   6.120   4.081
 7275WAT     H122067   0.431   6.050   4.015
 7275WAT     H222068   0.555   6.138   4.073
 7276WAT      O22069   3.188   0.580   1.176
 7276WAT     H122070   3.097   0.541   1.189
 7276WAT     H222071   3.203   0.595   1.078
 7277WAT      O22072   8.692   0.007   7.236
 7277WAT     H122073   8.706   0.008   7.335
 7277WAT     H222074   8.751  -0.063   7.195
 7278WAT      O22075   4.018   1.772   2.640
 7278WAT     H122076   3.964   1.844   2.683
 7278WAT     H222077   4.068   1.722   2.711
 7279WAT      O22078   2.868   3.954   0.334
 7279WAT     H122079   2.788   3.908   0.298
 7279WAT     H222080   2.919   3.996   0.259
 7280WAT      O22081   8.328   5.644   6.793
 7280WAT     H122082   8.288   5.589   6.719
 7280WAT     H222083   8.414   5.683   6.762
 7281WAT      O22084   5.242   5.572   6.609
 7281WAT     H122085   5.163   5.545   6.553
 7281WAT     H222086   5.299   5.492   6.627
 7282WAT      O22087   6.884   0.377   0.308
 7282WAT     H122088   6.791   0.363   0.274
 7282WAT     H222089   6.937   0.428   0.241
 7283WAT      O22090   8.207   9.360   3.511
 7283WAT     H122091   8.130   9.311   3.471
 7283WAT     H222092   8.215   9.336   3.608
 7284WAT      O22093   8.915   4.735   2.608
 7284WAT     H122094   8.837   4.722   2.669
 7284WAT     H222095   8.942   4.647   2.569
 7285WAT      O22096   4.659   9.025   5.789
 7285WAT     H122097   4.755   9.052   5.798
 7285WAT     H222098   4.643   8.941   5.841
 7286WAT      O22099   3.565   3.030   1.826
 7286WAT     H122100   3.654   3.075   1.829
 7286WAT     H222101   3.572   2.946   1.772
 7287WAT      O22102   8.039   6.936   3.189
 7287WAT     H122103   8.048   6.973   3.097
 7287WAT     H222104   8.124   6.888   3.214
 7288WAT      O22105   1.022   4.345   7.084
 7288WAT     H122106   0.963   4.424   7.069
 7288WAT     H222107   0.974   4.261   7.057
 7289WAT      O22108   5.438   8.959   4.454
 7289WAT     H122109   5.381   8.890   4.501
 7289WAT     H222110   5.500   9.001   4.521
 7290WAT      O22111   1.158   1.622   4.003
 7290WAT     H122112   1.199   1.666   4.083
 7290WAT     H222113   1.187   1.670   3.920
 7291WAT      O22114   3.206   5.388   3.938
 7291WAT     H122115   3.116   5.364   3.975
 7291WAT     H222116   3.218   5.488   3.943
 7292WAT      O22117   9.619   4.593   9.468
 7292WAT     H122118   9.606   4.658   9.543
 7292WAT     H222119   9.552   4.520   9.476
 7293WAT      O22120   4.020   4.832   3.407
 7293WAT     H122121   4.115   4.837   3.377
 7293WAT     H222122   3.971   4.913   3.375
 7294WAT      O22123   6.637   0.772   0.441
 7294WAT     H122124   6.586   0.837   0.384
 7294WAT     H222125   6.578   0.696   0.465
 7295WAT      O22126   7.762   9.215   5.146
 7295WAT     H122127   7.723   9.140   5.200
 7295WAT     H222128   7.797   9.285   5.208
 7296WAT      O22129   4.615   3.968   1.474
 7296WAT     H122130   4.547   3.933   1.539
 7296WAT     H222131   4.647   4.058   1.503
 7297WAT      O22132   2.090   6.878   0.681
 7297WAT     H122133   2.087   6.977   0.673
 7297WAT     H222134   2.182   6.845   0.659
 7298WAT      O22135   7.745   9.112   7.192
 7298WAT     H122136   7.721   9.048   7.119
 7298WAT     H222137   7.843   9.132   7.187
 7299WAT      O22138   4.929   2.348   1.860
 7299WAT     H122139   4.938   2.286   1.783
 7299WAT     H222140   5.011   2.405   1.867
 7300WAT      O22141   6.520   7.916   8.476
 7300WAT     H122142   6.453   7.990   8.485
 7300WAT     H222143   6.522   7.885   8.381
 7301WAT      O22144   9.489   8.091   4.586
 7301WAT     H122145   9.575   8.083   4.636
 7301WAT     H222146   9.501   8.156   4.510
 7302WAT      O22147   9.801   4.832   6.588
 7302WAT     H122148   9.721   4.798   6.638
 7302WAT     H222149   9.859   4.756   6.561
 7303WAT      O22150   5.179   2.880   1.948
 7303WAT     H122151   5.231   2.795   1.941
 7303WAT     H222152   5.163   2.902   2.045
 7304WAT      O22153   2.259   7.848   9.405
 7304WAT     H122154   2.358   7.840   9.398
 7304WAT     H222155   2.232   7.842   9.501
 7305WAT      O22156   9.067   5.862   1.596
 7305WAT     H122157   9.122   5.945   1.587
 7305WAT     H222158   8.971   5.886   1.608
 7306WAT      O22159   6.310   2.594   8.101
 7306WAT     H122160   6.371   2.655   8.051
 7306WAT     H222161   6.297   2.628   8.194
 7307WAT      O22162   5.423   5.148   0.748
 7307WAT     H122163   5.431   5.055   0.783
 7307WAT     H222164   5.502   5.169   0.691
 7308WAT      O22165   4.203   2.296   7.421
 7308WAT     H122166   4.156   2.313   7.334
 7308WAT     H222167   4.263   2.373   7.442
 7309WAT      O22168   1.326   0.626   9.539
 7309WAT     H122169   1.312   0.659   9.633
 7309WAT     H222170   1.238   0.598   9.501
 7310WAT      O22171   5.719   0.559   8.678
 7310WAT     H122172   5.768   0.615   8.744
 7310WAT     H222173   5.778   0.484   8.648
 7311WAT      O22174   3.206   5.254   1.849
 7311WAT     H122175   3.113   5.220   1.862
 7311WAT     H222176   3.271   5.179   1.860
 7312WAT      O22177   2.178   4.340   6.665
 7312WAT     H122178   2.187   4.272   6.593
 7312WAT     H222179   2.130   4.301   6.743
 7313WAT      O22180   0.313   5.548   4.453
 7313WAT     H122181   0.356   5.475   4.399
 7313WAT     H222182   0.309   5.631   4.399
 7314WAT      O22183   9.261   1.999   8.099
 7314WAT     H122184   9.299   2.089   8.077
 7314WAT     H222185   9.281   1.935   8.024
 7315WAT      O22186   6.237   7.189   1.779
 7315WAT     H122187   6.332   7.198   1.748
 7315WAT     H222188   6.175   7.206   1.703
 7316WAT      O22189   5.343   6.709   9.240
 7316WAT     H122190   5.271   6.778   9.238
 7316WAT     H222191   5.430   6.751   9.263
 7317WAT      O22192   7.892   5.879   8.643
 7317WAT     H122193   7.904   5.976   8.618
 7317WAT     H222194   7.919   5.822   8.566
 7318WAT      O22195   2.783   2.408   3.897
 7318WAT     H122196   2.703   2.430   3.841
 7318WAT     H222197   2.760   2.334   3.961
 7319WAT      O22198   4.447   7.725   6.249
 7319WAT     H122199   4.420   7.659   6.180
 7319WAT     H222200   4.371   7.787   6.269
 7320WAT      O22201   3.073   3.983   1.499
 7320WAT     H122202   3.152   3.952   1.445
 7320WAT     H222203   3.101   4.057   1.559
 7321WAT      O22204   0.297   1.275   4.145
 7321WAT     H122205   0.393   1.249   4.141
 7321WAT     H222206   0.245   1.206   4.196
 7322WAT      O22207   8.045   1.336   3.618
 7322WAT     H122208   8.003   1.256   3.576
 7322WAT     H222209   7.983   1.414   3.611
 7323WAT      O22210   9.860   2.422   8.135
 7323WAT     H122211   9.874   2.331   8.172
 7323WAT     H222212   9.888   2.424   8.038
 7324WAT      O22213   4.934   7.822   3.098
 7324WAT     H122214   4.997   7.761   3.146
 7324WAT     H222215   4.844   7.777   3.092
 7325WAT      O22216   0.749   8.388   6.811
 7325WAT     H122217   0.764   8.412   6.715
 7325WAT     H222218   0.736   8.289   6.819
 7326WAT      O22219   3.746   5.814   3.051
 7326WAT     H122220   3.671   5.750   3.069
 7326WAT     H222221   3.826   5.786   3.103
 7327WAT      O22222   2.256   2.856   9.022
 7327WAT     H122223   2.302   2.770   9.002
 7327WAT     H222224   2.157   2.842   9.022
 7328WAT      O22225   8.911   0.765   8.731
 7328WAT     H122226   8.864   0.802   8.651
 7328WAT     H222227   8.989   0.709   8.701
 7329WAT      O22228   8.792   7.820   8.325
 7329WAT     H122229   8.803   7.776   8.236
 7329WAT     H222230   8.841   7.907   8.325
 7330WAT      O22231   4.266   3.345   0.210
 7330WAT     H122232   4.363   3.332   0.190
 7330WAT     H222233   4.217   3.259   0.198
 7331WAT      O22234   3.012   5.552   1.658
 7331WAT     H122235   3.028   5.460   1.622
 7331WAT     H222236   2.987   5.614   1.583
 7332WAT      O22237   3.346   0.020   7.001
 7332WAT     H122238   3.443   0.038   7.014
 7332WAT     H222239   3.334  -0.054   6.934
 7333WAT      O22240   9.867   4.271   5.212
 7333WAT     H122241   9.951   4.255   5.262
 7333WAT     H222242   9.836   4.365   5.228
 7334WAT      O22243   0.339   3.592   6.352
 7334WAT     H122244   0.397   3.620   6.276
 7334WAT     H222245   0.330   3.492   6.352
 7335WAT      O22246   4.086   4.872   1.222
 7335WAT     H122247   4.056   4.777   1.215
 7335WAT     H222248   4.180   4.875   1.255
 7336WAT      O22249   7.363   1.283   8.175
 7336WAT     H122250   7.316   1.361   8.133
 7336WAT     H222251   7.458   1.307   8.194
 7337WAT      O22252   0.922   1.243   2.329
 7337WAT     H122253   0.987   1.167   2.326
 7337WAT     H222254   0.836   1.213   2.288
 7338WAT      O22255   6.268   8.607   7.038
 7338WAT     H122256   6.180   8.641   7.072
 7338WAT     H222257   6.254   8.524   6.984
 7339WAT      O22258   7.172   2.719   4.977
 7339WAT     H122259   7.242   2.713   5.049
 7339WAT     H222260   7.216   2.714   4.888
 7340WAT      O22261   2.140   9.495   1.052
 7340WAT     H122262   2.080   9.421   1.024
 7340WAT     H222263   2.220   9.458   1.098
 7341WAT      O22264   4.747   6.035   6.824
 7341WAT     H122265   4.802   5.971   6.878
 7341WAT     H222266   4.676   5.985   6.775
 7342WAT      O22267   7.536   1.560   0.172
 7342WAT     H122268   7.484   1.640   0.202
 7342WAT     H222269   7.612   1.544   0.235
 7343WAT      O22270   8.215   7.933   6.152
 7343WAT     H122271   8.149   7.979   6.094
 7343WAT     H222272   8.305   7.936   6.109
 7344WAT      O22273   7.967   2.791   1.141
 7344WAT     H122274   8.066   2.803   1.150
 7344WAT     H222275   7.937   2.829   1.053
 7345WAT      O22276   0.626   3.228   4.476
 7345WAT     H122277   0.654   3.151   4.534
 7345WAT     H222278   0.679   3.309   4.501
 7346WAT      O22279   9.464   8.590   4.869
 7346WAT     H122280   9.400   8.529   4.917
 7346WAT     H222281   9.496   8.546   4.785
 7347WAT      O22282   6.484   4.957   8.959
 7347WAT     H122283   6.492   5.052   8.988
 7347WAT     H222284   6.521   4.947   8.866
 7348WAT      O22285   0.624   7.946   0.304
 7348WAT     H122286   0.650   7.864   0.355
 7348WAT     H222287   0.573   8.008   0.364
 7349WAT      O22288   6.844   7.899   7.992
 7349WAT     H122289   6.877   7.877   8.084
 7349WAT     H222290   6.912   7.956   7.946
 7350WAT      O22291   6.230   2.888   4.717
 7350WAT     H122292   6.234   2.792   4.746
 7350WAT     H222293   6.241   2.894   4.618
 7351WAT      O22294   0.668   7.106   2.825
 7351WAT     H122295   0.628   7.141   2.911
 7351WAT     H222296   0.689   7.183   2.765
 7352WAT      O22297   7.715   9.594   3.911
 7352WAT     H122298   7.751   9.549   3.829
 7352WAT     H222299   7.616   9.583   3.915
 7353WAT      O22300   0.734   4.184   8.865
 7353WAT     H122301   0.738   4.089   8.897
 7353WAT     H222302   0.757   4.188   8.768
 7354WAT      O22303   2.049   7.925   2.912
 7354WAT     H122304   1.986   7.868   2.964
 7354WAT     H222305   2.138   7.881   2.906
 7355WAT      O22306   7.303   7.877   8.421
 7355WAT     H122307   7.324   7.973   8.438
 7355WAT     H222308   7.204   7.862   8.430
 7356WAT      O22309   0.348   3.131   8.392
 7356WAT     H122310   0.348   3.041   8.348
 7356WAT     H222311   0.401   3.196   8.338
 7357WAT      O22312   1.952   3.710   7.580
 7357WAT     H122313   2.048   3.714   7.610
 7357WAT     H222314   1.949   3.680   7.485
 7358WAT      O22315   1.686   0.604   9.310
 7358WAT     H122316   1.774   0.613   9.265
 7358WAT     H222317   1.620   0.565   9.246
 7359WAT      O22318   1.339   1.038   5.907
 7359WAT     H122319   1.242   1.014   5.906
 7359WAT     H222320   1.369   1.059   5.814
 7360WAT      O22321   7.510   7.152   7.368
 7360WAT     H122322   7.558   7.121   7.450
 7360WAT     H222323   7.543   7.100   7.289
 7361WAT      O22324   0.505   5.265   1.999
 7361WAT     H122325   0.498   5.356   2.040
 7361WAT     H222326   0.440   5.204   2.044
 7362WAT      O22327   1.364   1.224   1.034
 7362WAT     H122328   1.289   1.192   1.091
 7362WAT     H222329   1.427   1.279   1.088
 7363WAT      O22330   9.872   6.531   7.621
 7363WAT     H122331   9.969   6.509   7.626
 7363WAT     H222332   9.854   6.616   7.670
 7364WAT      O22333   1.503   3.570   4.735
 7364WAT     H122334   1.446   3.530   4.806
 7364WAT     H222335   1.466   3.548   4.645
 7365WAT      O22336   9.719   8.742   4.954
 7365WAT     H122337   9.787   8.754   4.882
 7365WAT     H222338   9.632   8.714   4.913
 7366WAT      O22339   7.556   3.604   2.188
 7366WAT     H122340   7.521   3.697   2.198
 7366WAT     H222341   7.656   3.605   2.196
 7367WAT      O22342   0.495   3.781   3.657
 7367WAT     H122343   0.517   3.685   3.674
 7367WAT     H222344   0.404   3.802   3.694
 7368WAT      O22345   2.689   8.424   7.069
 7368WAT     H122346   2.610   8.363   7.062
 7368WAT     H222347   2.734   8.409   7.157
 7369WAT      O22348   1.296   9.235   7.701
 7369WAT     H122349   1.312   9.170   7.627
 7369WAT     H222350   1.288   9.186   7.787
 7370WAT      O22351   6.922   7.662   7.883
 7370WAT     H122352   6.891   7.576   7.923
 7370WAT     H222353   6.876   7.738   7.928
 7371WAT      O22354   7.917   7.377   4.133
 7371WAT     H122355   7.939   7.461   4.082
 7371WAT     H222356   7.933   7.298   4.075
 7372WAT      O22357   9.133   3.064   1.975
 7372WAT     H122358   9.070   3.141   1.977
 7372WAT     H222359   9.173   3.051   2.066
 7373WAT      O22360   8.427   3.902   4.280
 7373WAT     H122361   8.340   3.946   4.259
 7373WAT     H222362   8.482   3.961   4.338
 7374WAT      O22363   5.160   2.204   8.703
 7374WAT     H122364   5.186   2.112   8.734
 7374WAT     H222365   5.166   2.267   8.780
 7375WAT      O22366   1.138   3.397   8.495
 7375WAT     H122367   1.235   3.416   8.507
 7375WAT     H222368   1.084   3.475   8.526
 7376WAT      O22369   4.084   3.836   0.272
 7376WAT     H122370   4.062   3.861   0.177
 7376WAT     H222371   4.015   3.774   0.307
 7377WAT      O22372   2.868   4.299   3.734
 7377WAT     H122373   2.814   4.283   3.652
 7377WAT     H222374   2.922   4.382   3.723
 7378WAT      O22375   4.817   2.141   6.092
 7378WAT     H122376   4.796   2.161   6.188
 7378WAT     H222377   4.899   2.192   6.065
 7379WAT      O22378   3.970   5.763   4.916
 7379WAT     H122379   4.028   5.718   4.848
 7379WAT     H222380   3.901   5.818   4.868
 7380WAT      O22381   7.456   6.519   6.245
 7380WAT     H122382   7.486   6.424   6.248
 7380WAT     H222383   7.362   6.523   6.210
 7381WAT      O22384   9.419   8.256   0.747
 7381WAT     H122385   9.425   8.244   0.846
 7381WAT     H222386   9.391   8.350   0.726
 7382WAT      O22387   7.613   4.346   4.486
 7382WAT     H122388   7.685   4.382   4.427
 7382WAT     H222389   7.601   4.248   4.467
 7383WAT      O22390   9.490   6.965   1.868
 7383WAT     H122391   9.537   7.049   1.842
 7383WAT     H222392   9.443   6.927   1.788
 7384WAT      O22393   0.763   2.169   5.603
 7384WAT     H122394   0.814   2.117   5.673
 7384WAT     H222395   0.665   2.159   5.618
 7385WAT      O22396   5.566   8.662   2.718
 7385WAT     H122397   5.468   8.648   2.704
 7385WAT     H222398   5.583   8.758   2.742
 7386WAT      O22399   9.787   9.235   0.750
 7386WAT     H122400   9.718   9.188   0.806
 7386WAT     H222401   9.877   9.224   0.792
 7387WAT      O22402   9.777   5.367   7.637
 7387WAT     H122403   9.877   5.364   7.647
 7387WAT     H222404   9.754   5.369   7.539
 7388WAT      O22405   7.029   6.132   6.148
 7388WAT     H122406   7.006   6.041   6.182
 7388WAT     H222407   6.945   6.178   6.118
 7389WAT      O22408   1.910   0.996   5.753
 7389WAT     H122409   1.936   1.076   5.699
 7389WAT     H222410   1.992   0.952   5.791
 7390WAT      O22411   1.983   4.877   9.446
 7390WAT     H122412   1.941   4.802   9.396
 7390WAT     H222413   1.924   4.958   9.441
 7391WAT      O22414   3.773   9.755   3.503
 7391WAT     H122415   3.786   9.663   3.538
 7391WAT     H222416   3.809   9.821   3.569
 7392WAT      O22417   9.142   5.569   6.699
 7392WAT     H122418   9.047   5.544   6.679
 7392WAT     H222419   9.188   5.493   6.745
 7393WAT      O22420   8.579   2.898   2.787
 7393WAT     H122421   8.612   2.984   2.748
 7393WAT     H222422   8.646   2.826   2.772
 7394WAT      O22423   6.360   2.869   2.862
 7394WAT     H122424   6.355   2.961   2.822
 7394WAT     H222425   6.368   2.877   2.962
 7395WAT      O22426   9.596   9.262   9.209
 7395WAT     H122427   9.627   9.343   9.160
 7395WAT     H222428   9.676   9.208   9.237
 7396WAT      O22429   6.053   3.085   1.431
 7396WAT     H122430   6.011   3.101   1.342
 7396WAT     H222431   6.032   2.992   1.462
 7397WAT      O22432   4.877   3.837   4.496
 7397WAT     H122433   4.783   3.814   4.521
 7397WAT     H222434   4.876   3.902   4.420
 7398WAT      O22435   3.669   7.638   1.908
 7398WAT     H122436   3.766   7.658   1.896
 7398WAT     H222437   3.653   7.601   1.999
 7399WAT      O22438   5.242   1.862   8.217
 7399WAT     H122439   5.251   1.918   8.135
 7399WAT     H222440   5.176   1.904   8.279
 7400WAT      O22441   6.806   4.156   0.500
 7400WAT     H122442   6.868   4.162   0.421
 7400WAT     H222443   6.806   4.062   0.535
 7401WAT      O22444   8.750   5.264   8.688
 7401WAT     H122445   8.666   5.257   8.741
 7401WAT     H222446   8.754   5.353   8.643
 7402WAT      O22447   4.067   2.524   7.875
 7402WAT     H122448   4.005   2.602   7.878
 7402WAT     H222449   4.018   2.440   7.901
 7403WAT      O22450   8.286   1.499   8.447
 7403WAT     H122451   8.342   1.420   8.472
 7403WAT     H222452   8.302   1.573   8.513
 7404WAT      O22453   5.192   0.442   2.607
 7404WAT     H122454   5.220   0.538   2.605
 7404WAT     H222455   5.151   0.421   2.696
 7405WAT      O22456   1.595   4.854   5.486
 7405WAT     H122457   1.523   4.785   5.474
 7405WAT     H222458   1.572   4.913   5.563
 7406WAT      O22459   2.311   7.174   7.233
 7406WAT     H122460   2.278   7.080   7.236
 7406WAT     H222461   2.383   7.182   7.164
 7407WAT      O22462   0.302   6.956   9.337
 7407WAT     H122463   0.308   6.983   9.241
 7407WAT     H222464   0.304   7.038   9.395
 7408WAT      O22465   3.030   2.330   6.946
 7408WAT     H122466   3.023   2.260   7.018
 7408WAT     H222467   3.077   2.410   6.983
 7409WAT      O22468   2.325   8.212   1.943
 7409WAT     H122469   2.395   8.198   2.013
 7409WAT     H222470   2.243   8.161   1.968
 7410WAT      O22471   1.664   7.113   2.204
 7410WAT     H122472   1.582   7.108   2.262
 7410WAT     H222473   1.728   7.042   2.233
 7411WAT      O22474   8.966   8.578   2.344
 7411WAT     H122475   8.953   8.548   2.249
 7411WAT     H222476   8.952   8.500   2.405
 7412WAT      O22477   9.544   6.544   7.314
 7412WAT     H122478   9.640   6.549   7.289
 7412WAT     H222479   9.513   6.448   7.309
 7413WAT      O22480   9.771   9.221   9.660
 7413WAT     H122481   9.851   9.272   9.691
 7413WAT     H222482   9.722   9.274   9.590
 7414WAT      O22483   4.983   6.081   3.480
 7414WAT     H122484   5.037   6.074   3.396
 7414WAT     H222485   4.895   6.035   3.466
 7415WAT      O22486   7.182   3.844   9.204
 7415WAT     H122487   7.279   3.866   9.214
 7415WAT     H222488   7.135   3.860   9.290
 7416WAT      O22489   5.308   6.770   0.323
 7416WAT     H122490   5.339   6.750   0.230
 7416WAT     H222491   5.223   6.823   0.319
 7417WAT      O22492   9.648   1.558   1.306
 7417WAT     H122493   9.635   1.656   1.292
 7417WAT     H222494   9.560   1.515   1.326
 7418WAT      O22495   3.774   8.236   6.394
 7418WAT     H122496   3.675   8.221   6.384
 7418WAT     H222497   3.804   8.300   6.324
 7419WAT      O22498   4.853   3.497   3.295
 7419WAT     H122499   4.943   3.460   3.317
 7419WAT     H222500   4.809   3.531   3.378
 7420WAT      O22501   4.406   6.785   3.636
 7420WAT     H122502   4.431   6.704   3.689
 7420WAT     H222503   4.423   6.767   3.539
 7421WAT      O22504   8.114   7.935   9.515
 7421WAT     H122505   8.152   7.854   9.561
 7421WAT     H222506   8.157   8.017   9.553
 7422WAT      O22507   9.870   2.137   1.989
 7422WAT     H122508   9.949   2.197   1.979
 7422WAT     H222509   9.820   2.162   2.072
 7423WAT      O22510   7.397   3.422   9.411
 7423WAT     H122511   7.352   3.453   9.328
 7423WAT     H222512   7.342   3.450   9.491
 7424WAT      O22513   6.670   5.977   8.926
 7424WAT     H122514   6.628   6.068   8.927
 7424WAT     H222515   6.681   5.947   8.831
 7425WAT      O22516   0.288   5.307   0.058
 7425WAT     H122517   0.337   5.250  -0.008
 7425WAT     H222518   0.205   5.342   0.016
 7426WAT      O22519   0.783   8.176   8.518
 7426WAT     H122520   0.815   8.146   8.428
 7426WAT     H222521   0.819   8.114   8.588
 7427WAT      O22522   7.211   7.585   7.997
 7427WAT     H122523   7.310   7.597   7.999
 7427WAT     H222524   7.174   7.629   7.915
 7428WAT      O22525   2.352   2.012   4.891
 7428WAT     H122526   2.412   2.086   4.858
 7428WAT     H222527   2.361   1.933   4.829
 7429WAT      O22528   1.466   5.718   7.436
 7429WAT     H122529   1.428   5.785   7.372
 7429WAT     H222530   1.426   5.733   7.526
 7430WAT      O22531   7.184   4.945   9.851
 7430WAT     H122532   7.138   4.954   9.939
 7430WAT     H222533   7.119   4.967   9.778
 7431WAT      O22534   8.863   5.527   3.033
 7431WAT     H122535   8.792   5.456   3.038
 7431WAT     H222536   8.897   5.533   2.939
 7432WAT      O22537   9.654   4.851   6.370
 7432WAT     H122538   9.714   4.864   6.450
 7432WAT     H222539   9.669   4.759   6.333
 7433WAT      O22540   5.111   5.582   0.159
 7433WAT     H122541   5.085   5.492   0.193
 7433WAT     H222542   5.206   5.579   0.127
 7434WAT      O22543   1.068   4.333   4.824
 7434WAT     H122544   1.166   4.352   4.837
 7434WAT     H222545   1.034   4.389   4.748
 7435WAT      O22546   3.643   2.834   0.955
 7435WAT     H122547   3.567   2.806   1.014
 7435WAT     H222548   3.726   2.788   0.984
 7436WAT      O22549   3.661   0.647   2.079
 7436WAT     H122550   3.631   0.562   2.122
 7436WAT     H222551   3.693   0.627   1.986
 7437WAT      O22552   2.841   6.852   0.625
 7437WAT     H122553   2.900   6.822   0.551
 7437WAT     H222554   2.810   6.946   0.607
 7438WAT      O22555   1.002   6.478   0.473
 7438WAT     H122556   0.944   6.397   0.474
 7438WAT     H222557   1.028   6.500   0.379
 7439WAT      O22558   4.329   5.593   0.619
 7439WAT     H122559   4.329   5.569   0.716
 7439WAT     H222560   4.403   5.658   0.601
 7440WAT      O22561   2.170   2.117   6.636
 7440WAT     H122562   2.157   2.203   6.588
 7440WAT     H222563   2.187   2.044   6.570
 7441WAT      O22564   5.516   2.208   1.338
 7441WAT     H122565   5.462   2.253   1.267
 7441WAT     H222566   5.504   2.109   1.331
 7442WAT      O22567   0.368   0.887   1.261
 7442WAT     H122568   0.378   0.976   1.217
 7442WAT     H222569   0.394   0.815   1.196
 7443WAT      O22570   0.831   3.278   3.736
 7443WAT     H122571   0.754   3.218   3.716
 7443WAT     H222572   0.808   3.372   3.714
 7444WAT      O22573   5.299   6.897   0.040
 7444WAT     H122574   5.222   6.868  -0.016
 7444WAT     H222575   5.365   6.948  -0.015
 7445WAT      O22576   6.434   9.300   9.235
 7445WAT     H122577   6.436   9.235   9.311
 7445WAT     H222578   6.356   9.279   9.175
 7446WAT      O22579   5.729   7.212   6.590
 7446WAT     H122580   5.697   7.117   6.581
 7446WAT     H222581   5.816   7.214   6.640
 7447WAT      O22582   0.588   3.127   2.759
 7447WAT     H122583   0.655   3.106   2.688
 7447WAT     H222584   0.636   3.153   2.843
 7448WAT      O22585   8.307   9.451   3.816
 7448WAT     H122586   8.209   9.466   3.830
 7448WAT     H222587   8.352   9.539   3.803
 7449WAT      O22588   4.902   7.401   5.938
 7449WAT     H122589   4.967   7.328   5.960
 7449WAT     H222590   4.813   7.378   5.977
 7450WAT      O22591   1.597   4.419   6.252
 7450WAT     H122592   1.620   4.321   6.256
 7450WAT     H222593   1.565   4.449   6.342
 7451WAT      O22594   6.312   7.326   2.805
 7451WAT     H122595   6.353   7.411   2.840
 7451WAT     H222596   6.343   7.249   2.861
 7452WAT      O22597   0.537   2.072   9.441
 7452WAT     H122598   0.596   2.099   9.365
 7452WAT     H222599   0.458   2.134   9.445
 7453WAT      O22600   6.699   8.038   9.008
 7453WAT     H122601   6.600   8.025   9.012
 7453WAT     H222602   6.739   7.971   8.946
 7454WAT      O22603   6.909   0.749   4.552
 7454WAT     H122604   6.850   0.805   4.493
 7454WAT     H222605   6.855   0.674   4.590
 7455WAT      O22606   8.663   2.355   8.641
 7455WAT     H122607   8.678   2.357   8.543
 7455WAT     H222608   8.715   2.429   8.684
 7456WAT      O22609   5.276   7.268   0.374
 7456WAT     H122610   5.241   7.215   0.297
 7456WAT     H222611   5.374   7.280   0.364
 7457WAT      O22612   3.587   8.462   5.977
 7457WAT     H122613   3.525   8.519   5.924
 7457WAT     H222614   3.536   8.390   6.024
 7458WAT      O22615   9.635   4.843   2.044
 7458WAT     H122616   9.609   4.755   2.003
 7458WAT     H222617   9.653   4.830   2.142
 7459WAT      O22618   1.824   3.676   2.311
 7459WAT     H122619   1.728   3.652   2.296
 7459WAT     H222620   1.854   3.739   2.239
 7460WAT      O22621   5.705   1.831   8.356
 7460WAT     H122622   5.670   1.885   8.433
 7460WAT     H222623   5.630   1.779   8.315
 7461WAT      O22624   8.042   6.620   5.579
 7461WAT     H122625   7.955   6.574   5.598
 7461WAT     H222626   8.053   6.698   5.641
 7462WAT      O22627   0.004   4.251   5.578
 7462WAT     H122628   0.074   4.181   5.565
 7462WAT     H222629  -0.034   4.245   5.670
 7463WAT      O22630   8.191   3.369   7.506
 7463WAT     H122631   8.273   3.374   7.562
 7463WAT     H222632   8.110   3.371   7.565
 7464WAT      O22633   5.026   4.662   9.005
 7464WAT     H122634   5.090   4.673   8.929
 7464WAT     H222635   5.001   4.565   9.013
 7465WAT      O22636   8.445   3.678   1.074
 7465WAT     H122637   8.537   3.695   1.041
 7465WAT     H222638   8.402   3.606   1.019
 7466WAT      O22639   1.638   3.450   9.502
 7466WAT     H122640   1.715   3.425   9.561
 7466WAT     H222641   1.670   3.511   9.430
 7467WAT      O22642   5.865   0.497   5.460
 7467WAT     H122643   5.819   0.411   5.482
 7467WAT     H222644   5.818   0.573   5.504
 7468WAT      O22645   6.780   7.821   8.854
 7468WAT     H122646   6.737   7.735   8.825
 7468WAT     H222647   6.764   7.891   8.784
 7469WAT      O22648   6.889   6.060   1.944
 7469WAT     H122649   6.798   6.072   1.905
 7469WAT     H222650   6.952   6.029   1.873
 7470WAT      O22651   1.395   4.618   6.081
 7470WAT     H122652   1.472   4.640   6.021
 7470WAT     H222653   1.428   4.566   6.160
 7471WAT      O22654   6.449   0.806   3.056
 7471WAT     H122655   6.421   0.754   3.136
 7471WAT     H222656   6.513   0.878   3.083
 7472WAT      O22657   0.685   8.361   9.699
 7472WAT     H122658   0.637   8.308   9.630
 7472WAT     H222659   0.774   8.318   9.718
 7473WAT      O22660   1.725   6.981   9.856
 7473WAT     H122661   1.816   6.966   9.896
 7473WAT     H222662   1.733   7.041   9.777
 7474WAT      O22663   1.266   1.705   4.849
 7474WAT     H122664   1.289   1.620   4.801
 7474WAT     H222665   1.177   1.695   4.892
 7475WAT      O22666   5.753   6.661   3.556
 7475WAT     H122667   5.768   6.564   3.575
 7475WAT     H222668   5.772   6.715   3.639
 7476WAT      O22669   5.851   5.374   1.489
 7476WAT     H122670   5.754   5.397   1.491
 7476WAT     H222671   5.861   5.275   1.497
 7477WAT      O22672   6.222   3.541   7.890
 7477WAT     H122673   6.255   3.480   7.818
 7477WAT     H222674   6.297   3.563   7.952
 7478WAT      O22675   5.890   5.626   6.560
 7478WAT     H122676   5.855   5.619   6.466
 7478WAT     H222677   5.940   5.543   6.583
 7479WAT      O22678   8.546   8.046   9.697
 7479WAT     H122679   8.592   7.959   9.677
 7479WAT     H222680   8.521   8.090   9.611
 7480WAT      O22681   6.459   0.614   8.170
 7480WAT     H122682   6.413   0.563   8.242
 7480WAT     H222683   6.534   0.558   8.133
 7481WAT      O22684   7.659   0.737   6.573
 7481WAT     H122685   7.651   0.692   6.662
 7481WAT     H222686   7.620   0.829   6.578
 7482WAT      O22687   3.020   4.909   1.862
 7482WAT     H122688   2.934   4.884   1.818
 7482WAT     H222689   3.096   4.891   1.800
 7483WAT      O22690   1.578   2.216   0.475
 7483WAT     H122691   1.521   2.169   0.408
 7483WAT     H222692   1.558   2.314   0.473
 7484WAT      O22693   2.791   2.830   5.167
 7484WAT     H122694   2.741   2.753   5.209
 7484WAT     H222695   2.842   2.878   5.238
 7485WAT      O22696   6.227   3.453   6.213
 7485WAT     H122697   6.140   3.414   6.244
 7485WAT     H222698   6.272   3.389   6.152
 7486WAT      O22699   2.787   8.317   1.199
 7486WAT     H122700   2.828   8.407   1.214
 7486WAT     H222701   2.848   8.246   1.235
 7487WAT      O22702   3.645   2.214   6.568
 7487WAT     H122703   3.744   2.198   6.574
 7487WAT     H222704   3.597   2.127   6.573
 7488WAT      O22705   3.099   2.106   7.082
 7488WAT     H122706   3.181   2.068   7.039
 7488WAT     H222707   3.050   2.033   7.130
 7489WAT      O22708   2.322   5.704   6.208
 7489WAT     H122709   2.295   5.609   6.225
 7489WAT     H222710   2.313   5.757   6.292
 7490WAT      O22711   4.160   9.607   0.190
 7490WAT     H122712   4.142   9.519   0.146
 7490WAT     H222713   4.258   9.617   0.206
 7491WAT      O22714   8.278   0.825   5.931
 7491WAT     H122715   8.258   0.753   5.864
 7491WAT     H222716   8.367   0.809   5.972
 7492WAT      O22717   4.064   2.067   3.049
 7492WAT     H122718   4.094   1.972   3.050
 7492WAT     H222719   4.095   2.111   2.965
 7493WAT      O22720   2.982   0.138   7.943
 7493WAT     H122721   3.034   0.053   7.950
 7493WAT     H222722   3.005   0.198   8.019
 7494WAT      O22723   9.359   1.014   6.902
 7494WAT     H122724   9.441   1.024   6.846
 7494WAT     H222725   9.278   1.030   6.845
 7495WAT      O22726   5.498   6.389   4.539
 7495WAT     H122727   5.592   6.379   4.507
 7495WAT     H222728   5.491   6.472   4.595
 7496WAT      O22729   9.865   4.374   7.046
 7496WAT     H122730   9.918   4.341   7.125
 7496WAT     H222731   9.769   4.350   7.058
 7497WAT      O22732   4.433   7.879   9.614
 7497WAT     H122733   4.458   7.976   9.619
 7497WAT     H222734   4.515   7.823   9.610
 7498WAT      O22735   0.791   2.371   0.414
 7498WAT     H122736   0.714   2.313   0.440
 7498WAT     H222737   0.781   2.400   0.319
 7499WAT      O22738   4.574   1.718   4.993
 7499WAT     H122739   4.521   1.756   5.069
 7499WAT     H222740   4.514   1.667   4.931
 7500WAT      O22741   0.673   6.969   9.523
 7500WAT     H122742   0.670   7.044   9.457
 7500WAT     H222743   0.631   6.999   9.609
 7501WAT      O22744   0.950   8.653   2.165
 7501WAT     H122745   1.041   8.644   2.124
 7501WAT     H222746   0.950   8.729   2.229
 7502WAT      O22747   6.302   0.406   6.267
 7502WAT     H122748   6.231   0.476   6.257
 7502WAT     H222749   6.296   0.366   6.358
 7503WAT      O22750   1.083   1.105   8.055
 7503WAT     H122751   1.170   1.154   8.059
 7503WAT     H222752   1.057   1.091   7.960
 7504WAT      O22753   7.852   7.968   7.413
 7504WAT     H122754   7.863   7.919   7.499
 7504WAT     H222755   7.930   7.947   7.353
 7505WAT      O22756   6.267   0.424   8.075
 7505WAT     H122757   6.363   0.425   8.046
 7505WAT     H222758   6.211   0.468   8.005
 7506WAT      O22759   6.254   2.669   0.612
 7506WAT     H122760   6.214   2.627   0.530
 7506WAT     H222761   6.181   2.692   0.676
 7507WAT      O22762   9.368   2.793   3.906
 7507WAT     H122763   9.433   2.814   3.834
 7507WAT     H222764   9.358   2.693   3.915
 7508WAT      O22765   1.112   9.653   1.503
 7508WAT     H122766   1.105   9.652   1.603
 7508WAT     H222767   1.144   9.743   1.473
 7509WAT      O22768   9.375   7.536   8.937
 7509WAT     H122769   9.468   7.543   8.973
 7509WAT     H222770   9.337   7.628   8.927
 7510WAT      O22771   1.877   5.762   9.873
 7510WAT     H122772   1.899   5.851   9.913
 7510WAT     H222773   1.844   5.774   9.780
 7511WAT      O22774   4.552   0.222   1.637
 7511WAT     H122775   4.561   0.309   1.687
 7511WAT     H222776   4.513   0.153   1.698
 7512WAT      O22777   5.454   6.120   4.662
 7512WAT     H122778   5.463   6.219   4.654
 7512WAT     H222779   5.541   6.080   4.692
 7513WAT      O22780   2.308   0.016   4.023
 7513WAT     H122781   2.250   0.073   4.081
 7513WAT     H222782   2.399   0.057   4.015
 7514WAT      O22783   0.589   5.244   6.967
 7514WAT     H122784   0.542   5.198   7.043
 7514WAT     H222785   0.668   5.294   7.003
 7515WAT      O22786   3.303   8.660   0.211
 7515WAT     H122787   3.389   8.685   0.256
 7515WAT     H222788   3.266   8.577   0.254
 7516WAT      O22789   6.992   7.641   5.708
 7516WAT     H122790   6.944   7.621   5.793
 7516WAT     H222791   7.007   7.556   5.657
 7517WAT      O22792   2.208   0.586   0.425
 7517WAT     H122793   2.239   0.636   0.506
 7517WAT     H222794   2.214   0.646   0.345
 7518WAT      O22795   9.740   6.014   3.446
 7518WAT     H122796   9.768   6.066   3.365
 7518WAT     H222797   9.766   5.919   3.436
 7519WAT      O22798   5.944   8.478   5.022
 7519WAT     H122799   5.914   8.570   5.049
 7519WAT     H222800   5.980   8.430   5.102
 7520WAT      O22801   6.507   1.291   1.335
 7520WAT     H122802   6.496   1.306   1.433
 7520WAT     H222803   6.526   1.194   1.318
 7521WAT      O22804   2.683   3.231   2.364
 7521WAT     H122805   2.650   3.150   2.315
 7521WAT     H222806   2.630   3.244   2.447
 7522WAT      O22807   9.591   2.532   0.072
 7522WAT     H122808   9.515   2.594   0.053
 7522WAT     H222809   9.676   2.583   0.078
 7523WAT      O22810   7.270   5.566   9.548
 7523WAT     H122811   7.219   5.490   9.589
 7523WAT     H222812   7.367   5.554   9.565
 7524WAT      O22813   6.334   4.974   3.056
 7524WAT     H122814   6.431   4.968   3.082
 7524WAT     H222815   6.324   5.040   2.982
 7525WAT      O22816   3.112   7.615   7.207
 7525WAT     H122817   3.057   7.566   7.139
 7525WAT     H222818   3.209   7.597   7.190
 7526WAT      O22819   4.375   2.771   7.370
 7526WAT     H122820   4.421   2.841   7.424
 7526WAT     H222821   4.386   2.792   7.273
 7527WAT      O22822   0.261   4.873   8.772
 7527WAT     H122823   0.320   4.794   8.758
 7527WAT     H222824   0.311   4.942   8.825
 7528WAT      O22825   8.874   3.674   8.280
 7528WAT     H122826   8.867   3.610   8.357
 7528WAT     H222827   8.952   3.648   8.223
 7529WAT      O22828   7.337   8.760   9.537
 7529WAT     H122829   7.360   8.716   9.624
 7529WAT     H222830   7.241   8.742   9.515
 7530WAT      O22831   1.267   9.721   9.630
 7530WAT     H122832   1.331   9.674   9.569
 7530WAT     H222833   1.318   9.777   9.695
 7531WAT      O22834   9.040   6.526   9.447
 7531WAT     H122835   9.009   6.533   9.542
 7531WAT     H222836   8.972   6.478   9.393
 7532WAT      O22837   0.257   6.354   6.716
 7532WAT     H122838   0.259   6.339   6.617
 7532WAT     H222839   0.206   6.437   6.737
 7533WAT      O22840   4.550   6.178   3.169
 7533WAT     H122841   4.529   6.275   3.177
 7533WAT     H222842   4.480   6.133   3.113
 7534WAT      O22843   8.782   9.827   3.418
 7534WAT     H122844   8.837   9.853   3.497
 7534WAT     H222845   8.705   9.890   3.409
 7535WAT      O22846   3.440   8.153   9.153
 7535WAT     H122847   3.526   8.106   9.135
 7535WAT     H222848   3.376   8.136   9.078
 7536WAT      O22849   1.211   1.684   2.784
 7536WAT     H122850   1.263   1.601   2.804
 7536WAT     H222851   1.274   1.756   2.755
 7537WAT      O22852   0.833   6.133   5.134
 7537WAT     H122853   0.927   6.166   5.145
 7537WAT     H222854   0.775   6.209   5.102
 7538WAT      O22855   8.398   4.686   0.729
 7538WAT     H122856   8.375   4.684   0.827
 7538WAT     H222857   8.326   4.736   0.680
 7539WAT      O22858   4.526   0.968   5.879
 7539WAT     H122859   4.556   0.877   5.909
 7539WAT     H222860   4.569   0.990   5.792
 7540WAT      O22861   0.147   9.203   1.837
 7540WAT     H122862   0.152   9.108   1.807
 7540WAT     H222863   0.165   9.209   1.935
 7541WAT      O22864   2.923   1.112   8.272
 7541WAT     H122865   2.846   1.092   8.212
 7541WAT     H222866   2.946   1.209   8.266
 7542WAT      O22867   4.317   1.595   6.147
 7542WAT     H122868   4.348   1.664   6.081
 7542WAT     H222869   4.244   1.633   6.204
 7543WAT      O22870   0.744   6.469   4.350
 7543WAT     H122871   0.704   6.380   4.369
 7543WAT     H222872   0.673   6.532   4.319
 7544WAT      O22873   1.015   6.443   4.298
 7544WAT     H122874   0.925   6.475   4.329
 7544WAT     H222875   1.043   6.365   4.353
 7545WAT      O22876   5.716   6.672   6.245
 7545WAT     H122877   5.625   6.637   6.220
 7545WAT     H222878   5.773   6.596   6.277
 7546WAT      O22879   7.401   2.838   5.274
 7546WAT     H122880   7.410   2.873   5.368
 7546WAT     H222881   7.321   2.880   5.231
 7547WAT      O22882   4.951   8.141   2.843
 7547WAT     H122883   4.861   8.121   2.880
 7547WAT     H222884   5.005   8.056   2.840
 7548WAT      O22885   8.018   4.145   5.499
 7548WAT     H122886   8.004   4.176   5.405
 7548WAT     H222887   7.933   4.103   5.533
 7549WAT      O22888   7.303   9.379   1.312
 7549WAT     H122889   7.383   9.427   1.348
 7549WAT     H222890   7.224   9.399   1.370
 7550WAT      O22891   9.254   8.677   7.224
 7550WAT     H122892   9.195   8.672   7.143
 7550WAT     H222893   9.216   8.743   7.289
 7551WAT      O22894   5.941   6.825   7.750
 7551WAT     H122895   5.916   6.912   7.792
 7551WAT     H222896   5.865   6.760   7.759
 7552WAT      O22897   2.782   1.506   4.050
 7552WAT     H122898   2.692   1.464   4.051
 7552WAT     H222899   2.796   1.557   4.136
 7553WAT      O22900   5.945   5.355   9.116
 7553WAT     H122901   5.898   5.284   9.064
 7553WAT     H222902   5.928   5.444   9.075
 7554WAT      O22903   9.598   2.557   7.484
 7554WAT     H122904   9.605   2.652   7.454
 7554WAT     H222905   9.519   2.546   7.544
 7555WAT      O22906   1.806   8.150   5.053
 7555WAT     H122907   1.730   8.121   5.112
 7555WAT     H222908   1.870   8.075   5.043
 7556WAT      O22909   6.333   8.678   6.712
 7556WAT     H122910   6.279   8.754   6.749
 7556WAT     H222911   6.352   8.694   6.615
 7557WAT      O22912   7.775   2.012   5.968
 7557WAT     H122913   7.707   2.083   5.950
 7557WAT     H222914   7.866   2.053   5.966
 7558WAT      O22915   9.092   2.594   4.925
 7558WAT     H122916   9.080   2.549   5.013
 7558WAT     H222917   9.057   2.687   4.929
 7559WAT      O22918   7.682   4.323   2.285
 7559WAT     H122919   7.635   4.236   2.302
 7559WAT     H222920   7.685   4.340   2.186
 7560WAT      O22921   0.732   9.284   6.890
 7560WAT     H122922   0.822   9.294   6.849
 7560WAT     H222923   0.700   9.373   6.923
 7561WAT      O22924   3.862   3.746   1.235
 7561WAT     H122925   3.777   3.789   1.265
 7561WAT     H222926   3.846   3.695   1.150
 7562WAT      O22927   7.054   7.643   8.233
 7562WAT     H122928   7.106   7.615   8.152
 7562WAT     H222929   7.025   7.738   8.223
 7563WAT      O22930   7.401   1.552   2.556
 7563WAT     H122931   7.331   1.511   2.615
 7563WAT     H222932   7.359   1.624   2.501
 7564WAT      O22933   3.671   3.291   5.587
 7564WAT     H122934   3.640   3.300   5.493
 7564WAT     H222935   3.622   3.217   5.632
 7565WAT      O22936   8.552   9.130   5.495
 7565WAT     H122937   8.617   9.158   5.424
 7565WAT     H222938   8.460   9.129   5.458
 7566WAT      O22939   9.349   8.939   7.629
 7566WAT     H122940   9.384   8.941   7.723
 7566WAT     H222941   9.316   9.031   7.604
 7567WAT      O22942   8.369   3.448   3.400
 7567WAT     H122943   8.331   3.541   3.400
 7567WAT     H222944   8.313   3.390   3.458
 7568WAT      O22945   7.064   6.874   8.717
 7568WAT     H122946   7.139   6.857   8.780
 7568WAT     H222947   6.988   6.918   8.766
 7569WAT      O22948   2.102   5.160   4.379
 7569WAT     H122949   2.018   5.110   4.396
 7569WAT     H222950   2.179   5.096   4.378
 7570WAT      O22951   5.665   6.509   9.225
 7570WAT     H122952   5.736   6.474   9.164
 7570WAT     H222953   5.676   6.468   9.316
 7571WAT      O22954   5.048   5.806   2.773
 7571WAT     H122955   4.974   5.873   2.766
 7571WAT     H222956   5.056   5.756   2.686
 7572WAT      O22957   7.018   7.335   7.325
 7572WAT     H122958   6.982   7.425   7.352
 7572WAT     H222959   6.942   7.271   7.316
 7573WAT      O22960   1.229   9.391   7.077
 7573WAT     H122961   1.317   9.388   7.123
 7573WAT     H222962   1.159   9.424   7.141
 7574WAT      O22963   5.782   1.582   5.448
 7574WAT     H122964   5.814   1.677   5.442
 7574WAT     H222965   5.787   1.540   5.357
 7575WAT      O22966   5.790   7.434   3.363
 7575WAT     H122967   5.747   7.505   3.307
 7575WAT     H222968   5.887   7.429   3.340
 7576WAT      O22969   5.320   5.546   1.796
 7576WAT     H122970   5.261   5.484   1.744
 7576WAT     H222971   5.303   5.640   1.766
 7577WAT      O22972   9.777   9.171   4.212
 7577WAT     H122973   9.844   9.213   4.273
 7577WAT     H222974   9.709   9.240   4.185
 7578WAT      O22975   9.395   0.698   2.947
 7578WAT     H122976   9.339   0.779   2.963
 7578WAT     H222977   9.491   0.724   2.943
 7579WAT      O22978   7.658   1.380   8.826
 7579WAT     H122979   7.627   1.440   8.752
 7579WAT     H222980   7.756   1.362   8.815
 7580WAT      O22981   6.216   6.668   4.831
 7580WAT     H122982   6.243   6.595   4.769
 7580WAT     H222983   6.138   6.638   4.886
 7581WAT      O22984   1.495   9.192   4.174
 7581WAT     H122985   1.553   9.243   4.111
 7581WAT     H222986   1.418   9.249   4.202
 7582WAT      O22987   8.985   0.709   5.505
 7582WAT     H122988   8.919   0.781   5.484
 7582WAT     H222989   8.943   0.620   5.490
 7583WAT      O22990   2.238   6.052   5.288
 7583WAT     H122991   2.316   5.989   5.284
 7583WAT     H222992   2.226   6.095   5.198
 7584WAT      O22993   8.155   9.672   4.984
 7584WAT     H122994   8.230   9.735   4.962
 7584WAT     H222995   8.082   9.682   4.916
 7585WAT      O22996   0.383   3.993   7.245
 7585WAT     H122997   0.449   3.927   7.208
 7585WAT     H222998   0.418   4.030   7.331
 7586WAT      O22999   6.338   6.033   9.278
 7586WAT     H123000   6.391   5.958   9.238
 7586WAT     H223001   6.380   6.063   9.363
 7587WAT      O23002   2.943   9.491   5.286
 7587WAT     H123003   2.996   9.415   5.251
 7587WAT     H223004   3.004   9.560   5.326
 7588WAT      O23005   8.962   6.543   8.418
 7588WAT     H123006   9.034   6.612   8.425
 7588WAT     H223007   8.933   6.534   8.323
 7589WAT      O23008   2.465   8.761   7.119
 7589WAT     H123009   2.524   8.737   7.042
 7589WAT     H223010   2.496   8.711   7.200
 7590WAT      O23011   3.862   8.012   2.437
 7590WAT     H123012   3.919   7.932   2.416
 7590WAT     H223013   3.870   8.033   2.534
 7591WAT      O23014   8.905   5.024   9.821
 7591WAT     H123015   8.905   4.925   9.825
 7591WAT     H223016   8.986   5.056   9.771
 7592WAT      O23017   1.656   1.929   6.983
 7592WAT     H123018   1.714   1.986   6.925
 7592WAT     H223019   1.682   1.943   7.079
 7593WAT      O23020   1.001   7.488   5.755
 7593WAT     H123021   0.999   7.566   5.817
 7593WAT     H223022   0.972   7.405   5.803
 7594WAT      O23023   0.721   3.803   5.697
 7594WAT     H123024   0.741   3.743   5.619
 7594WAT     H223025   0.772   3.771   5.777
 7595WAT      O23026   1.139   9.678   3.758
 7595WAT     H123027   1.133   9.610   3.685
 7595WAT     H223028   1.234   9.706   3.769
 7596WAT      O23029   4.827   7.136   8.411
 7596WAT     H123030   4.918   7.094   8.407
 7596WAT     H223031   4.769   7.085   8.473
 7597WAT      O23032   6.327   8.690   4.420
 7597WAT     H123033   6.397   8.751   4.456
 7597WAT     H223034   6.353   8.660   4.328
 7598WAT      O23035   6.447   4.591   2.548
 7598WAT     H123036   6.425   4.522   2.617
 7598WAT     H223037   6.495   4.547   2.472
 7599WAT      O23038   6.567   0.855   6.299
 7599WAT     H123039   6.550   0.759   6.320
 7599WAT     H223040   6.511   0.913   6.359
 7600WAT      O23041   6.406   5.071   7.084
 7600WAT     H123042   6.441   5.034   7.171
 7600WAT     H223043   6.314   5.036   7.068
 7601WAT      O23044   3.037   8.602   7.760
 7601WAT     H123045   3.089   8.680   7.795
 7601WAT     H223046   3.086   8.563   7.682
 7602WAT      O23047   5.146   4.858   8.036
 7602WAT     H123048   5.242   4.882   8.042
 7602WAT     H223049   5.094   4.936   7.999
 7603WAT      O23050   9.891   6.221   2.033
 7603WAT     H123051   9.879   6.292   2.102
 7603WAT     H223052   9.808   6.213   1.978
 7604WAT      O23053   0.782   1.785   0.983
 7604WAT     H123054   0.726   1.703   0.994
 7604WAT     H223055   0.741   1.845   0.914
 7605WAT      O23056   5.542   2.095   8.161
 7605WAT     H123057   5.523   2.002   8.194
 7605WAT     H223058   5.519   2.100   8.064
 7606WAT      O23059   2.125   3.938   8.162
 7606WAT     H123060   2.189   3.929   8.238
 7606WAT     H223061   2.080   4.027   8.166
 7607WAT      O23062   0.265   1.671   0.591
 7607WAT     H123063   0.325   1.668   0.511
 7607WAT     H223064   0.319   1.687   0.673
 7608WAT      O23065   1.030   4.886   8.257
 7608WAT     H123066   0.935   4.862   8.275
 7608WAT     H223067   1.042   4.985   8.261
 7609WAT      O23068   4.812   3.236   1.956
 7609WAT     H123069   4.850   3.177   2.028
 7609WAT     H223070   4.856   3.325   1.960
 7610WAT      O23071   7.619   2.320   2.336
 7610WAT     H123072   7.621   2.410   2.293
 7610WAT     H223073   7.648   2.250   2.271
 7611WAT      O23074   6.499   1.276   4.986
 7611WAT     H123075   6.576   1.333   5.015
 7611WAT     H223076   6.450   1.322   4.912
 7612WAT      O23077   9.133   9.249   9.029
 7612WAT     H123078   9.075   9.170   9.048
 7612WAT     H223079   9.226   9.231   9.063
 7613WAT      O23080   5.010   7.156   1.679
 7613WAT     H123081   4.962   7.230   1.632
 7613WAT     H223082   4.969   7.142   1.769
 7614WAT      O23083   3.010   7.901   7.214
 7614WAT     H123084   3.052   7.810   7.207
 7614WAT     H223085   3.015   7.932   7.308
 7615WAT      O23086   7.748   7.779   8.627
 7615WAT     H123087   7.806   7.818   8.555
 7615WAT     H223088   7.792   7.792   8.715
 7616WAT      O23089   9.553   8.513   2.158
 7616WAT     H123090   9.573   8.548   2.066
 7616WAT     H223091   9.551   8.589   2.223
 7617WAT      O23092   5.472   9.741   6.983
 7617WAT     H123093   5.538   9.748   7.058
 7617WAT     H223094   5.490   9.813   6.916
 7618WAT      O23095   2.992   0.055   3.527
 7618WAT     H123096   2.961   0.139   3.483
 7618WAT     H223097   3.065   0.014   3.472
 7619WAT      O23098   4.530   7.781   4.356
 7619WAT     H123099   4.592   7.813   4.428
 7619WAT     H223100   4.560   7.819   4.268
 7620WAT      O23101   2.313   2.704   3.422
 7620WAT     H123102   2.335   2.611   3.451
 7620WAT     H223103   2.220   2.728   3.450
 7621WAT      O23104   7.427   8.300   8.211
 7621WAT     H123105   7.490   8.296   8.288
 7621WAT     H223106   7.339   8.260   8.236
 7622WAT      O23107   6.834   5.471   3.826
 7622WAT     H123108   6.887   5.386   3.819
 7622WAT     H223109   6.883   5.535   3.886
 7623WAT      O23110   8.005   1.966   1.373
 7623WAT     H123111   8.005   2.064   1.356
 7623WAT     H223112   8.091   1.926   1.342
 7624WAT      O23113   6.103   5.528   0.577
 7624WAT     H123114   6.075   5.440   0.537
 7624WAT     H223115   6.195   5.551   0.545
 7625WAT      O23116   3.790   6.633   0.612
 7625WAT     H123117   3.796   6.649   0.513
 7625WAT     H223118   3.694   6.627   0.639
 7626WAT      O23119   7.298   7.599   6.577
 7626WAT     H123120   7.286   7.514   6.526
 7626WAT     H223121   7.278   7.582   6.674
 7627WAT      O23122   2.315   1.485   3.796
 7627WAT     H123123   2.338   1.481   3.698
 7627WAT     H223124   2.272   1.573   3.816
 7628WAT      O23125   8.515   6.297   0.597
 7628WAT     H123126   8.455   6.369   0.632
 7628WAT     H223127   8.517   6.221   0.662
 7629WAT      O23128   5.916   6.798   8.235
 7629WAT     H123129   5.981   6.786   8.160
 7629WAT     H223130   5.828   6.759   8.210
 7630WAT      O23131   1.175   0.376   2.104
 7630WAT     H123132   1.144   0.297   2.051
 7630WAT     H223133   1.275   0.377   2.107
 7631WAT      O23134   1.749   3.826   3.575
 7631WAT     H123135   1.823   3.823   3.643
 7631WAT     H223136   1.667   3.783   3.614
 7632WAT      O23137   6.922   4.018   7.495
 7632WAT     H123138   6.961   3.970   7.417
 7632WAT     H223139   6.928   3.959   7.576
 7633WAT      O23140   4.235   0.553   0.674
 7633WAT     H123141   4.289   0.469   0.676
 7633WAT     H223142   4.158   0.542   0.611
 7634WAT      O23143   7.659   6.802   6.952
 7634WAT     H123144   7.626   6.845   7.035
 7634WAT     H223145   7.652   6.867   6.876
 7635WAT      O23146   5.615   4.218   9.539
 7635WAT     H123147   5.698   4.215   9.483
 7635WAT     H223148   5.536   4.228   9.479
 7636WAT      O23149   3.801   1.053   7.804
 7636WAT     H123150   3.868   0.979   7.808
 7636WAT     H223151   3.839   1.129   7.750
 7637WAT      O23152   3.579   6.354   6.069
 7637WAT     H123153   3.517   6.430   6.087
 7637WAT     H223154   3.673   6.386   6.076
 7638WAT      O23155   7.836   4.874   5.171
 7638WAT     H123156   7.900   4.934   5.123
 7638WAT     H223157   7.811   4.915   5.258
 7639WAT      O23158   8.637   7.345   4.471
 7639WAT     H123159   8.644   7.436   4.430
 7639WAT     H223160   8.708   7.333   4.540
 7640WAT      O23161   5.989   1.837   2.089
 7640WAT     H123162   6.036   1.875   2.169
 7640WAT     H223163   5.958   1.744   2.108
 7641WAT      O23164   0.644   5.366   0.680
 7641WAT     H123165   0.612   5.343   0.588
 7641WAT     H223166   0.568   5.359   0.745
 7642WAT      O23167   6.669   2.732   6.015
 7642WAT     H123168   6.692   2.739   5.918
 7642WAT     H223169   6.731   2.789   6.068
 7643WAT      O23170   6.118   2.763   6.911
 7643WAT     H123171   6.203   2.792   6.954
 7643WAT     H223172   6.136   2.733   6.817
 7644WAT      O23173   3.342   4.040   9.626
 7644WAT     H123174   3.372   3.993   9.709
 7644WAT     H223175   3.284   4.117   9.650
 7645WAT      O23176   9.864   3.125   6.625
 7645WAT     H123177   9.948   3.129   6.571
 7645WAT     H223178   9.880   3.164   6.715
 7646WAT      O23179   7.094   3.772   0.973
 7646WAT     H123180   7.167   3.756   0.907
 7646WAT     H223181   7.135   3.800   1.061
 7647WAT      O23182   2.895   4.905   6.979
 7647WAT     H123183   2.831   4.941   7.047
 7647WAT     H223184   2.879   4.807   6.966
 7648WAT      O23185   1.313   9.669   5.485
 7648WAT     H123186   1.283   9.614   5.563
 7648WAT     H223187   1.369   9.745   5.518
 7649WAT      O23188   9.570   3.261   7.367
 7649WAT     H123189   9.645   3.216   7.416
 7649WAT     H223190   9.579   3.360   7.376
 7650WAT      O23191   7.467   7.837   8.182
 7650WAT     H123192   7.429   7.813   8.271
 7650WAT     H223193   7.468   7.757   8.123
 7651WAT      O23194   1.155   0.200   2.339
 7651WAT     H123195   1.119   0.239   2.254
 7651WAT     H223196   1.247   0.235   2.356
 7652WAT      O23197   0.152   5.572   3.943
 7652WAT     H123198   0.131   5.669   3.931
 7652WAT     H223199   0.082   5.517   3.897
 7653WAT      O23200   1.543   9.695   0.186
 7653WAT     H123201   1.607   9.660   0.254
 7653WAT     H223202   1.462   9.732   0.232
 7654WAT      O23203   8.837   2.120   5.663
 7654WAT     H123204   8.760   2.177   5.692
 7654WAT     H223205   8.855   2.050   5.732
 7655WAT      O23206   2.030   5.569   8.589
 7655WAT     H123207   1.978   5.527   8.514
 7655WAT     H223208   1.975   5.641   8.631
 7656WAT      O23209   1.021   2.265   0.683
 7656WAT     H123210   1.025   2.219   0.594
 7656WAT     H223211   1.114   2.287   0.713
 7657WAT      O23212   4.363   5.599   2.281
 7657WAT     H123213   4.321   5.687   2.262
 7657WAT     H223214   4.294   5.527   2.278
 7658WAT      O23215   4.735   9.556   0.230
 7658WAT     H123216   4.796   9.628   0.195
 7658WAT     H223217   4.733   9.480   0.165
 7659WAT      O23218   9.693   8.874   8.515
 7659WAT     H123219   9.733   8.813   8.448
 7659WAT     H223220   9.748   8.957   8.522
 7660WAT      O23221   5.127   6.908   4.735
 7660WAT     H123222   5.164   6.887   4.825
 7660WAT     H223223   5.165   6.844   4.668
 7661WAT      O23224   3.753   7.307   0.359
 7661WAT     H123225   3.718   7.337   0.270
 7661WAT     H223226   3.800   7.383   0.404
 7662WAT      O23227   7.076   0.119   1.997
 7662WAT     H123228   7.086   0.023   1.971
 7662WAT     H223229   7.143   0.174   1.948
 7663WAT      O23230   5.199   7.707   5.689
 7663WAT     H123231   5.271   7.685   5.623
 7663WAT     H223232   5.139   7.628   5.700
 7664WAT      O23233   3.161   5.428   0.178
 7664WAT     H123234   3.088   5.454   0.115
 7664WAT     H223235   3.159   5.329   0.193
 7665WAT      O23236   4.914   0.899   9.147
 7665WAT     H123237   4.882   0.993   9.161
 7665WAT     H223238   4.839   0.836   9.166
 7666WAT      O23239   7.999   1.493   1.877
 7666WAT     H123240   8.000   1.394   1.859
 7666WAT     H223241   8.006   1.509   1.975
 7667WAT      O23242   6.068   8.566   0.874
 7667WAT     H123243   6.157   8.551   0.830
 7667WAT     H223244   6.070   8.653   0.924
 7668WAT      O23245   0.916   5.180   1.174
 7668WAT     H123246   1.003   5.218   1.144
 7668WAT     H223247   0.931   5.095   1.224
 7669WAT      O23248   8.269   5.569   7.933
 7669WAT     H123249   8.278   5.641   8.002
 7669WAT     H223250   8.256   5.481   7.979
 7670WAT      O23251   3.020   1.451   3.677
 7670WAT     H123252   3.055   1.361   3.653
 7670WAT     H223253   3.088   1.521   3.656
 7671WAT      O23254   0.400   1.800   6.924
 7671WAT     H123255   0.413   1.891   6.885
 7671WAT     H223256   0.303   1.788   6.948
 7672WAT      O23257   7.925   5.815   0.009
 7672WAT     H123258   7.953   5.907  -0.020
 7672WAT     H223259   7.947   5.803   0.106
 7673WAT      O23260   1.852   7.950   1.718
 7673WAT     H123261   1.842   7.866   1.772
 7673WAT     H223262   1.819   7.935   1.625
 7674WAT      O23263   9.188   1.797   0.962
 7674WAT     H123264   9.234   1.826   1.046
 7674WAT     H223265   9.229   1.712   0.929
 7675WAT      O23266   3.940   2.775   2.525
 7675WAT     H123267   3.966   2.871   2.513
 7675WAT     H223268   3.996   2.717   2.466
 7676WAT      O23269   8.307   3.649   0.061
 7676WAT     H123270   8.218   3.687   0.035
 7676WAT     H223271   8.302   3.549   0.063
 7677WAT      O23272   4.833   1.661   6.927
 7677WAT     H123273   4.916   1.620   6.966
 7677WAT     H223274   4.814   1.747   6.973
 7678WAT      O23275   4.870   8.900   3.052
 7678WAT     H123276   4.932   8.822   3.053
 7678WAT     H223277   4.797   8.885   3.119
 7679WAT      O23278   4.539   1.838   4.376
 7679WAT     H123279   4.480   1.860   4.454
 7679WAT     H223280   4.488   1.851   4.291
 7680WAT      O23281   4.958   5.820   1.644
 7680WAT     H123282   4.922   5.818   1.737
 7680WAT     H223283   4.928   5.739   1.595
 7681WAT      O23284   5.457   5.623   2.529
 7681WAT     H123285   5.514   5.696   2.491
 7681WAT     H223286   5.434   5.557   2.457
 7682WAT      O23287   2.880   0.363   4.337
 7682WAT     H123288   2.877   0.305   4.255
 7682WAT     H223289   2.971   0.403   4.347
 7683WAT      O23290   5.869   0.450   5.817
 7683WAT     H123291   5.901   0.369   5.767
 7683WAT     H223292   5.827   0.514   5.752
 7684WAT      O23293   3.139   5.307   7.908
 7684WAT     H123294   3.209   5.372   7.939
 7684WAT     H223295   3.142   5.225   7.966
 7685WAT      O23296   5.064   3.202   2.501
 7685WAT     H123297   5.075   3.292   2.544
 7685WAT     H223298   4.985   3.156   2.541
 7686WAT      O23299   7.227   6.113   8.736
 7686WAT     H123300   7.283   6.156   8.807
 7686WAT     H223301   7.168   6.043   8.779
 7687WAT      O23302   8.122   9.238   1.733
 7687WAT     H123303   8.151   9.228   1.638
 7687WAT     H223304   8.145   9.154   1.784
 7688WAT      O23305   8.620   8.266   3.775
 7688WAT     H123306   8.596   8.358   3.743
 7688WAT     H223307   8.719   8.254   3.770
 7689WAT      O23308   2.000   6.392   3.007
 7689WAT     H123309   2.079   6.381   2.946
 7689WAT     H223310   1.940   6.463   2.970
 7690WAT      O23311   7.851   5.106   5.998
 7690WAT     H123312   7.756   5.098   5.967
 7690WAT     H223313   7.899   5.020   5.981
 7691WAT      O23314   4.597   5.571   7.204
 7691WAT     H123315   4.603   5.559   7.303
 7691WAT     H223316   4.538   5.500   7.166
 7692WAT      O23317   9.222   5.384   8.302
 7692WAT     H123318   9.241   5.410   8.207
 7692WAT     H223319   9.273   5.301   8.324
 7693WAT      O23320   7.871   7.234   3.587
 7693WAT     H123321   7.784   7.194   3.617
 7693WAT     H223322   7.911   7.286   3.662
 7694WAT      O23323   2.308   1.775   2.019
 7694WAT     H123324   2.289   1.813   1.929
 7694WAT     H223325   2.325   1.849   2.084
 7695WAT      O23326   8.964   2.622   7.574
 7695WAT     H123327   9.034   2.643   7.643
 7695WAT     H223328   9.008   2.589   7.491
 7696WAT      O23329   0.612   2.622   9.649
 7696WAT     H123330   0.595   2.559   9.573
 7696WAT     H223331   0.691   2.591   9.702
 7697WAT      O23332   3.541   9.746   5.620
 7697WAT     H123333   3.526   9.797   5.535
 7697WAT     H223334   3.577   9.808   5.689
 7698WAT      O23335   2.449   9.822   5.921
 7698WAT     H123336   2.430   9.741   5.865
 7698WAT     H223337   2.547   9.841   5.919
 7699WAT      O23338   8.849   1.939   7.056
 7699WAT     H123339   8.773   1.953   7.119
 7699WAT     H223340   8.902   1.859   7.085
 7700WAT      O23341   4.528   8.179   3.795
 7700WAT     H123342   4.577   8.096   3.821
 7700WAT     H223343   4.583   8.259   3.820
 7701WAT      O23344   5.009   8.190   9.575
 7701WAT     H123345   5.080   8.259   9.588
 7701WAT     H223346   4.950   8.186   9.655
 7702WAT      O23347   6.201   3.262   9.420
 7702WAT     H123348   6.235   3.174   9.387
 7702WAT     H223349   6.152   3.309   9.346
 7703WAT      O23350   0.604   1.009   0.404
 7703WAT     H123351   0.584   0.939   0.335
 7703WAT     H223352   0.603   1.100   0.361
 7704WAT      O23353   9.277   4.200   7.410
 7704WAT     H123354   9.209   4.216   7.482
 7704WAT     H223355   9.245   4.129   7.349
 7705WAT      O23356   3.115   1.815   5.512
 7705WAT     H123357   3.140   1.730   5.559
 7705WAT     H223358   3.045   1.796   5.444
 7706WAT      O23359   9.033   9.155   1.044
 7706WAT     H123360   8.945   9.184   1.081
 7706WAT     H223361   9.028   9.058   1.019
 7707WAT      O23362   0.298   2.653   4.152
 7707WAT     H123363   0.297   2.601   4.066
 7707WAT     H223364   0.206   2.686   4.172
 7708WAT      O23365   9.874   6.420   9.514
 7708WAT     H123366   9.900   6.324   9.526
 7708WAT     H223367   9.804   6.444   9.582
 7709WAT      O23368   2.185   9.193   6.373
 7709WAT     H123369   2.270   9.230   6.409
 7709WAT     H223370   2.122   9.268   6.352
 7710WAT      O23371   1.315   6.822   8.505
 7710WAT     H123372   1.325   6.744   8.567
 7710WAT     H223373   1.227   6.866   8.522
 7711WAT      O23374   6.557   5.957   0.012
 7711WAT     H123375   6.580   6.053   0.028
 7711WAT     H223376   6.619   5.919  -0.057
 7712WAT      O23377   7.209   6.281   2.763
 7712WAT     H123378   7.245   6.276   2.856
 7712WAT     H223379   7.110   6.271   2.765
 7713WAT      O23380   4.991   5.060   0.382
 7713WAT     H123381   4.926   5.004   0.434
 7713WAT     H223382   5.077   5.069   0.434
 7714WAT      O23383   0.605   2.506   8.455
 7714WAT     H123384   0.518   2.483   8.499
 7714WAT     H223385   0.591   2.582   8.391
 7715WAT      O23386   5.035   0.329   7.924
 7715WAT     H123387   5.071   0.236   7.925
 7715WAT     H223388   4.936   0.326   7.911
 7716WAT      O23389   3.661   2.862   5.649
 7716WAT     H123390   3.701   2.850   5.740
 7716WAT     H223391   3.686   2.784   5.591
 7717WAT      O23392   7.223   2.248   1.958
 7717WAT     H123393   7.291   2.199   2.012
 7717WAT     H223394   7.177   2.316   2.015
 7718WAT      O23395   1.002   3.475   2.544
 7718WAT     H123396   1.028   3.417   2.468
 7718WAT     H223397   0.902   3.486   2.545
 7719WAT      O23398   2.952   5.283   3.995
 7719WAT     H123399   2.998   5.194   3.992
 7719WAT     H223400   2.918   5.300   4.088
 7720WAT      O23401   9.394   8.376   3.852
 7720WAT     H123402   9.445   8.295   3.881
 7720WAT     H223403   9.439   8.417   3.773
 7721WAT      O23404   4.392   6.994   8.390
 7721WAT     H123405   4.319   7.009   8.323
 7721WAT     H223406   4.358   7.015   8.481
 7722WAT      O23407   2.139   6.857   2.277
 7722WAT     H123408   2.212   6.845   2.345
 7722WAT     H223409   2.180   6.877   2.188
 7723WAT      O23410   6.124   7.092   2.406
 7723WAT     H123411   6.114   7.041   2.320
 7723WAT     H223412   6.207   7.147   2.402
 7724WAT      O23413   1.468   0.868   2.438
 7724WAT     H123414   1.481   0.960   2.402
 7724WAT     H223415   1.409   0.870   2.518
 7725WAT      O23416   2.585   4.994   1.900
 7725WAT     H123417   2.614   4.915   1.954
 7725WAT     H223418   2.575   5.073   1.961
 7726WAT      O23419   6.930   4.712   1.606
 7726WAT     H123420   6.877   4.667   1.679
 7726WAT     H223421   6.875   4.784   1.564
 7727WAT      O23422   4.095   4.389   5.272
 7727WAT     H123423   4.034   4.459   5.237
 7727WAT     H223424   4.134   4.420   5.359
 7728WAT      O23425   6.462   0.565   5.938
 7728WAT     H123426   6.477   0.644   5.997
 7728WAT     H223427   6.548   0.514   5.928
 7729WAT      O23428   3.589   3.279   8.630
 7729WAT     H123429   3.583   3.305   8.534
 7729WAT     H223430   3.498   3.249   8.661
 7730WAT      O23431   6.525   8.841   4.523
 7730WAT     H123432   6.522   8.939   4.503
 7730WAT     H223433   6.601   8.799   4.473
 7731WAT      O23434   1.196   2.421   5.806
 7731WAT     H123435   1.199   2.357   5.729
 7731WAT     H223436   1.100   2.441   5.828
 7732WAT      O23437   7.581   8.266   2.765
 7732WAT     H123438   7.504   8.275   2.702
 7732WAT     H223439   7.646   8.340   2.749
 7733WAT      O23440   2.849   9.647   2.748
 7733WAT     H123441   2.785   9.608   2.681
 7733WAT     H223442   2.912   9.709   2.701
 7734WAT      O23443   7.739   6.381   7.036
 7734WAT     H123444   7.669   6.373   7.107
 7734WAT     H223445   7.783   6.292   7.022
 7735WAT      O23446   6.858   2.414   8.334
 7735WAT     H123447   6.873   2.352   8.257
 7735WAT     H223448   6.778   2.471   8.315
 7736WAT      O23449   4.150   6.991   3.421
 7736WAT     H123450   4.208   6.958   3.347
 7736WAT     H223451   4.179   7.083   3.448
 7737WAT      O23452   6.459   9.487   5.995
 7737WAT     H123453   6.381   9.490   5.932
 7737WAT     H223454   6.426   9.497   6.089
 7738WAT      O23455   9.352   7.995   1.795
 7738WAT     H123456   9.361   8.093   1.776
 7738WAT     H223457   9.438   7.960   1.831
 7739WAT      O23458   5.433   9.152   8.976
 7739WAT     H123459   5.468   9.162   9.069
 7739WAT     H223460   5.458   9.061   8.941
 7740WAT      O23461   9.002   0.136   7.517
 7740WAT     H123462   9.070   0.094   7.457
 7740WAT     H223463   8.928   0.175   7.461
 7741WAT      O23464   9.873   5.547   7.153
 7741WAT     H123465   9.847   5.644   7.155
 7741WAT     H223466   9.855   5.510   7.062
 7742WAT      O23467   7.950   3.051   3.180
 7742WAT     H123468   8.013   3.000   3.121
 7742WAT     H223469   7.872   3.082   3.127
 7743WAT      O23470   8.985   2.987   9.440
 7743WAT     H123471   8.965   3.014   9.346
 7743WAT     H223472   8.900   2.967   9.489
 7744WAT      O23473   4.382   2.564   5.821
 7744WAT     H123474   4.455   2.515   5.868
 7744WAT     H223475   4.415   2.653   5.790
 7745WAT      O23476   3.749   8.343   0.260
 7745WAT     H123477   3.760   8.442   0.268
 7745WAT     H223478   3.796   8.298   0.336
 7746WAT      O23479   1.162   3.400   4.238
 7746WAT     H123480   1.084   3.374   4.181
 7746WAT     H223481   1.243   3.411   4.180
 7747WAT      O23482   4.184   2.062   6.636
 7747WAT     H123483   4.253   2.073   6.564
 7747WAT     H223484   4.229   2.031   6.720
 7748WAT      O23485   1.914   4.854   3.974
 7748WAT     H123486   1.828   4.808   3.996
 7748WAT     H223487   1.952   4.815   3.890
 7749WAT      O23488   8.923   7.787   5.850
 7749WAT     H123489   8.881   7.805   5.762
 7749WAT     H223490   8.853   7.788   5.922
 7750WAT      O23491   3.645   0.269   0.428
 7750WAT     H123492   3.642   0.253   0.527
 7750WAT     H223493   3.621   0.185   0.381
 7751WAT      O23494   5.015   4.990   0.120
 7751WAT     H123495   4.927   4.951   0.091
 7751WAT     H223496   5.004   5.031   0.210
 7752WAT      O23497   0.852   6.898   6.104
 7752WAT     H123498   0.937   6.854   6.073
 7752WAT     H223499   0.822   6.855   6.189
 7753WAT      O23500   4.000   9.170   4.496
 7753WAT     H123501   3.946   9.092   4.465
 7753WAT     H223502   4.008   9.236   4.421
 7754WAT      O23503   1.192   6.875   4.272
 7754WAT     H123504   1.098   6.886   4.241
 7754WAT     H223505   1.197   6.890   4.371
 7755WAT      O23506   8.239   4.297   2.452
 7755WAT     H123507   8.151   4.321   2.412
 7755WAT     H223508   8.247   4.336   2.544
 7756WAT      O23509   9.871   2.254   3.044
 7756WAT     H123510   9.914   2.277   3.131
 7756WAT     H223511   9.846   2.338   2.996
 7757WAT      O23512   3.658   2.433   8.983
 7757WAT     H123513   3.704   2.421   9.071
 7757WAT     H223514   3.689   2.518   8.941
 7758WAT      O23515   1.273   0.108   7.385
 7758WAT     H123516   1.183   0.148   7.405
 7758WAT     H223517   1.300   0.049   7.461
 7759WAT      O23518   8.447   9.045   7.290
 7759WAT     H123519   8.535   9.065   7.335
 7759WAT     H223520   8.450   9.077   7.196
 7760WAT      O23521   3.551   7.477   6.261
 7760WAT     H123522   3.644   7.497   6.230
 7760WAT     H223523   3.529   7.534   6.340
 7761WAT      O23524   4.623   6.114   7.487
 7761WAT     H123525   4.614   6.214   7.492
 7761WAT     H223526   4.688   6.090   7.414
 7762WAT      O23527   0.288   3.366   5.135
 7762WAT     H123528   0.272   3.343   5.231
 7762WAT     H223529   0.203   3.361   5.084
 7763WAT      O23530   8.619   9.656   3.595
 7763WAT     H123531   8.628   9.713   3.513
 7763WAT     H223532   8.593   9.564   3.568
 7764WAT      O23533   9.036   2.867   4.897
 7764WAT     H123534   9.039   2.910   4.807
 7764WAT     H223535   9.096   2.916   4.960
 7765WAT      O23536   9.717   8.776   0.066
 7765WAT     H123537   9.677   8.714   0.133
 7765WAT     H223538   9.797   8.820   0.105
 7766WAT      O23539   1.324   9.472   3.224
 7766WAT     H123540   1.388   9.434   3.291
 7766WAT     H223541   1.366   9.471   3.133
 7767WAT      O23542   3.522   6.075   9.544
 7767WAT     H123543   3.542   5.983   9.579
 7767WAT     H223544   3.602   6.133   9.555
 7768WAT      O23545   7.674   7.052   7.646
 7768WAT     H123546   7.678   6.952   7.646
 7768WAT     H223547   7.586   7.081   7.685
 7769WAT      O23548   3.753   7.288   5.466
 7769WAT     H123549   3.710   7.200   5.447
 7769WAT     H223550   3.767   7.337   5.381
 7770WAT      O23551   1.339   0.232   0.104
 7770WAT     H123552   1.379   0.313   0.147
 7770WAT     H223553   1.265   0.196   0.161
 7771WAT      O23554   5.511   5.633   1.980
 7771WAT     H123555   5.422   5.616   1.937
 7771WAT     H223556   5.498   5.654   2.077
 7772WAT      O23557   6.547   7.758   9.100
 7772WAT     H123558   6.533   7.752   9.001
 7772WAT     H223559   6.557   7.666   9.137
 7773WAT      O23560   6.268   0.432   4.568
 7773WAT     H123561   6.263   0.337   4.601
 7773WAT     H223562   6.183   0.480   4.589
 7774WAT      O23563   7.824   9.689   1.091
 7774WAT     H123564   7.851   9.753   1.020
 7774WAT     H223565   7.725   9.678   1.092
 7775WAT      O23566   2.982   8.413   0.117
 7775WAT     H123567   2.936   8.327   0.095
 7775WAT     H223568   2.944   8.450   0.203
 7776WAT      O23569   2.220   5.700   0.632
 7776WAT     H123570   2.206   5.772   0.701
 7776WAT     H223571   2.243   5.742   0.544
 7777WAT      O23572   4.687   8.104   4.669
 7777WAT     H123573   4.588   8.119   4.670
 7777WAT     H223574   4.708   8.022   4.616
 7778WAT      O23575   7.430   2.153   3.644
 7778WAT     H123576   7.330   2.162   3.637
 7778WAT     H223577   7.464   2.094   3.571
 7779WAT      O23578   1.055   5.207   3.141
 7779WAT     H123579   1.045   5.301   3.174
 7779WAT     H223580   1.103   5.152   3.210
 7780WAT      O23581   4.928   4.096   1.244
 7780WAT     H123582   5.008   4.152   1.220
 7780WAT     H223583   4.855   4.111   1.177
 7781WAT      O23584   1.210   5.246   5.347
 7781WAT     H123585   1.209   5.225   5.445
 7781WAT     H223586   1.181   5.341   5.333
 7782WAT      O23587   2.426   9.654   7.333
 7782WAT     H123588   2.381   9.686   7.250
 7782WAT     H223589   2.467   9.732   7.380
 7783WAT      O23590   3.154   6.237   5.147
 7783WAT     H123591   3.170   6.267   5.053
 7783WAT     H223592   3.080   6.290   5.187
 7784WAT      O23593   8.502   6.956   3.363
 7784WAT     H123594   8.460   6.961   3.272
 7784WAT     H223595   8.446   7.008   3.428
 7785WAT      O23596   3.153   3.655   8.949
 7785WAT     H123597   3.223   3.623   8.885
 7785WAT     H223598   3.194   3.719   9.014
 7786WAT      O23599   3.157   4.671   9.278
 7786WAT     H123600   3.209   4.755   9.294
 7786WAT     H223601   3.168   4.642   9.183
 7787WAT      O23602   8.975   8.669   0.802
 7787WAT     H123603   8.972   8.756   0.853
 7787WAT     H223604   9.019   8.684   0.714
 7788WAT      O23605   9.541   7.668   6.845
 7788WAT     H123606   9.525   7.597   6.913
 7788WAT     H223607   9.455   7.714   6.823
 7789WAT      O23608   3.372   0.388   0.906
 7789WAT     H123609   3.327   0.337   0.979
 7789WAT     H223610   3.307   0.452   0.865
 7790WAT      O23611   1.160   6.270   6.950
 7790WAT     H123612   1.112   6.358   6.946
 7790WAT     H223613   1.109   6.201   6.899
 7791WAT      O23614   5.083   1.785   9.192
 7791WAT     H123615   5.145   1.711   9.164
 7791WAT     H223616   5.015   1.750   9.256
 7792WAT      O23617   5.309   1.914   1.149
 7792WAT     H123618   5.353   1.830   1.118
 7792WAT     H223619   5.261   1.957   1.072
 7793WAT      O23620   4.171   6.995   7.564
 7793WAT     H123621   4.267   6.975   7.588
 7793WAT     H223622   4.153   6.964   7.471
 7794WAT      O23623   4.882   8.748   0.543
 7794WAT     H123624   4.850   8.829   0.593
 7794WAT     H223625   4.840   8.745   0.453
 7795WAT      O23626   4.911   4.350   8.742
 7795WAT     H123627   4.984   4.286   8.765
 7795WAT     H223628   4.846   4.355   8.818
 7796WAT      O23629   5.229   6.953   6.458
 7796WAT     H123630   5.250   6.893   6.536
 7796WAT     H223631   5.244   7.048   6.484
 7797WAT      O23632   6.240   8.555   2.016
 7797WAT     H123633   6.288   8.526   2.099
 7797WAT     H223634   6.297   8.535   1.937
 7798WAT      O23635   6.815   7.778   6.584
 7798WAT     H123636   6.760   7.713   6.531
 7798WAT     H223637   6.910   7.775   6.552
 7799WAT      O23638   0.366   8.022   4.502
 7799WAT     H123639   0.305   7.951   4.467
 7799WAT     H223640   0.339   8.110   4.463
 7800WAT      O23641   1.051   6.184   2.858
 7800WAT     H123642   1.107   6.104   2.835
 7800WAT     H223643   0.993   6.207   2.780
 7801WAT      O23644   1.185   6.065   8.669
 7801WAT     H123645   1.115   6.111   8.723
 7801WAT     H223646   1.191   5.969   8.696
 7802WAT      O23647   8.772   4.336   9.685
 7802WAT     H123648   8.707   4.370   9.617
 7802WAT     H223649   8.759   4.238   9.698
 7803WAT      O23650   1.177   1.397   4.189
 7803WAT     H123651   1.159   1.469   4.122
 7803WAT     H223652   1.091   1.366   4.229
 7804WAT      O23653   0.829   5.032   4.749
 7804WAT     H123654   0.748   4.993   4.706
 7804WAT     H223655   0.909   5.013   4.693
 7805WAT      O23656   6.275   4.956   7.444
 7805WAT     H123657   6.336   5.019   7.396
 7805WAT     H223658   6.184   4.960   7.403
 7806WAT      O23659   2.563   4.677   1.116
 7806WAT     H123660   2.623   4.687   1.036
 7806WAT     H223661   2.567   4.760   1.171
 7807WAT      O23662   3.931   6.368   0.464
 7807WAT     H123663   4.025   6.362   0.499
 7807WAT     H223664   3.884   6.443   0.510
 7808WAT      O23665   5.216   4.229   6.204
 7808WAT     H123666   5.267   4.228   6.118
 7808WAT     H223667   5.121   4.254   6.186
 7809WAT      O23668   8.426   2.213   7.671
 7809WAT     H123669   8.350   2.242   7.613
 7809WAT     H223670   8.494   2.286   7.675
 7810WAT      O23671   8.580   8.434   7.172
 7810WAT     H123672   8.529   8.514   7.142
 7810WAT     H223673   8.551   8.408   7.264
 7811WAT      O23674   9.150   4.056   2.532
 7811WAT     H123675   9.116   3.980   2.587
 7811WAT     H223676   9.125   4.042   2.436
 7812WAT      O23677   8.647   4.432   3.795
 7812WAT     H123678   8.620   4.528   3.793
 7812WAT     H223679   8.726   4.421   3.855
 7813WAT      O23680   7.784   4.823   6.143
 7813WAT     H123681   7.846   4.820   6.064
 7813WAT     H223682   7.690   4.838   6.111
 7814WAT      O23683   2.615   8.731   3.019
 7814WAT     H123684   2.636   8.828   3.034
 7814WAT     H223685   2.519   8.714   3.041
 7815WAT      O23686   8.664   0.627   1.253
 7815WAT     H123687   8.602   0.590   1.323
 7815WAT     H223688   8.700   0.551   1.198
 7816WAT      O23689   8.122   6.901   7.916
 7816WAT     H123690   8.049   6.892   7.983
 7816WAT     H223691   8.109   6.985   7.863
 7817WAT      O23692   6.668   5.827   4.164
 7817WAT     H123693   6.599   5.872   4.108
 7817WAT     H223694   6.756   5.830   4.117
 7818WAT      O23695   0.603   5.870   0.063
 7818WAT     H123696   0.583   5.965   0.037
 7818WAT     H223697   0.702   5.860   0.078
 7819WAT      O23698   6.998   1.996   3.771
 7819WAT     H123699   6.905   2.032   3.763
 7819WAT     H223700   7.011   1.924   3.703
 7820WAT      O23701   9.310   6.858   1.713
 7820WAT     H123702   9.296   6.790   1.785
 7820WAT     H223703   9.266   6.827   1.629
 7821WAT      O23704   8.165   1.189   6.557
 7821WAT     H123705   8.167   1.121   6.630
 7821WAT     H223706   8.250   1.241   6.558
 7822WAT      O23707   7.405   5.952   7.096
 7822WAT     H123708   7.363   6.042   7.104
 7822WAT     H223709   7.334   5.882   7.089
 7823WAT      O23710   6.789   1.751   4.610
 7823WAT     H123711   6.789   1.655   4.639
 7823WAT     H223712   6.812   1.757   4.513
 7824WAT      O23713   1.875   9.567   5.337
 7824WAT     H123714   1.794   9.594   5.388
 7824WAT     H223715   1.953   9.623   5.366
 7825WAT      O23716   5.565   1.423   3.880
 7825WAT     H123717   5.521   1.359   3.817
 7825WAT     H223718   5.661   1.436   3.854
 7826WAT      O23719   8.757   6.561   0.876
 7826WAT     H123720   8.687   6.514   0.929
 7826WAT     H223721   8.776   6.508   0.793
 7827WAT      O23722   0.200   5.301   3.533
 7827WAT     H123723   0.264   5.344   3.597
 7827WAT     H223724   0.205   5.202   3.542
 7828WAT      O23725   0.472   3.816   5.806
 7828WAT     H123726   0.429   3.735   5.765
 7828WAT     H223727   0.572   3.810   5.795
 7829WAT      O23728   6.162   7.747   9.575
 7829WAT     H123729   6.148   7.699   9.488
 7829WAT     H223730   6.082   7.735   9.633
 7830WAT      O23731   3.666   8.770   8.011
 7830WAT     H123732   3.575   8.732   7.996
 7830WAT     H223733   3.704   8.733   8.096
 7831WAT      O23734   7.033   7.693   5.220
 7831WAT     H123735   7.037   7.760   5.146
 7831WAT     H223736   7.043   7.739   5.308
 7832WAT      O23737   8.827   1.763   3.648
 7832WAT     H123738   8.805   1.709   3.567
 7832WAT     H223739   8.746   1.814   3.677
 7833WAT      O23740   7.271   0.498   3.546
 7833WAT     H123741   7.358   0.460   3.513
 7833WAT     H223742   7.219   0.426   3.591
 7834WAT      O23743   3.302   3.530   8.378
 7834WAT     H123744   3.320   3.624   8.350
 7834WAT     H223745   3.243   3.530   8.459
 7835WAT      O23746   6.154   6.454   5.173
 7835WAT     H123747   6.234   6.470   5.231
 7835WAT     H223748   6.071   6.469   5.227
 7836WAT      O23749   6.104   7.677   4.595
 7836WAT     H123750   6.043   7.647   4.668
 7836WAT     H223751   6.172   7.740   4.633
 7837WAT      O23752   3.658   5.637   0.384
 7837WAT     H123753   3.731   5.671   0.444
 7837WAT     H223754   3.585   5.599   0.440
 7838WAT      O23755   9.370   5.112   0.746
 7838WAT     H123756   9.304   5.140   0.816
 7838WAT     H223757   9.349   5.160   0.661
 7839WAT      O23758   2.205   4.138   3.893
 7839WAT     H123759   2.188   4.118   3.990
 7839WAT     H223760   2.300   4.169   3.881
 7840WAT      O23761   1.414   3.508   1.500
 7840WAT     H123762   1.480   3.435   1.514
 7840WAT     H223763   1.390   3.515   1.403
 7841WAT      O23764   8.637   1.240   4.486
 7841WAT     H123765   8.687   1.154   4.496
 7841WAT     H223766   8.632   1.265   4.390
 7842WAT      O23767   3.390   6.606   0.928
 7842WAT     H123768   3.304   6.617   0.880
 7842WAT     H223769   3.457   6.562   0.868
 7843WAT      O23770   2.359   7.754   6.885
 7843WAT     H123771   2.275   7.707   6.913
 7843WAT     H223772   2.435   7.689   6.890
 7844WAT      O23773   5.246   1.455   1.876
 7844WAT     H123774   5.210   1.540   1.838
 7844WAT     H223775   5.316   1.418   1.815
 7845WAT      O23776   4.321   9.842   8.696
 7845WAT     H123777   4.234   9.795   8.706
 7845WAT     H223778   4.364   9.854   8.786
 7846WAT      O23779   1.723   8.093   7.473
 7846WAT     H123780   1.740   7.996   7.492
 7846WAT     H223781   1.663   8.130   7.545
 7847WAT      O23782   6.290   8.888   7.686
 7847WAT     H123783   6.371   8.942   7.710
 7847WAT     H223784   6.228   8.943   7.630
 7848WAT      O23785   9.391   5.830   4.040
 7848WAT     H123786   9.425   5.847   4.132
 7848WAT     H223787   9.386   5.916   3.990
 7849WAT      O23788   3.827   0.724   2.999
 7849WAT     H123789   3.802   0.655   3.067
 7849WAT     H223790   3.895   0.687   2.936
 7850WAT      O23791   9.031   7.919   6.788
 7850WAT     H123792   9.023   7.981   6.709
 7850WAT     H223793   8.992   7.830   6.763
 7851WAT      O23794   8.877   7.052   7.565
 7851WAT     H123795   8.872   7.017   7.658
 7851WAT     H223796   8.970   7.081   7.545
 7852WAT      O23797   3.770   7.942   8.646
 7852WAT     H123798   3.671   7.945   8.640
 7852WAT     H223799   3.800   7.982   8.733
 7853WAT      O23800   5.340   4.640   5.210
 7853WAT     H123801   5.296   4.560   5.251
 7853WAT     H223802   5.394   4.610   5.130
 7854WAT      O23803   6.416   9.747   6.811
 7854WAT     H123804   6.503   9.699   6.795
 7854WAT     H223805   6.428   9.845   6.796
 7855WAT      O23806   4.858   5.543   7.157
 7855WAT     H123807   4.857   5.452   7.114
 7855WAT     H223808   4.764   5.575   7.169
 7856WAT      O23809   2.699   6.859   0.268
 7856WAT     H123810   2.737   6.832   0.356
 7856WAT     H223811   2.764   6.919   0.221
 7857WAT      O23812   3.409   3.530   1.749
 7857WAT     H123813   3.439   3.436   1.727
 7857WAT     H223814   3.489   3.584   1.777
 7858WAT      O23815   5.682   8.671   5.318
 7858WAT     H123816   5.665   8.642   5.225
 7858WAT     H223817   5.600   8.714   5.356
 7859WAT      O23818   8.095   2.581   3.920
 7859WAT     H123819   8.057   2.673   3.917
 7859WAT     H223820   8.077   2.540   4.010
 7860WAT      O23821   2.878   3.336   7.005
 7860WAT     H123822   2.792   3.308   7.048
 7860WAT     H223823   2.938   3.256   6.996
 7861WAT      O23824   7.974   1.592   5.590
 7861WAT     H123825   7.913   1.636   5.525
 7861WAT     H223826   7.974   1.493   5.574
 7862WAT      O23827   8.774   8.778   8.799
 7862WAT     H123828   8.800   8.686   8.827
 7862WAT     H223829   8.856   8.835   8.789
 7863WAT      O23830   4.117   7.910   1.687
 7863WAT     H123831   4.177   7.881   1.612
 7863WAT     H223832   4.038   7.850   1.691
 7864WAT      O23833   7.954   2.347   8.511
 7864WAT     H123834   7.918   2.377   8.422
 7864WAT     H223835   7.926   2.411   8.582
 7865WAT      O23836   0.034   1.641   8.706
 7865WAT     H123837   0.009   1.706   8.634
 7865WAT     H223838   0.132   1.622   8.702
 7866WAT      O23839   7.560   5.180   1.864
 7866WAT     H123840   7.492   5.247   1.896
 7866WAT     H223841   7.647   5.196   1.911
 7867WAT      O23842   3.245   0.788   5.437
 7867WAT     H123843   3.308   0.741   5.375
 7867WAT     H223844   3.278   0.779   5.531
 7868WAT      O23845   7.290   7.126   6.831
 7868WAT     H123846   7.298   7.027   6.820
 7868WAT     H223847   7.248   7.146   6.919
 7869WAT      O23848   7.086   5.753   4.863
 7869WAT     H123849   7.052   5.817   4.932
 7869WAT     H223850   7.169   5.789   4.821
 7870WAT      O23851   2.917   9.215   0.133
 7870WAT     H123852   2.987   9.270   0.088
 7870WAT     H223853   2.954   9.124   0.153
 7871WAT      O23854   2.133   0.702   8.646
 7871WAT     H123855   2.053   0.652   8.677
 7871WAT     H223856   2.128   0.797   8.680
 7872WAT      O23857   3.946   5.344   7.804
 7872WAT     H123858   3.924   5.248   7.784
 7872WAT     H223859   3.862   5.398   7.804
 7873WAT      O23860   6.357   5.711   7.653
 7873WAT     H123861   6.427   5.640   7.646
 7873WAT     H223862   6.322   5.733   7.562
 7874WAT      O23863   7.232   4.433   1.155
 7874WAT     H123864   7.160   4.492   1.119
 7874WAT     H223865   7.226   4.430   1.255
 7875WAT      O23866   9.698   4.579   5.749
 7875WAT     H123867   9.626   4.513   5.768
 7875WAT     H223868   9.678   4.665   5.795
 7876WAT      O23869   4.926   1.421   6.305
 7876WAT     H123870   4.994   1.462   6.244
 7876WAT     H223871   4.966   1.411   6.397
 7877WAT      O23872   5.993   3.783   3.636
 7877WAT     H123873   5.922   3.739   3.691
 7877WAT     H223874   6.073   3.724   3.630
 7878WAT      O23875   2.373   8.995   6.923
 7878WAT     H123876   2.447   8.996   6.991
 7878WAT     H223877   2.342   8.901   6.910
 7879WAT      O23878   5.519   8.234   7.399
 7879WAT     H123879   5.508   8.322   7.353
 7879WAT     H223880   5.457   8.167   7.358
 7880WAT      O23881   0.555   6.130   7.006
 7880WAT     H123882   0.490   6.146   7.081
 7880WAT     H223883   0.647   6.122   7.044
 7881WAT      O23884   8.707   8.453   4.557
 7881WAT     H123885   8.710   8.408   4.468
 7881WAT     H223886   8.792   8.435   4.606
 7882WAT      O23887   7.041   8.667   8.648
 7882WAT     H123888   6.982   8.747   8.661
 7882WAT     H223889   7.122   8.675   8.706
 7883WAT      O23890   4.474   8.995   2.523
 7883WAT     H123891   4.568   8.972   2.496
 7883WAT     H223892   4.448   8.940   2.602
 7884WAT      O23893   0.019   0.503   9.075
 7884WAT     H123894   0.100   0.444   9.078
 7884WAT     H223895   0.037   0.580   9.014
 7885WAT      O23896   4.714   0.448   8.092
 7885WAT     H123897   4.662   0.373   8.134
 7885WAT     H223898   4.782   0.482   8.158
 7886WAT      O23899   4.806   8.878   2.022
 7886WAT     H123900   4.726   8.929   2.052
 7886WAT     H223901   4.886   8.938   2.022
 7887WAT      O23902   2.804   9.473   1.438
 7887WAT     H123903   2.891   9.454   1.485
 7887WAT     H223904   2.795   9.413   1.359
 7888WAT      O23905   4.539   6.820   7.820
 7888WAT     H123906   4.637   6.833   7.836
 7888WAT     H223907   4.513   6.726   7.841
 7889WAT      O23908   8.476   6.843   4.375
 7889WAT     H123909   8.460   6.891   4.461
 7889WAT     H223910   8.533   6.899   4.315
 7890WAT      O23911   5.768   7.328   7.558
 7890WAT     H123912   5.768   7.289   7.466
 7890WAT     H223913   5.848   7.387   7.569
 7891WAT      O23914   7.217   4.128   5.529
 7891WAT     H123915   7.146   4.198   5.525
 7891WAT     H223916   7.240   4.109   5.624
 7892WAT      O23917   7.019   1.591   1.420
 7892WAT     H123918   6.937   1.534   1.418
 7892WAT     H223919   7.078   1.568   1.342
 7893WAT      O23920   3.174   7.791   9.110
 7893WAT     H123921   3.245   7.785   9.180
 7893WAT     H223922   3.084   7.776   9.151
 7894WAT      O23923   9.762   8.824   2.203
 7894WAT     H123924   9.700   8.834   2.124
 7894WAT     H223925   9.709   8.797   2.283
 7895WAT      O23926   5.902   8.959   2.837
 7895WAT     H123927   5.911   8.863   2.812
 7895WAT     H223928   5.987   9.007   2.816
 7896WAT      O23929   2.156   4.371   1.435
 7896WAT     H123930   2.233   4.307   1.432
 7896WAT     H223931   2.165   4.438   1.362
 7897WAT      O23932   1.039   9.389   0.538
 7897WAT     H123933   1.093   9.413   0.619
 7897WAT     H223934   0.944   9.376   0.564
 7898WAT      O23935   0.329   3.545   3.463
 7898WAT     H123936   0.343   3.594   3.550
 7898WAT     H223937   0.253   3.481   3.473
 7899WAT      O23938   1.693   8.858   4.970
 7899WAT     H123939   1.754   8.920   4.921
 7899WAT     H223940   1.747   8.799   5.030
 7900WAT      O23941   7.171   0.514   8.073
 7900WAT     H123942   7.128   0.605   8.070
 7900WAT     H223943   7.270   0.525   8.067
 7901WAT      O23944   0.902   4.831   7.177
 7901WAT     H123945   0.996   4.797   7.164
 7901WAT     H223946   0.838   4.757   7.156
 7902WAT      O23947   1.670   4.469   1.522
 7902WAT     H123948   1.646   4.373   1.505
 7902WAT     H223949   1.766   4.484   1.496
 7903WAT      O23950   2.499   9.318   5.714
 7903WAT     H123951   2.508   9.358   5.622
 7903WAT     H223952   2.526   9.386   5.782
 7904WAT      O23953   2.332   4.294   3.535
 7904WAT     H123954   2.396   4.218   3.520
 7904WAT     H223955   2.376   4.364   3.591
 7905WAT      O23956   0.808   4.901   4.260
 7905WAT     H123957   0.739   4.871   4.195
 7905WAT     H223958   0.780   4.987   4.301
 7906WAT      O23959   2.076   8.933   7.444
 7906WAT     H123960   2.035   8.853   7.487
 7906WAT     H223961   2.115   8.907   7.356
 7907WAT      O23962   5.567   0.028   0.908
 7907WAT     H123963   5.595  -0.030   0.985
 7907WAT     H223964   5.596   0.122   0.925
 7908WAT      O23965   0.934   7.416   9.036
 7908WAT     H123966   0.967   7.339   9.091
 7908WAT     H223967   0.885   7.381   8.956
 7909WAT      O23968   8.849   5.246   7.061
 7909WAT     H123969   8.860   5.344   7.077
 7909WAT     H223970   8.938   5.201   7.061
 7910WAT      O23971   6.996   1.856   7.961
 7910WAT     H123972   6.899   1.850   7.937
 7910WAT     H223973   7.042   1.921   7.901
 7911WAT      O23974   5.563   0.471   3.467
 7911WAT     H123975   5.571   0.395   3.402
 7911WAT     H223976   5.475   0.466   3.514
 7912WAT      O23977   5.993   8.268   1.129
 7912WAT     H123978   6.090   8.287   1.112
 7912WAT     H223979   5.977   8.170   1.121
 7913WAT      O23980   0.867   7.686   3.760
 7913WAT     H123981   0.808   7.654   3.687
 7913WAT     H223982   0.950   7.631   3.763
 7914WAT      O23983   5.512   8.768   4.904
 7914WAT     H123984   5.461   8.689   4.872
 7914WAT     H223985   5.466   8.852   4.873
 7915WAT      O23986   0.181   7.415   3.269
 7915WAT     H123987   0.227   7.454   3.189
 7915WAT     H223988   0.099   7.469   3.290
 7916WAT      O23989   1.161   7.932   8.206
 7916WAT     H123990   1.100   8.002   8.170
 7916WAT     H223991   1.108   7.852   8.234
 7917WAT      O23992   3.806   9.073   3.070
 7917WAT     H123993   3.737   9.132   3.110
 7917WAT     H223994   3.776   9.041   2.980
 7918WAT      O23995   7.072   4.558   3.449
 7918WAT     H123996   7.060   4.613   3.532
 7918WAT     H223997   6.983   4.543   3.406
 7919WAT      O23998   2.274   2.936   7.145
 7919WAT     H123999   2.209   3.009   7.166
 7919WAT     H224000   2.289   2.879   7.226
 7920WAT      O24001   7.129   8.005   6.438
 7920WAT     H124002   7.122   7.905   6.443
 7920WAT     H224003   7.078   8.046   6.514
 7921WAT      O24004   5.289   2.605   2.954
 7921WAT     H124005   5.334   2.646   3.033
 7921WAT     H224006   5.265   2.510   2.975
 7922WAT      O24007   8.613   6.479   6.915
 7922WAT     H124008   8.574   6.567   6.941
 7922WAT     H224009   8.713   6.484   6.918
 7923WAT      O24010   6.465   7.360   3.324
 7923WAT     H124011   6.504   7.412   3.248
 7923WAT     H224012   6.459   7.419   3.405
 7924WAT      O24013   8.681   4.469   0.433
 7924WAT     H124014   8.763   4.523   0.447
 7924WAT     H224015   8.707   4.375   0.407
 7925WAT      O24016   1.424   8.753   1.837
 7925WAT     H124017   1.449   8.749   1.934
 7925WAT     H224018   1.324   8.754   1.828
 7926WAT      O24019   2.844   8.676   6.765
 7926WAT     H124020   2.855   8.629   6.677
 7926WAT     H224021   2.895   8.762   6.763
 7927WAT      O24022   1.559   0.977   8.124
 7927WAT     H124023   1.536   0.937   8.035
 7927WAT     H224024   1.630   1.046   8.112
 7928WAT      O24025   6.460   3.190   1.952
 7928WAT     H124026   6.475   3.110   1.893
 7928WAT     H224027   6.437   3.269   1.895
 7929WAT      O24028   1.153   6.198   1.355
 7929WAT     H124029   1.121   6.276   1.302
 7929WAT     H224030   1.217   6.144   1.300
 7930WAT      O24031   9.005   9.775   1.861
 7930WAT     H124032   8.948   9.844   1.906
 7930WAT     H224033   8.985   9.685   1.899
 7931WAT      O24034   7.608   4.199   9.698
 7931WAT     H124035   7.541   4.164   9.763
 7931WAT     H224036   7.688   4.233   9.746
 7932WAT      O24037   8.546   1.313   5.920
 7932WAT     H124038   8.581   1.335   6.011
 7932WAT     H224039   8.488   1.233   5.925
 7933WAT      O24040   9.697   7.585   4.034
 7933WAT     H124041   9.668   7.678   4.058
 7933WAT     H224042   9.617   7.531   4.009
 7934WAT      O24043   3.898   2.597   8.506
 7934WAT     H124044   3.817   2.631   8.554
 7934WAT     H224045   3.933   2.516   8.553
 7935WAT      O24046   9.662   6.088   2.303
 7935WAT     H124047   9.744   6.072   2.248
 7935WAT     H224048   9.673   6.043   2.392
 7936WAT      O24049   1.982   9.705   0.765
 7936WAT     H124050   1.962   9.761   0.685
 7936WAT     H224051   2.044   9.631   0.740
 7937WAT      O24052   3.550   1.850   2.470
 7937WAT     H124053   3.635   1.879   2.427
 7937WAT     H224054   3.548   1.881   2.565
 7938WAT      O24055   7.383   0.565   5.342
 7938WAT     H124056   7.288   0.534   5.347
 7938WAT     H224057   7.415   0.590   5.433
 7939WAT      O24058   9.008   1.033   3.091
 7939WAT     H124059   9.081   0.964   3.086
 7939WAT     H224060   9.045   1.123   3.069
 7940WAT      O24061   0.118   7.765   2.214
 7940WAT     H124062   0.185   7.694   2.190
 7940WAT     H224063   0.164   7.840   2.261
 7941WAT      O24064   1.963   9.730   4.264
 7941WAT     H124065   1.906   9.728   4.182
 7941WAT     H224066   1.925   9.667   4.332
 7942WAT      O24067   3.404   9.463   5.447
 7942WAT     H124068   3.440   9.488   5.358
 7942WAT     H224069   3.331   9.395   5.436
 7943WAT      O24070   4.077   2.991   4.040
 7943WAT     H124071   4.149   2.944   3.990
 7943WAT     H224072   4.078   2.962   4.136
 7944WAT      O24073   0.674   7.066   7.121
 7944WAT     H124074   0.655   6.995   7.189
 7944WAT     H224075   0.645   7.035   7.031
 7945WAT      O24076   1.117   3.958   1.791
 7945WAT     H124077   1.093   4.055   1.794
 7945WAT     H224078   1.033   3.904   1.800
 7946WAT      O24079   4.453   7.264   0.023
 7946WAT     H124080   4.520   7.221  -0.037
 7946WAT     H224081   4.460   7.363   0.016
 7947WAT      O24082   5.590   6.738   9.359
 7947WAT     H124083   5.618   6.656   9.309
 7947WAT     H224084   5.671   6.780   9.401
 7948WAT      O24085   9.627   7.780   8.889
 7948WAT     H124086   9.681   7.784   8.804
 7948WAT     H224087   9.687   7.796   8.967
 7949WAT      O24088   7.226   4.937   3.907
 7949WAT     H124089   7.137   4.981   3.917
 7949WAT     H224090   7.244   4.880   3.986
 7950WAT      O24091   5.674   8.039   1.658
 7950WAT     H124092   5.711   8.044   1.750
 7950WAT     H224093   5.735   7.985   1.600
 7951WAT      O24094   0.486   5.740   4.624
 7951WAT     H124095   0.469   5.832   4.589
 7951WAT     H224096   0.415   5.679   4.590
 7952WAT      O24097   8.139   9.380   6.188
 7952WAT     H124098   8.138   9.421   6.279
 7952WAT     H224099   8.192   9.438   6.126
 7953WAT      O24100   4.233   8.142   4.724
 7953WAT     H124101   4.235   8.164   4.822
 7953WAT     H224102   4.143   8.163   4.687
 7954WAT      O24103   5.138   6.298   0.495
 7954WAT     H124104   5.152   6.339   0.404
 7954WAT     H224105   5.204   6.223   0.507
 7955WAT      O24106   4.474   3.993   9.088
 7955WAT     H124107   4.530   3.912   9.107
 7955WAT     H224108   4.428   3.981   9.000
 7956WAT      O24109   4.157   7.273   3.199
 7956WAT     H124110   4.237   7.225   3.233
 7956WAT     H224111   4.174   7.372   3.201
 7957WAT      O24112   2.136   1.510   2.748
 7957WAT     H124113   2.208   1.577   2.732
 7957WAT     H224114   2.059   1.528   2.686
 7958WAT      O24115   1.802   3.559   0.040
 7958WAT     H124116   1.880   3.595  -0.012
 7958WAT     H224117   1.784   3.465   0.011
 7959WAT      O24118   7.707   5.395   3.248
 7959WAT     H124119   7.768   5.426   3.174
 7959WAT     H224120   7.636   5.464   3.263
 7960WAT      O24121   3.818   4.713   9.141
 7960WAT     H124122   3.773   4.696   9.054
 7960WAT     H224123   3.917   4.723   9.127
 7961WAT      O24124   5.711   2.893   4.224
 7961WAT     H124125   5.786   2.835   4.193
 7961WAT     H224126   5.640   2.836   4.267
 7962WAT      O24127   5.266   9.394   3.399
 7962WAT     H124128   5.352   9.394   3.449
 7962WAT     H224129   5.217   9.308   3.417
 7963WAT      O24130   1.585   6.419   3.488
 7963WAT     H124131   1.517   6.431   3.560
 7963WAT     H224132   1.672   6.460   3.516
 7964WAT      O24133   9.249   7.386   3.878
 7964WAT     H124134   9.260   7.287   3.887
 7964WAT     H224135   9.178   7.417   3.940
 7965WAT      O24136   2.399   9.652   0.187
 7965WAT     H124137   2.395   9.725   0.119
 7965WAT     H224138   2.357   9.684   0.272
 7966WAT      O24139   2.059   0.334   3.327
 7966WAT     H124140   2.046   0.299   3.419
 7966WAT     H224141   2.130   0.404   3.327
 7967WAT      O24142   6.091   9.185   4.950
 7967WAT     H124143   6.095   9.121   4.874
 7967WAT     H224144   6.014   9.162   5.010
 7968WAT      O24145   5.140   2.167   0.049
 7968WAT     H124146   5.183   2.081   0.023
 7968WAT     H224147   5.041   2.155   0.049
 7969WAT      O24148   6.290   4.804   4.739
 7969WAT     H124149   6.384   4.779   4.716
 7969WAT     H224150   6.282   4.904   4.740
 7970WAT      O24151   9.773   7.965   1.270
 7970WAT     H124152   9.859   7.923   1.297
 7970WAT     H224153   9.750   8.039   1.334
 7971WAT      O24154   4.482   2.697   6.164
 7971WAT     H124155   4.539   2.705   6.246
 7971WAT     H224156   4.425   2.615   6.171
 7972WAT      O24157   7.568   7.979   6.353
 7972WAT     H124158   7.637   8.051   6.358
 7972WAT     H224159   7.610   7.895   6.317
 7973WAT      O24160   0.142   7.912   3.166
 7973WAT     H124161   0.091   7.891   3.083
 7973WAT     H224162   0.081   7.906   3.245
 7974WAT      O24163   2.983   1.126   2.008
 7974WAT     H124164   3.061   1.071   2.039
 7974WAT     H224165   2.976   1.209   2.063
 7975WAT      O24166   1.258   6.595   2.294
 7975WAT     H124167   1.158   6.597   2.286
 7975WAT     H224168   1.299   6.643   2.217
 7976WAT      O24169   9.609   8.909   2.732
 7976WAT     H124170   9.620   8.860   2.818
 7976WAT     H224171   9.513   8.937   2.722
 7977WAT      O24172   0.991   9.380   7.550
 7977WAT     H124173   1.033   9.405   7.637
 7977WAT     H224174   0.893   9.399   7.553
 7978WAT      O24175   8.284   8.166   9.047
 7978WAT     H124176   8.224   8.138   9.121
 7978WAT     H224177   8.287   8.265   9.041
 7979WAT      O24178   7.184   4.170   3.403
 7979WAT     H124179   7.235   4.251   3.374
 7979WAT     H224180   7.086   4.184   3.387
 7980WAT      O24181   8.960   6.930   4.898
 7980WAT     H124182   9.052   6.898   4.917
 7980WAT     H224183   8.894   6.879   4.953
 7981WAT      O24184   5.811   1.490   7.125
 7981WAT     H124185   5.727   1.532   7.159
 7981WAT     H224186   5.836   1.412   7.182
 7982WAT      O24187   3.728   1.326   7.494
 7982WAT     H124188   3.803   1.389   7.473
 7982WAT     H224189   3.679   1.304   7.409
 7983WAT      O24190   4.706   3.079   4.947
 7983WAT     H124191   4.632   3.116   4.890
 7983WAT     H224192   4.794   3.104   4.907
 7984WAT      O24193   2.452   2.362   9.370
 7984WAT     H124194   2.458   2.267   9.400
 7984WAT     H224195   2.514   2.376   9.292
 7985WAT      O24196   3.395   3.550   3.064
 7985WAT     H124197   3.459   3.526   2.992
 7985WAT     H224198   3.379   3.470   3.122
 7986WAT      O24199   9.741   5.973   9.822
 7986WAT     H124200   9.717   6.069   9.831
 7986WAT     H224201   9.767   5.954   9.727
 7987WAT      O24202   2.095   8.231   7.239
 7987WAT     H124203   2.038   8.241   7.321
 7987WAT     H224204   2.079   8.142   7.197
 7988WAT      O24205   2.715   0.115   6.667
 7988WAT     H124206   2.665   0.031   6.650
 7988WAT     H224207   2.720   0.131   6.766
 7989WAT      O24208   4.742   4.751   7.197
 7989WAT     H124209   4.806   4.713   7.264
 7989WAT     H224210   4.771   4.845   7.174
 7990WAT      O24211   4.273   1.592   0.755
 7990WAT     H124212   4.194   1.591   0.693
 7990WAT     H224213   4.315   1.683   0.756
 7991WAT      O24214   4.313   8.069   7.715
 7991WAT     H124215   4.375   8.125   7.770
 7991WAT     H224216   4.262   8.008   7.775
 7992WAT      O24217   5.332   4.903   8.413
 7992WAT     H124218   5.350   4.866   8.504
 7992WAT     H224219   5.415   4.899   8.357
 7993WAT      O24220   6.954   0.168   4.985
 7993WAT     H124221   6.857   0.177   5.010
 7993WAT     H224222   6.993   0.089   5.033
 7994WAT      O24223   3.982   8.617   5.813
 7994WAT     H124224   3.982   8.677   5.894
 7994WAT     H224225   4.066   8.563   5.812
 7995WAT      O24226   0.893   4.250   5.697
 7995WAT     H124227   0.879   4.342   5.658
 7995WAT     H224228   0.990   4.236   5.715
 7996WAT      O24229   2.539   8.847   1.607
 7996WAT     H124230   2.537   8.853   1.507
 7996WAT     H224231   2.604   8.913   1.644
 7997WAT      O24232   4.983   6.355   9.474
 7997WAT     H124233   4.886   6.354   9.448
 7997WAT     H224234   5.012   6.450   9.489
 7998WAT      O24235   9.563   1.865   8.157
 7998WAT     H124236   9.539   1.801   8.229
 7998WAT     H224237   9.500   1.855   8.080
 7999WAT      O24238   5.608   0.157   1.186
 7999WAT     H124239   5.698   0.114   1.180
 7999WAT     H224240   5.591   0.212   1.105
 8000WAT      O24241   5.295   6.148   1.099
 8000WAT     H124242   5.288   6.228   1.158
 8000WAT     H224243   5.207   6.131   1.054
 8001WAT      O24244   3.211   2.553   1.100
 8001WAT     H124245   3.132   2.603   1.135
 8001WAT     H224246   3.258   2.508   1.176
 8002WAT      O24247   1.082   3.865   3.664
 8002WAT     H124248   1.052   3.935   3.728
 8002WAT     H224249   1.003   3.816   3.628
 8003WAT      O24250   0.951   8.735   2.910
 8003WAT     H124251   0.922   8.808   2.972
 8003WAT     H224252   1.012   8.772   2.840
 8004WAT      O24253   8.353   1.139   9.091
 8004WAT     H124254   8.304   1.150   9.178
 8004WAT     H224255   8.288   1.113   9.019
 8005WAT      O24256   2.636   6.370   4.622
 8005WAT     H124257   2.576   6.305   4.669
 8005WAT     H224258   2.632   6.356   4.524
 8006WAT      O24259   9.168   7.976   9.684
 8006WAT     H124260   9.264   7.997   9.665
 8006WAT     H224261   9.141   8.022   9.769
 8007WAT      O24262   5.531   2.452   7.285
 8007WAT     H124263   5.504   2.386   7.216
 8007WAT     H224264   5.559   2.537   7.241
 8008WAT      O24265   7.617   3.788   7.823
 8008WAT     H124266   7.570   3.704   7.797
 8008WAT     H224267   7.584   3.863   7.767
 8009WAT      O24268   4.425   7.457   1.205
 8009WAT     H124269   4.452   7.479   1.299
 8009WAT     H224270   4.326   7.466   1.196
 8010WAT      O24271   9.531   0.106   7.114
 8010WAT     H124272   9.450   0.165   7.109
 8010WAT     H224273   9.578   0.107   7.026
 8011WAT      O24274   9.069   9.723   5.136
 8011WAT     H124275   9.045   9.655   5.205
 8011WAT     H224276   9.152   9.695   5.089
 8012WAT      O24277   2.040   7.635   6.955
 8012WAT     H124278   2.085   7.629   7.044
 8012WAT     H224279   1.954   7.583   6.958
 8013WAT      O24280   4.145   2.557   3.975
 8013WAT     H124281   4.231   2.608   3.980
 8013WAT     H224282   4.083   2.589   4.048
 8014WAT      O24283   0.462   0.335   5.079
 8014WAT     H124284   0.432   0.403   5.013
 8014WAT     H224285   0.440   0.243   5.045
 8015WAT      O24286   0.536   1.363   7.024
 8015WAT     H124287   0.445   1.335   6.994
 8015WAT     H224288   0.604   1.328   6.959
 8016WAT      O24289   3.882   2.708   4.861
 8016WAT     H124290   3.841   2.738   4.775
 8016WAT     H224291   3.971   2.753   4.874
 8017WAT      O24292   5.189   4.172   8.079
 8017WAT     H124293   5.285   4.179   8.052
 8017WAT     H224294   5.154   4.264   8.100
 8018WAT      O24295   0.272   5.164   4.765
 8018WAT     H124296   0.269   5.252   4.718
 8018WAT     H224297   0.348   5.110   4.730
 8019WAT      O24298   4.886   7.901   4.214
 8019WAT     H124299   4.903   7.811   4.175
 8019WAT     H224300   4.951   7.919   4.288
 8020WAT      O24301   5.277   3.015   0.630
 8020WAT     H124302   5.324   3.024   0.542
 8020WAT     H224303   5.226   2.929   0.632
 8021WAT      O24304   2.190   7.837   0.766
 8021WAT     H124305   2.122   7.797   0.704
 8021WAT     H224306   2.173   7.805   0.859
 8022WAT      O24307   4.935   3.391   2.250
 8022WAT     H124308   5.025   3.369   2.211
 8022WAT     H224309   4.920   3.335   2.331
 8023WAT      O24310   0.838   1.202   8.144
 8023WAT     H124311   0.915   1.153   8.183
 8023WAT     H224312   0.777   1.233   8.217
 8024WAT      O24313   5.913   0.929   9.625
 8024WAT     H124314   5.885   0.894   9.715
 8024WAT     H224315   5.900   0.858   9.556
 8025WAT      O24316   3.632   8.743   3.954
 8025WAT     H124317   3.574   8.809   3.908
 8025WAT     H224318   3.724   8.781   3.964
 8026WAT      O24319   4.253   6.477   8.496
 8026WAT     H124320   4.313   6.539   8.547
 8026WAT     H224321   4.161   6.516   8.491
 8027WAT      O24322   7.155   3.807   7.584
 8027WAT     H124323   7.101   3.848   7.657
 8027WAT     H224324   7.093   3.765   7.517
 8028WAT      O24325   5.249   3.532   8.252
 8028WAT     H124326   5.184   3.510   8.179
 8028WAT     H224327   5.315   3.457   8.262
 8029WAT      O24328   2.152   9.003   1.801
 8029WAT     H124329   2.211   9.070   1.756
 8029WAT     H224330   2.207   8.927   1.836
 8030WAT      O24331   4.206   3.600   1.055
 8030WAT     H124332   4.181   3.696   1.055
 8030WAT     H224333   4.301   3.591   1.085
 8031WAT      O24334   3.035   5.922   3.568
 8031WAT     H124335   3.005   5.983   3.494
 8031WAT     H224336   2.976   5.841   3.570
 8032WAT      O24337   8.702   3.677   0.933
 8032WAT     H124338   8.668   3.708   0.844
 8032WAT     H224339   8.802   3.678   0.932
 8033WAT      O24340   8.549   9.662   1.806
 8033WAT     H124341   8.471   9.599   1.810
 8033WAT     H224342   8.534   9.729   1.733
 8034WAT      O24343   5.904   7.327   7.079
 8034WAT     H124344   5.898   7.237   7.035
 8034WAT     H224345   6.000   7.355   7.084
 8035WAT      O24346   5.696   2.828   8.900
 8035WAT     H124347   5.622   2.811   8.834
 8035WAT     H224348   5.764   2.756   8.893
 8036WAT      O24349   9.122   0.617   8.599
 8036WAT     H124350   9.124   0.702   8.546
 8036WAT     H224351   9.117   0.539   8.537
 8037WAT      O24352   0.621   4.355   6.464
 8037WAT     H124353   0.526   4.385   6.474
 8037WAT     H224354   0.648   4.362   6.368
 8038WAT      O24355   2.744   9.456   3.627
 8038WAT     H124356   2.724   9.519   3.702
 8038WAT     H224357   2.760   9.508   3.543
 8039WAT      O24358   5.365   3.848   0.472
 8039WAT     H124359   5.376   3.847   0.571
 8039WAT     H224360   5.329   3.937   0.443
 8040WAT      O24361   2.065   9.776   5.418
 8040WAT     H124362   2.030   9.842   5.352
 8040WAT     H224363   2.165   9.782   5.420
 8041WAT      O24364   0.087   1.017   5.138
 8041WAT     H124365   0.131   1.086   5.080
 8041WAT     H224366   0.135   0.930   5.129
 8042WAT      O24367   5.017   4.067   9.090
 8042WAT     H124368   5.034   4.139   9.158
 8042WAT     H224369   5.016   3.978   9.137
 8043WAT      O24370   2.796   5.003   2.531
 8043WAT     H124371   2.737   4.994   2.612
 8043WAT     H224372   2.874   5.062   2.553
 8044WAT      O24373   4.759   4.817   8.666
 8044WAT     H124374   4.751   4.818   8.765
 8044WAT     H224375   4.783   4.909   8.633
 8045WAT      O24376   7.322   8.845   6.604
 8045WAT     H124377   7.281   8.782   6.539
 8045WAT     H224378   7.412   8.873   6.571
 8046WAT      O24379   4.644   9.481   6.636
 8046WAT     H124380   4.741   9.459   6.647
 8046WAT     H224381   4.619   9.474   6.540
 8047WAT      O24382   7.389   6.090   7.990
 8047WAT     H124383   7.310   6.091   8.052
 8047WAT     H224384   7.431   5.999   7.991
 8048WAT      O24385   7.423   2.234   9.716
 8048WAT     H124386   7.401   2.331   9.709
 8048WAT     H224387   7.489   2.220   9.790
 8049WAT      O24388   2.550   6.450   0.933
 8049WAT     H124389   2.515   6.402   1.014
 8049WAT     H224390   2.535   6.393   0.852
 8050WAT      O24391   4.972   4.511   4.569
 8050WAT     H124392   5.051   4.565   4.540
 8050WAT     H224393   4.973   4.423   4.521
 8051WAT      O24394   3.367   9.819   6.501
 8051WAT     H124395   3.382   9.729   6.543
 8051WAT     H224396   3.442   9.839   6.437
 8052WAT      O24397   3.490   3.066   1.227
 8052WAT     H124398   3.402   3.066   1.275
 8052WAT     H224399   3.507   3.156   1.188
 8053WAT      O24400   6.680   8.398   1.149
 8053WAT     H124401   6.684   8.314   1.096
 8053WAT     H224402   6.772   8.425   1.176
 8054WAT      O24403   0.627   8.468   3.568
 8054WAT     H124404   0.535   8.457   3.529
 8054WAT     H224405   0.619   8.511   3.658
 8055WAT      O24406   8.805   6.015   4.068
 8055WAT     H124407   8.869   6.084   4.032
 8055WAT     H224408   8.847   5.969   4.146
 8056WAT      O24409   2.768   9.086   2.099
 8056WAT     H124410   2.702   9.013   2.117
 8056WAT     H224411   2.781   9.140   2.182
 8057WAT      O24412   4.563   6.481   6.585
 8057WAT     H124413   4.504   6.557   6.558
 8057WAT     H224414   4.592   6.493   6.680
 8058WAT      O24415   3.684   1.584   0.549
 8058WAT     H124416   3.632   1.575   0.633
 8058WAT     H224417   3.691   1.681   0.524
 8059WAT      O24418   3.554   7.931   5.180
 8059WAT     H124419   3.519   7.873   5.254
 8059WAT     H224420   3.477   7.971   5.131
 8060WAT      O24421   5.729   1.083   7.621
 8060WAT     H124422   5.656   1.073   7.689
 8060WAT     H224423   5.754   1.180   7.613
 8061WAT      O24424   2.513   5.665   0.233
 8061WAT     H124425   2.588   5.649   0.168
 8061WAT     H224426   2.518   5.597   0.307
 8062WAT      O24427   8.004   8.254   5.016
 8062WAT     H124428   8.070   8.330   5.020
 8062WAT     H224429   8.054   8.168   5.017
 8063WAT      O24430   6.757   1.743   2.144
 8063WAT     H124431   6.720   1.776   2.057
 8063WAT     H224432   6.692   1.763   2.218
 8064WAT      O24433   6.339   3.950   7.548
 8064WAT     H124434   6.436   3.965   7.532
 8064WAT     H224435   6.312   3.993   7.634
 8065WAT      O24436   5.243   0.080   8.845
 8065WAT     H124437   5.186   0.013   8.893
 8065WAT     H224438   5.195   0.111   8.763
 8066WAT      O24439   0.602   2.205   0.286
 8066WAT     H124440   0.507   2.235   0.279
 8066WAT     H224441   0.635   2.178   0.196
 8067WAT      O24442   0.254   6.144   7.551
 8067WAT     H124443   0.340   6.101   7.577
 8067WAT     H224444   0.255   6.241   7.577
 8068WAT      O24445   6.258   3.244   1.437
 8068WAT     H124446   6.180   3.182   1.438
 8068WAT     H224447   6.343   3.192   1.442
 8069WAT      O24448   5.498   2.445   1.006
 8069WAT     H124449   5.560   2.510   1.050
 8069WAT     H224450   5.549   2.387   0.943
 8070WAT      O24451   9.079   6.896   6.246
 8070WAT     H124452   9.059   6.888   6.343
 8070WAT     H224453   9.160   6.954   6.233
 8071WAT      O24454   2.083   0.888   2.581
 8071WAT     H124455   2.109   0.983   2.595
 8071WAT     H224456   1.985   0.877   2.601
 8072WAT      O24457   5.281   3.769   5.677
 8072WAT     H124458   5.234   3.682   5.670
 8072WAT     H224459   5.336   3.771   5.760
 8073WAT      O24460   5.868   9.018   3.117
 8073WAT     H124461   5.877   9.001   3.019
 8073WAT     H224462   5.920   9.100   3.141
 8074WAT      O24463   0.269   7.047   7.252
 8074WAT     H124464   0.337   7.064   7.181
 8074WAT     H224465   0.302   7.081   7.339
 8075WAT      O24466   4.635   5.668   7.506
 8075WAT     H124467   4.621   5.574   7.537
 8075WAT     H224468   4.732   5.692   7.516
 8076WAT      O24469   2.277   3.559   5.102
 8076WAT     H124470   2.233   3.554   5.012
 8076WAT     H224471   2.274   3.654   5.135
 8077WAT      O24472   6.361   0.223   8.372
 8077WAT     H124473   6.372   0.322   8.373
 8077WAT     H224474   6.378   0.188   8.280
 8078WAT      O24475   5.575   1.523   2.192
 8078WAT     H124476   5.652   1.569   2.147
 8078WAT     H224477   5.504   1.590   2.211
 8079WAT      O24478   4.002   2.539   9.095
 8079WAT     H124479   4.044   2.480   9.026
 8079WAT     H224480   4.015   2.635   9.068
 8080WAT      O24481   0.869   4.013   4.539
 8080WAT     H124482   0.849   4.089   4.602
 8080WAT     H224483   0.921   3.943   4.588
 8081WAT      O24484   2.170   5.639   2.272
 8081WAT     H124485   2.178   5.672   2.178
 8081WAT     H224486   2.142   5.714   2.332
 8082WAT      O24487   0.763   0.680   0.068
 8082WAT     H124488   0.709   0.758   0.100
 8082WAT     H224489   0.806   0.635   0.146
 8083WAT      O24490   8.114   7.201   8.606
 8083WAT     H124491   8.117   7.288   8.656
 8083WAT     H224492   8.103   7.126   8.671
 8084WAT      O24493   8.851   1.607   5.860
 8084WAT     H124494   8.875   1.702   5.842
 8084WAT     H224495   8.752   1.596   5.853
 8085WAT      O24496   9.126   4.109   1.684
 8085WAT     H124497   9.071   4.086   1.765
 8085WAT     H224498   9.082   4.182   1.633
 8086WAT      O24499   6.458   8.513   7.204
 8086WAT     H124500   6.405   8.559   7.133
 8086WAT     H224501   6.407   8.515   7.290
 8087WAT      O24502   6.584   5.442   3.320
 8087WAT     H124503   6.592   5.396   3.409
 8087WAT     H224504   6.490   5.434   3.287
 8088WAT      O24505   6.683   8.481   8.389
 8088WAT     H124506   6.612   8.422   8.428
 8088WAT     H224507   6.719   8.542   8.459
 8089WAT      O24508   3.364   5.982   1.760
 8089WAT     H124509   3.313   6.066   1.741
 8089WAT     H224510   3.459   5.994   1.730
 8090WAT      O24511   5.231   8.170   7.877
 8090WAT     H124512   5.270   8.115   7.950
 8090WAT     H224513   5.204   8.111   7.801
 8091WAT      O24514   0.951   0.585   8.859
 8091WAT     H124515   0.863   0.542   8.838
 8091WAT     H224516   0.992   0.619   8.774
 8092WAT      O24517   1.477   5.236   5.206
 8092WAT     H124518   1.399   5.225   5.267
 8092WAT     H224519   1.452   5.205   5.114
 8093WAT      O24520   7.869   6.019   9.441
 8093WAT     H124521   7.826   5.972   9.364
 8093WAT     H224522   7.924   6.095   9.408
 8094WAT      O24523   2.143   4.603   9.882
 8094WAT     H124524   2.229   4.552   9.890
 8094WAT     H224525   2.107   4.622   9.974
 8095WAT      O24526   5.834   1.241   2.521
 8095WAT     H124527   5.830   1.211   2.616
 8095WAT     H224528   5.802   1.168   2.461
 8096WAT      O24529   3.716   6.857   0.954
 8096WAT     H124530   3.798   6.816   0.914
 8096WAT     H224531   3.647   6.869   0.883
 8097WAT      O24532   7.185   5.772   2.230
 8097WAT     H124533   7.134   5.732   2.306
 8097WAT     H224534   7.130   5.844   2.186
 8098WAT      O24535   1.698   5.785   0.444
 8098WAT     H124536   1.719   5.844   0.522
 8098WAT     H224537   1.771   5.718   0.433
 8099WAT      O24538   0.998   1.232   0.475
 8099WAT     H124539   0.933   1.168   0.517
 8099WAT     H224540   1.080   1.182   0.447
 8100WAT      O24541   7.953   3.023   5.105
 8100WAT     H124542   7.900   3.079   5.169
 8100WAT     H224543   8.018   3.082   5.056
 8101WAT      O24544   1.897   0.761   3.251
 8101WAT     H124545   1.940   0.773   3.340
 8101WAT     H224546   1.892   0.663   3.230
 8102WAT      O24547   2.147   1.015   9.510
 8102WAT     H124548   2.076   0.988   9.574
 8102WAT     H224549   2.231   1.035   9.559
 8103WAT      O24550   1.503   1.712   5.020
 8103WAT     H124551   1.556   1.796   5.012
 8103WAT     H224552   1.422   1.719   4.961
 8104WAT      O24553   1.756   2.558   3.518
 8104WAT     H124554   1.809   2.527   3.597
 8104WAT     H224555   1.664   2.583   3.547
 8105WAT      O24556   9.086   1.674   5.156
 8105WAT     H124557   9.049   1.645   5.068
 8105WAT     H224558   9.031   1.636   5.230
 8106WAT      O24559   9.335   9.371   3.331
 8106WAT     H124560   9.270   9.387   3.406
 8106WAT     H224561   9.364   9.275   3.333
 8107WAT      O24562   2.041   6.916   4.445
 8107WAT     H124563   2.060   6.888   4.540
 8107WAT     H224564   1.961   6.866   4.412
 8108WAT      O24565   5.520   4.806   1.657
 8108WAT     H124566   5.612   4.806   1.618
 8108WAT     H224567   5.478   4.716   1.642
 8109WAT      O24568   4.711   6.661   5.058
 8109WAT     H124569   4.747   6.675   5.151
 8109WAT     H224570   4.713   6.564   5.036
 8110WAT      O24571   5.871   7.509   1.093
 8110WAT     H124572   5.891   7.434   1.156
 8110WAT     H224573   5.950   7.569   1.087
 8111WAT      O24574   3.956   4.966   9.649
 8111WAT     H124575   3.989   5.036   9.713
 8111WAT     H224576   3.962   4.877   9.693
 8112WAT      O24577   6.425   9.375   9.694
 8112WAT     H124578   6.370   9.294   9.714
 8112WAT     H224579   6.370   9.443   9.646
 8113WAT      O24580   2.320   9.492   2.097
 8113WAT     H124581   2.287   9.411   2.145
 8113WAT     H224582   2.419   9.493   2.098
 8114WAT      O24583   4.274   7.578   1.911
 8114WAT     H124584   4.363   7.543   1.884
 8114WAT     H224585   4.229   7.620   1.832
 8115WAT      O24586   0.256   8.559   9.213
 8115WAT     H124587   0.165   8.589   9.241
 8115WAT     H224588   0.314   8.548   9.294
 8116WAT      O24589   0.529   0.174   7.759
 8116WAT     H124590   0.525   0.076   7.780
 8116WAT     H224591   0.589   0.189   7.681
 8117WAT      O24592   2.851   7.902   9.018
 8117WAT     H124593   2.878   7.833   9.085
 8117WAT     H224594   2.877   7.872   8.927
 8118WAT      O24595   8.608   9.026   3.943
 8118WAT     H124596   8.564   8.984   4.022
 8118WAT     H224597   8.699   9.059   3.969
 8119WAT      O24598   3.270   2.950   8.451
 8119WAT     H124599   3.235   2.959   8.358
 8119WAT     H224600   3.204   2.989   8.516
 8120WAT      O24601   1.768   1.786   1.023
 8120WAT     H124602   1.781   1.690   1.048
 8120WAT     H224603   1.763   1.794   0.923
 8121WAT      O24604   9.379   1.228   0.778
 8121WAT     H124605   9.426   1.315   0.771
 8121WAT     H224606   9.283   1.243   0.802
 8122WAT      O24607   1.932   8.454   9.715
 8122WAT     H124608   1.972   8.368   9.684
 8122WAT     H224609   1.973   8.481   9.802
 8123WAT      O24610   2.580   9.705   7.832
 8123WAT     H124611   2.493   9.670   7.797
 8123WAT     H224612   2.651   9.694   7.762
 8124WAT      O24613   3.303   5.664   3.244
 8124WAT     H124614   3.254   5.583   3.211
 8124WAT     H224615   3.358   5.640   3.324
 8125WAT      O24616   9.817   1.289   4.971
 8125WAT     H124617   9.850   1.247   4.886
 8125WAT     H224618   9.761   1.369   4.948
 8126WAT      O24619   3.489   5.608   6.240
 8126WAT     H124620   3.442   5.521   6.231
 8126WAT     H224621   3.459   5.654   6.324
 8127WAT      O24622   1.348   1.270   3.223
 8127WAT     H124623   1.258   1.304   3.198
 8127WAT     H224624   1.412   1.287   3.148
 8128WAT      O24625   9.730   8.678   0.801
 8128WAT     H124626   9.811   8.725   0.837
 8128WAT     H224627   9.699   8.610   0.867
 8129WAT      O24628   4.755   4.224   2.798
 8129WAT     H124629   4.713   4.252   2.712
 8129WAT     H224630   4.854   4.217   2.786
 8130WAT      O24631   3.735   8.474   7.585
 8130WAT     H124632   3.730   8.566   7.621
 8130WAT     H224633   3.658   8.457   7.523
 8131WAT      O24634   5.705   0.072   7.956
 8131WAT     H124635   5.766   0.147   7.930
 8131WAT     H224636   5.646   0.102   8.031
 8132WAT      O24637   8.744   4.846   3.958
 8132WAT     H124638   8.811   4.803   4.019
 8132WAT     H224639   8.737   4.944   3.980
 8133WAT      O24640   0.373   9.448   0.349
 8133WAT     H124641   0.327   9.366   0.381
 8133WAT     H224642   0.339   9.474   0.259
 8134WAT      O24643   7.875   0.543   1.116
 8134WAT     H124644   7.897   0.446   1.124
 8134WAT     H224645   7.945   0.589   1.062
 8135WAT      O24646   1.833   2.970   6.170
 8135WAT     H124647   1.773   2.895   6.199
 8135WAT     H224648   1.915   2.970   6.227
 8136WAT      O24649   6.846   7.475   9.077
 8136WAT     H124650   6.868   7.554   9.019
 8136WAT     H224651   6.907   7.399   9.054
 8137WAT      O24652   4.764   4.472   4.141
 8137WAT     H124653   4.852   4.509   4.112
 8137WAT     H224654   4.703   4.547   4.168
 8138WAT      O24655   0.732   5.667   7.275
 8138WAT     H124656   0.802   5.685   7.344
 8138WAT     H224657   0.651   5.722   7.294
 8139WAT      O24658   2.764   1.649   2.976
 8139WAT     H124659   2.808   1.560   2.984
 8139WAT     H224660   2.795   1.694   2.893
 8140WAT      O24661   5.912   8.709   0.208
 8140WAT     H124662   5.902   8.807   0.189
 8140WAT     H224663   5.982   8.671   0.147
 8141WAT      O24664   9.291   3.241   3.835
 8141WAT     H124665   9.217   3.207   3.777
 8141WAT     H224666   9.295   3.341   3.829
 8142WAT      O24667   5.175   4.254   7.224
 8142WAT     H124668   5.130   4.228   7.138
 8142WAT     H224669   5.231   4.179   7.256
 8143WAT      O24670   2.859   4.643   0.885
 8143WAT     H124671   2.786   4.690   0.835
 8143WAT     H224672   2.900   4.705   0.951
 8144WAT      O24673   3.612   4.664   0.088
 8144WAT     H124674   3.538   4.683   0.023
 8144WAT     H224675   3.688   4.620   0.040
 8145WAT      O24676   7.162   2.418   0.578
 8145WAT     H124677   7.064   2.430   0.587
 8145WAT     H224678   7.200   2.488   0.518
 8146WAT      O24679   2.175   9.130   4.763
 8146WAT     H124680   2.123   9.048   4.738
 8146WAT     H224681   2.273   9.108   4.763
 8147WAT      O24682   9.763   1.213   7.815
 8147WAT     H124683   9.844   1.269   7.832
 8147WAT     H224684   9.751   1.202   7.716
 8148WAT      O24685   7.869   5.519   2.104
 8148WAT     H124686   7.845   5.430   2.064
 8148WAT     H224687   7.907   5.505   2.196
 8149WAT      O24688   0.689   5.247   5.324
 8149WAT     H124689   0.699   5.177   5.253
 8149WAT     H224690   0.630   5.321   5.291
 8150WAT      O24691   7.290   2.963   3.407
 8150WAT     H124692   7.316   2.889   3.344
 8150WAT     H224693   7.208   2.936   3.458
 8151WAT      O24694   0.496   1.067   8.389
 8151WAT     H124695   0.468   1.027   8.477
 8151WAT     H224696   0.495   0.996   8.319
 8152WAT      O24697   5.926   1.017   6.970
 8152WAT     H124698   5.972   1.085   6.912
 8152WAT     H224699   5.857   1.063   7.026
 8153WAT      O24700   0.533   8.419   0.437
 8153WAT     H124701   0.615   8.458   0.394
 8153WAT     H224702   0.479   8.492   0.478
 8154WAT      O24703   2.752   1.192   7.673
 8154WAT     H124704   2.788   1.195   7.766
 8154WAT     H224705   2.752   1.285   7.635
 8155WAT      O24706   2.494   7.201   7.027
 8155WAT     H124707   2.589   7.206   6.996
 8155WAT     H224708   2.443   7.278   6.988
 8156WAT      O24709   0.313   4.947   6.037
 8156WAT     H124710   0.406   4.911   6.050
 8156WAT     H224711   0.299   4.968   5.941
 8157WAT      O24712   3.543   0.905   4.102
 8157WAT     H124713   3.611   0.869   4.166
 8157WAT     H224714   3.579   0.899   4.009
 8158WAT      O24715   9.802   6.757   8.083
 8158WAT     H124716   9.721   6.700   8.071
 8158WAT     H224717   9.808   6.824   8.010
 8159WAT      O24718   4.024   3.243   4.825
 8159WAT     H124719   4.088   3.176   4.787
 8159WAT     H224720   4.027   3.327   4.771
 8160WAT      O24721   7.433   5.511   0.269
 8160WAT     H124722   7.443   5.470   0.359
 8160WAT     H224723   7.524   5.535   0.233
 8161WAT      O24724   0.036   1.996   2.304
 8161WAT     H124725   0.055   2.079   2.357
 8161WAT     H224726  -0.056   2.002   2.264
 8162WAT      O24727   8.982   7.338   6.991
 8162WAT     H124728   8.985   7.276   6.913
 8162WAT     H224729   9.059   7.402   6.984
 8163WAT      O24730   3.146   0.106   4.045
 8163WAT     H124731   3.081   0.035   4.072
 8163WAT     H224732   3.143   0.118   3.945
 8164WAT      O24733   8.102   9.416   1.950
 8164WAT     H124734   8.021   9.416   2.008
 8164WAT     H224735   8.077   9.385   1.858
 8165WAT      O24736   2.245   2.685   8.035
 8165WAT     H124737   2.294   2.772   8.021
 8165WAT     H224738   2.236   2.638   7.947
 8166WAT      O24739   8.265   8.301   3.192
 8166WAT     H124740   8.288   8.331   3.099
 8166WAT     H224741   8.266   8.201   3.197
 8167WAT      O24742   2.534   0.802   2.428
 8167WAT     H124743   2.551   0.713   2.470
 8167WAT     H224744   2.436   0.821   2.426
 8168WAT      O24745   5.302   4.677   9.871
 8168WAT     H124746   5.351   4.600   9.831
 8168WAT     H224747   5.353   4.762   9.854
 8169WAT      O24748   1.495   3.315   0.200
 8169WAT     H124749   1.403   3.295   0.165
 8169WAT     H224750   1.530   3.398   0.157
 8170WAT      O24751   4.310   0.510   8.809
 8170WAT     H124752   4.256   0.525   8.727
 8170WAT     H224753   4.401   0.476   8.784
 8171WAT      O24754   7.246   4.988   2.829
 8171WAT     H124755   7.276   5.048   2.902
 8171WAT     H224756   7.319   4.922   2.808
 8172WAT      O24757   2.204   6.887   3.815
 8172WAT     H124758   2.269   6.871   3.741
 8172WAT     H224759   2.245   6.861   3.903
 8173WAT      O24760   2.586   1.461   3.761
 8173WAT     H124761   2.498   1.473   3.807
 8173WAT     H224762   2.627   1.551   3.745
 8174WAT      O24763   3.021   3.516   2.473
 8174WAT     H124764   2.992   3.544   2.564
 8174WAT     H224765   3.119   3.496   2.474
 8175WAT      O24766   9.121   7.689   7.564
 8175WAT     H124767   9.119   7.763   7.497
 8175WAT     H224768   9.031   7.680   7.607
 8176WAT      O24769   0.523   2.235   8.025
 8176WAT     H124770   0.435   2.277   8.045
 8176WAT     H224771   0.596   2.290   8.066
 8177WAT      O24772   6.026   9.283   2.323
 8177WAT     H124773   5.951   9.271   2.259
 8177WAT     H224774   6.035   9.201   2.380
 8178WAT      O24775   9.559   7.800   7.306
 8178WAT     H124776   9.562   7.859   7.387
 8178WAT     H224777   9.578   7.855   7.224
 8179WAT      O24778   5.315   2.015   3.957
 8179WAT     H124779   5.233   1.987   3.907
 8179WAT     H224780   5.350   2.101   3.919
 8180WAT      O24781   2.333   0.503   8.858
 8180WAT     H124782   2.293   0.537   8.773
 8180WAT     H224783   2.373   0.413   8.843
 8181WAT      O24784   3.100   3.928   8.790
 8181WAT     H124785   3.058   4.017   8.771
 8181WAT     H224786   3.052   3.884   8.866
 8182WAT      O24787   7.047   4.719   8.812
 8182WAT     H124788   7.061   4.627   8.776
 8182WAT     H224789   7.121   4.742   8.875
 8183WAT      O24790   2.610   7.687   7.798
 8183WAT     H124791   2.527   7.742   7.810
 8183WAT     H224792   2.624   7.630   7.879
 8184WAT      O24793   2.929   4.347   7.119
 8184WAT     H124794   2.858   4.277   7.124
 8184WAT     H224795   2.895   4.425   7.067
 8185WAT      O24796   8.888   0.859   2.220
 8185WAT     H124797   8.937   0.785   2.265
 8185WAT     H224798   8.793   0.861   2.253
 8186WAT      O24799   9.029   1.161   2.204
 8186WAT     H124800   8.952   1.193   2.148
 8186WAT     H224801   9.063   1.075   2.167
 8187WAT      O24802   2.309   2.392   3.509
 8187WAT     H124803   2.235   2.358   3.451
 8187WAT     H224804   2.289   2.367   3.604
 8188WAT      O24805   2.684   2.072   3.018
 8188WAT     H124806   2.684   2.144   2.948
 8188WAT     H224807   2.668   2.112   3.107
 8189WAT      O24808   1.542   1.492   7.259
 8189WAT     H124809   1.576   1.399   7.274
 8189WAT     H224810   1.535   1.509   7.160
 8190WAT      O24811   1.636   4.231   7.248
 8190WAT     H124812   1.676   4.284   7.173
 8190WAT     H224813   1.666   4.270   7.335
 8191WAT      O24814   7.217   1.492   7.760
 8191WAT     H124815   7.295   1.490   7.822
 8191WAT     H224816   7.219   1.411   7.701
 8192WAT      O24817   1.932   7.016   2.208
 8192WAT     H124818   1.970   7.106   2.189
 8192WAT     H224819   2.004   6.957   2.244
 8193WAT      O24820   3.064   9.263   3.286
 8193WAT     H124821   2.996   9.219   3.345
 8193WAT     H224822   3.036   9.254   3.190
 8194WAT      O24823   1.346   5.232   7.780
 8194WAT     H124824   1.284   5.275   7.845
 8194WAT     H224825   1.352   5.288   7.697
 8195WAT      O24826   0.185   1.561   3.873
 8195WAT     H124827   0.092   1.566   3.836
 8195WAT     H224828   0.236   1.642   3.844
 8196WAT      O24829   2.091   8.312   5.232
 8196WAT     H124830   2.177   8.263   5.241
 8196WAT     H224831   2.071   8.329   5.136
 8197WAT      O24832   2.551   3.497   8.888
 8197WAT     H124833   2.583   3.588   8.916
 8197WAT     H224834   2.630   3.441   8.861
 8198WAT      O24835   6.221   8.437   6.725
 8198WAT     H124836   6.275   8.521   6.732
 8198WAT     H224837   6.169   8.424   6.810
 8199WAT      O24838   3.693   8.964   7.824
 8199WAT     H124839   3.709   8.887   7.887
 8199WAT     H224840   3.660   9.043   7.876
 8200WAT      O24841   9.148   7.702   8.881
 8200WAT     H124842   9.126   7.783   8.935
 8200WAT     H224843   9.065   7.668   8.837
 8201WAT      O24844   6.029   3.925   1.161
 8201WAT     H124845   6.090   3.961   1.231
 8201WAT     H224846   5.951   3.986   1.150
 8202WAT      O24847   6.077   1.100   2.413
 8202WAT     H124848   6.054   1.062   2.324
 8202WAT     H224849   6.006   1.165   2.441
 8203WAT      O24850   1.963   3.075   1.641
 8203WAT     H124851   1.912   3.116   1.565
 8203WAT     H224852   1.916   3.095   1.727
 8204WAT      O24853   2.245   0.398   3.750
 8204WAT     H124854   2.301   0.338   3.693
 8204WAT     H224855   2.257   0.373   3.846
 8205WAT      O24856   7.757   3.524   7.592
 8205WAT     H124857   7.685   3.521   7.661
 8205WAT     H224858   7.780   3.619   7.571
 8206WAT      O24859   3.813   0.293   3.372
 8206WAT     H124860   3.791   0.348   3.453
 8206WAT     H224861   3.912   0.291   3.359
 8207WAT      O24862   1.947   9.366   5.067
 8207WAT     H124863   1.994   9.400   4.986
 8207WAT     H224864   1.865   9.422   5.084
 8208WAT      O24865   5.854   4.512   3.877
 8208WAT     H124866   5.904   4.478   3.798
 8208WAT     H224867   5.770   4.460   3.889
 8209WAT      O24868   3.401   4.735   3.758
 8209WAT     H124869   3.457   4.652   3.761
 8209WAT     H224870   3.328   4.728   3.826
 8210WAT      O24871   6.489   8.286   9.563
 8210WAT     H124872   6.478   8.275   9.662
 8210WAT     H224873   6.458   8.202   9.517
 8211WAT      O24874   9.613   7.654   1.749
 8211WAT     H124875   9.552   7.661   1.829
 8211WAT     H224876   9.561   7.619   1.671
 8212WAT      O24877   2.352   3.489   3.171
 8212WAT     H124878   2.325   3.515   3.078
 8212WAT     H224879   2.452   3.493   3.178
 8213WAT      O24880   0.773   2.246   0.017
 8213WAT     H124881   0.706   2.214  -0.050
 8213WAT     H224882   0.769   2.346   0.024
 8214WAT      O24883   4.402   0.131   6.987
 8214WAT     H124884   4.304   0.152   6.980
 8214WAT     H224885   4.414   0.037   7.018
 8215WAT      O24886   9.285   2.843   6.322
 8215WAT     H124887   9.315   2.789   6.244
 8215WAT     H224888   9.334   2.930   6.324
 8216WAT      O24889   4.903   7.279   4.665
 8216WAT     H124890   4.843   7.313   4.738
 8216WAT     H224891   4.982   7.234   4.705
 8217WAT      O24892   7.665   0.064   5.107
 8217WAT     H124893   7.752   0.018   5.092
 8217WAT     H224894   7.592  -0.004   5.114
 8218WAT      O24895   6.227   8.273   4.562
 8218WAT     H124896   6.166   8.224   4.500
 8218WAT     H224897   6.193   8.366   4.576
 8219WAT      O24898   0.352   8.731   4.508
 8219WAT     H124899   0.419   8.767   4.443
 8219WAT     H224900   0.393   8.727   4.599
 8220WAT      O24901   1.846   6.107   0.295
 8220WAT     H124902   1.794   6.146   0.370
 8220WAT     H224903   1.794   6.033   0.253
 8221WAT      O24904   3.567   8.386   7.350
 8221WAT     H124905   3.541   8.363   7.256
 8221WAT     H224906   3.487   8.421   7.399
 8222WAT      O24907   6.052   7.398   8.546
 8222WAT     H124908   6.127   7.348   8.503
 8222WAT     H224909   6.037   7.364   8.638
 8223WAT      O24910   4.437   0.252   4.322
 8223WAT     H124911   4.453   0.272   4.419
 8223WAT     H224912   4.483   0.320   4.266
 8224WAT      O24913   9.618   2.516   2.649
 8224WAT     H124914   9.642   2.509   2.552
 8224WAT     H224915   9.641   2.429   2.694
 8225WAT      O24916   5.926   3.679   2.955
 8225WAT     H124917   5.846   3.740   2.950
 8225WAT     H224918   5.985   3.695   2.876
 8226WAT      O24919   8.394   7.306   3.735
 8226WAT     H124920   8.467   7.312   3.803
 8226WAT     H224921   8.402   7.382   3.671
 8227WAT      O24922   9.540   7.517   6.604
 8227WAT     H124923   9.637   7.493   6.609
 8227WAT     H224924   9.525   7.606   6.646
 8228WAT      O24925   3.281   5.803   7.896
 8228WAT     H124926   3.221   5.742   7.844
 8228WAT     H224927   3.226   5.863   7.953
 8229WAT      O24928   4.648   4.064   0.781
 8229WAT     H124929   4.595   4.092   0.701
 8229WAT     H224930   4.723   4.005   0.752
 8230WAT      O24931   1.715   3.281   3.182
 8230WAT     H124932   1.681   3.357   3.238
 8230WAT     H224933   1.811   3.265   3.204
 8231WAT      O24934   2.358   2.146   8.005
 8231WAT     H124935   2.417   2.183   7.933
 8231WAT     H224936   2.294   2.081   7.964
 8232WAT      O24937   9.201   6.191   9.178
 8232WAT     H124938   9.224   6.156   9.269
 8232WAT     H224939   9.103   6.180   9.161
 8233WAT      O24940   1.546   0.440   6.508
 8233WAT     H124941   1.560   0.481   6.599
 8233WAT     H224942   1.510   0.347   6.519
 8234WAT      O24943   2.034   5.628   8.222
 8234WAT     H124944   1.981   5.572   8.286
 8234WAT     H224945   2.088   5.696   8.272
 8235WAT      O24946   6.802   0.048   3.924
 8235WAT     H124947   6.851   0.132   3.900
 8235WAT     H224948   6.855  -0.003   3.992
 8236WAT      O24949   1.903   5.300   6.008
 8236WAT     H124950   1.908   5.200   5.998
 8236WAT     H224951   1.989   5.341   5.978
 8237WAT      O24952   1.368   8.773   9.113
 8237WAT     H124953   1.332   8.792   9.022
 8237WAT     H224954   1.300   8.723   9.166
 8238WAT      O24955   2.728   7.056   2.094
 8238WAT     H124956   2.644   7.003   2.101
 8238WAT     H224957   2.781   7.026   2.015
 8239WAT      O24958   7.880   8.966   4.631
 8239WAT     H124959   7.794   8.920   4.650
 8239WAT     H224960   7.916   9.006   4.716
 8240WAT      O24961   7.247   2.070   6.197
 8240WAT     H124962   7.201   1.981   6.192
 8240WAT     H224963   7.223   2.115   6.283
 8241WAT      O24964   2.952   2.697   0.294
 8241WAT     H124965   2.934   2.599   0.292
 8241WAT     H224966   2.873   2.745   0.333
 8242WAT      O24967   2.484   9.122   8.305
 8242WAT     H124968   2.501   9.035   8.352
 8242WAT     H224969   2.558   9.140   8.240
 8243WAT      O24970   3.517   1.731   8.437
 8243WAT     H124971   3.487   1.722   8.532
 8243WAT     H224972   3.544   1.826   8.420
 8244WAT      O24973   8.348   4.069   8.975
 8244WAT     H124974   8.396   3.999   8.922
 8244WAT     H224975   8.364   4.159   8.934
 8245WAT      O24976   5.715   4.250   1.056
 8245WAT     H124977   5.689   4.344   1.080
 8245WAT     H224978   5.677   4.187   1.124
 8246WAT      O24979   9.402   3.153   0.162
 8246WAT     H124980   9.374   3.208   0.241
 8246WAT     H224981   9.496   3.176   0.137
 8247WAT      O24982   9.513   4.811   0.443
 8247WAT     H124983   9.508   4.723   0.397
 8247WAT     H224984   9.480   4.883   0.381
 8248WAT      O24985   0.949   0.693   3.171
 8248WAT     H124986   0.871   0.754   3.180
 8248WAT     H224987   1.033   0.747   3.159
 8249WAT      O24988   2.133   2.612   4.239
 8249WAT     H124989   2.044   2.581   4.205
 8249WAT     H224990   2.201   2.602   4.166
 8250WAT      O24991   0.408   2.274   4.619
 8250WAT     H124992   0.407   2.269   4.719
 8250WAT     H224993   0.325   2.232   4.583
 8251WAT      O24994   6.597   0.905   8.745
 8251WAT     H124995   6.541   0.823   8.742
 8251WAT     H224996   6.667   0.896   8.816
 8252WAT      O24997   7.099   1.181   4.916
 8252WAT     H124998   7.186   1.132   4.913
 8252WAT     H224999   7.062   1.189   4.823
 8253WAT      O25000   5.764   1.979   6.575
 8253WAT     H125001   5.699   1.913   6.613
 8253WAT     H225002   5.740   2.071   6.608
 8254WAT      O25003   0.041   9.468   7.627
 8254WAT     H125004  -0.048   9.475   7.583
 8254WAT     H225005   0.112   9.454   7.557
 8255WAT      O25006   3.115   2.968   3.033
 8255WAT     H125007   3.122   3.026   2.952
 8255WAT     H225008   3.088   3.024   3.112
 8256WAT      O25009   9.004   3.623   7.668
 8256WAT     H125010   8.944   3.602   7.591
 8256WAT     H225011   8.949   3.637   7.750
 8257WAT      O25012   0.412   3.469   2.270
 8257WAT     H125013   0.368   3.531   2.204
 8257WAT     H225014   0.499   3.508   2.298
 8258WAT      O25015   6.290   5.571   5.624
 8258WAT     H125016   6.276   5.562   5.525
 8258WAT     H225017   6.208   5.610   5.666
 8259WAT      O25018   7.381   6.541   6.558
 8259WAT     H125019   7.369   6.473   6.486
 8259WAT     H225020   7.454   6.512   6.620
 8260WAT      O25021   7.942   4.162   6.982
 8260WAT     H125022   8.000   4.179   7.061
 8260WAT     H225023   7.993   4.178   6.898
 8261WAT      O25024   4.265   1.169   5.164
 8261WAT     H125025   4.201   1.204   5.232
 8261WAT     H225026   4.324   1.100   5.206
 8262WAT      O25027   3.120   6.427   2.228
 8262WAT     H125028   3.131   6.380   2.315
 8262WAT     H225029   3.135   6.363   2.153
 8263WAT      O25030   3.645   3.090   7.539
 8263WAT     H125031   3.604   3.138   7.462
 8263WAT     H225032   3.576   3.034   7.585
 8264WAT      O25033   0.958   8.222   3.022
 8264WAT     H125034   0.964   8.313   2.980
 8264WAT     H225035   0.890   8.225   3.096
 8265WAT      O25036   2.978   1.901   4.772
 8265WAT     H125037   2.921   1.978   4.802
 8265WAT     H225038   2.920   1.835   4.724
 8266WAT      O25039   6.155   4.487   9.437
 8266WAT     H125040   6.156   4.531   9.527
 8266WAT     H225041   6.186   4.552   9.368
 8267WAT      O25042   6.991   0.250   3.941
 8267WAT     H125043   7.050   0.273   4.019
 8267WAT     H225044   6.953   0.335   3.903
 8268WAT      O25045   7.826   2.132   2.789
 8268WAT     H125046   7.761   2.071   2.744
 8268WAT     H225047   7.823   2.221   2.745
 8269WAT      O25048   6.676   0.907   2.290
 8269WAT     H125049   6.696   0.983   2.353
 8269WAT     H225050   6.582   0.875   2.306
 8270WAT      O25051   0.351   5.198   6.870
 8270WAT     H125052   0.294   5.252   6.932
 8270WAT     H225053   0.447   5.222   6.884
 8271WAT      O25054   2.484   4.215   8.287
 8271WAT     H125055   2.540   4.251   8.213
 8271WAT     H225056   2.387   4.228   8.266
 8272WAT      O25057   6.046   1.439   5.190
 8272WAT     H125058   6.118   1.380   5.154
 8272WAT     H225059   5.985   1.386   5.249
 8273WAT      O25060   1.979   3.760   5.676
 8273WAT     H125061   2.077   3.746   5.693
 8273WAT     H225062   1.956   3.855   5.694
 8274WAT      O25063   4.049   3.175   0.852
 8274WAT     H125064   3.985   3.129   0.914
 8274WAT     H225065   4.092   3.107   0.792
 8275WAT      O25066   5.015   9.451   7.918
 8275WAT     H125067   4.961   9.415   7.994
 8275WAT     H225068   5.060   9.536   7.947
 8276WAT      O25069   8.877   4.715   1.389
 8276WAT     H125070   8.973   4.704   1.364
 8276WAT     H225071   8.842   4.630   1.427
 8277WAT      O25072   7.088   7.598   7.678
 8277WAT     H125073   7.099   7.499   7.684
 8277WAT     H225074   7.022   7.628   7.746
 8278WAT      O25075   5.875   7.390   0.066
 8278WAT     H125076   5.786   7.433   0.051
 8278WAT     H225077   5.926   7.442   0.135
 8279WAT      O25078   4.010   3.309   6.749
 8279WAT     H125079   4.062   3.239   6.701
 8279WAT     H225080   4.048   3.322   6.840
 8280WAT      O25081   1.867   7.139   2.595
 8280WAT     H125082   1.835   7.100   2.681
 8280WAT     H225083   1.967   7.137   2.592
 8281WAT      O25084   4.159   7.780   0.814
 8281WAT     H125085   4.242   7.827   0.781
 8281WAT     H225086   4.080   7.812   0.761
 8282WAT      O25087   5.503   0.414   8.544
 8282WAT     H125088   5.558   0.449   8.620
 8282WAT     H225089   5.532   0.321   8.521
 8283WAT      O25090   3.809   2.582   0.692
 8283WAT     H125091   3.884   2.611   0.752
 8283WAT     H225092   3.743   2.529   0.745
 8284WAT      O25093   7.916   8.386   4.206
 8284WAT     H125094   7.862   8.332   4.270
 8284WAT     H225095   7.996   8.423   4.253
 8285WAT      O25096   8.262   7.900   3.885
 8285WAT     H125097   8.259   7.938   3.793
 8285WAT     H225098   8.355   7.867   3.905
 8286WAT      O25099   5.303   6.616   4.263
 8286WAT     H125100   5.273   6.668   4.183
 8286WAT     H225101   5.230   6.616   4.332
 8287WAT      O25102   2.759   3.925   4.287
 8287WAT     H125103   2.827   3.859   4.317
 8287WAT     H225104   2.800   3.987   4.220
 8288WAT      O25105   0.358   9.243   5.685
 8288WAT     H125106   0.425   9.238   5.611
 8288WAT     H225107   0.267   9.228   5.648
 8289WAT      O25108   4.741   1.484   5.423
 8289WAT     H125109   4.704   1.391   5.426
 8289WAT     H225110   4.780   1.508   5.512
 8290WAT      O25111   9.404   5.680   2.901
 8290WAT     H125112   9.439   5.744   2.833
 8290WAT     H225113   9.341   5.616   2.858
 8291WAT      O25114   2.907   9.551   9.271
 8291WAT     H125115   2.939   9.506   9.188
 8291WAT     H225116   2.828   9.608   9.249
 8292WAT      O25117   1.672   5.267   6.735
 8292WAT     H125118   1.755   5.212   6.723
 8292WAT     H225119   1.607   5.246   6.662
 8293WAT      O25120   8.390   1.047   2.944
 8293WAT     H125121   8.456   0.988   2.992
 8293WAT     H225122   8.323   0.991   2.897
 8294WAT      O25123   3.771   0.665   6.646
 8294WAT     H125124   3.701   0.612   6.694
 8294WAT     H225125   3.771   0.641   6.549
 8295WAT      O25126   5.972   1.296   1.066
 8295WAT     H125127   5.990   1.393   1.051
 8295WAT     H225128   5.874   1.279   1.066
 8296WAT      O25129   9.048   9.219   7.622
 8296WAT     H125130   9.138   9.198   7.584
 8296WAT     H225131   8.980   9.220   7.549
 8297WAT      O25132   6.322   5.906   2.877
 8297WAT     H125133   6.420   5.891   2.866
 8297WAT     H225134   6.273   5.858   2.805
 8298WAT      O25135   6.503   0.273   3.784
 8298WAT     H125136   6.498   0.252   3.881
 8298WAT     H225137   6.421   0.323   3.756
 8299WAT      O25138   9.652   8.182   1.396
 8299WAT     H125139   9.599   8.210   1.476
 8299WAT     H225140   9.684   8.263   1.347
 8300WAT      O25141   0.777   5.021   5.480
 8300WAT     H125142   0.749   5.105   5.433
 8300WAT     H225143   0.844   4.972   5.424
 8301WAT      O25144   5.800   0.578   7.463
 8301WAT     H125145   5.775   0.560   7.368
 8301WAT     H225146   5.719   0.568   7.522
 8302WAT      O25147   7.687   6.786   9.742
 8302WAT     H125148   7.736   6.766   9.828
 8302WAT     H225149   7.653   6.700   9.703
 8303WAT      O25150   2.683   5.241   3.800
 8303WAT     H125151   2.690   5.312   3.870
 8303WAT     H225152   2.587   5.228   3.774
 8304WAT      O25153   2.680   0.121   0.755
 8304WAT     H125154   2.739   0.148   0.831
 8304WAT     H225155   2.688   0.022   0.741
 8305WAT      O25156   5.866   9.542   2.715
 8305WAT     H125157   5.777   9.537   2.760
 8305WAT     H225158   5.936   9.501   2.774
 8306WAT      O25159   1.605   1.476   5.624
 8306WAT     H125160   1.626   1.427   5.539
 8306WAT     H225161   1.655   1.434   5.700
 8307WAT      O25162   5.792   1.255   0.781
 8307WAT     H125163   5.799   1.354   0.777
 8307WAT     H225164   5.747   1.227   0.865
 8308WAT      O25165   0.126   4.804   4.629
 8308WAT     H125166   0.033   4.799   4.594
 8308WAT     H225167   0.129   4.868   4.706
 8309WAT      O25168   7.712   2.173   8.809
 8309WAT     H125169   7.774   2.220   8.872
 8309WAT     H225170   7.764   2.106   8.756
 8310WAT      O25171   9.844   1.457   1.481
 8310WAT     H125172   9.802   1.399   1.551
 8310WAT     H225173   9.774   1.490   1.418
 8311WAT      O25174   5.615   9.013   8.620
 8311WAT     H125175   5.589   9.109   8.629
 8311WAT     H225176   5.567   8.973   8.542
 8312WAT      O25177   4.499   7.504   9.159
 8312WAT     H125178   4.567   7.578   9.155
 8312WAT     H225179   4.409   7.540   9.134
 8313WAT      O25180   7.723   2.925   8.898
 8313WAT     H125181   7.672   2.845   8.930
 8313WAT     H225182   7.740   2.916   8.800
 8314WAT      O25183   1.571   5.204   2.936
 8314WAT     H125184   1.517   5.159   3.007
 8314WAT     H225185   1.629   5.275   2.977
 8315WAT      O25186   8.845   1.504   4.595
 8315WAT     H125187   8.873   1.596   4.625
 8315WAT     H225188   8.834   1.504   4.496
 8316WAT      O25189   7.357   1.501   9.706
 8316WAT     H125190   7.271   1.499   9.756
 8316WAT     H225191   7.342   1.472   9.612
 8317WAT      O25192   4.372   1.758   5.945
 8317WAT     H125193   4.325   1.835   5.901
 8317WAT     H225194   4.425   1.707   5.877
 8318WAT      O25195   1.756   9.271   1.522
 8318WAT     H125196   1.827   9.315   1.578
 8318WAT     H225197   1.782   9.176   1.504
 8319WAT      O25198   7.709   5.851   5.745
 8319WAT     H125199   7.791   5.818   5.792
 8319WAT     H225200   7.707   5.816   5.651
 8320WAT      O25201   4.277   0.710   5.739
 8320WAT     H125202   4.351   0.727   5.673
 8320WAT     H225203   4.317   0.680   5.826
 8321WAT      O25204   8.742   1.169   0.039
 8321WAT     H125205   8.699   1.251   0.000
 8321WAT     H225206   8.675   1.095   0.042
 8322WAT      O25207   2.679   5.808   6.983
 8322WAT     H125208   2.744   5.747   6.938
 8322WAT     H225209   2.707   5.903   6.970
 8323WAT      O25210   3.492   9.382   4.720
 8323WAT     H125211   3.456   9.396   4.627
 8323WAT     H225212   3.590   9.362   4.714
 8324WAT      O25213   5.894   4.532   3.272
 8324WAT     H125214   5.935   4.459   3.326
 8324WAT     H225215   5.820   4.495   3.216
 8325WAT      O25216   6.170   3.566   2.353
 8325WAT     H125217   6.120   3.602   2.274
 8325WAT     H225218   6.250   3.516   2.322
 8326WAT      O25219   7.644   8.032   7.746
 8326WAT     H125220   7.685   8.104   7.690
 8326WAT     H225221   7.627   8.067   7.838
 8327WAT      O25222   7.470   3.697   7.075
 8327WAT     H125223   7.539   3.741   7.018
 8327WAT     H225224   7.468   3.742   7.165
 8328WAT      O25225   7.758   1.804   7.011
 8328WAT     H125226   7.748   1.858   6.928
 8328WAT     H225227   7.697   1.840   7.082
 8329WAT      O25228   9.822   4.842   8.770
 8329WAT     H125229   9.811   4.782   8.849
 8329WAT     H225230   9.912   4.827   8.729
 8330WAT      O25231   3.286   5.751   4.604
 8330WAT     H125232   3.190   5.749   4.632
 8330WAT     H225233   3.303   5.833   4.550
 8331WAT      O25234   4.066   3.145   5.245
 8331WAT     H125235   4.142   3.138   5.310
 8331WAT     H225236   4.029   3.053   5.228
 8332WAT      O25237   0.081   1.567   8.209
 8332WAT     H125238   0.063   1.665   8.207
 8332WAT     H225239   0.180   1.551   8.218
 8333WAT      O25240   2.489   9.420   3.275
 8333WAT     H125241   2.514   9.358   3.349
 8333WAT     H225242   2.489   9.515   3.308
 8334WAT      O25243   9.891   6.963   4.995
 8334WAT     H125244   9.833   7.014   5.059
 8334WAT     H225245   9.854   6.972   4.903
 8335WAT      O25246   8.084   0.768   1.643
 8335WAT     H125247   8.144   0.846   1.658
 8335WAT     H225248   8.044   0.740   1.730
 8336WAT      O25249   7.276   3.416   8.443
 8336WAT     H125250   7.285   3.326   8.486
 8336WAT     H225251   7.182   3.429   8.411
 8337WAT      O25252   4.361   8.452   4.190
 8337WAT     H125253   4.382   8.354   4.191
 8337WAT     H225254   4.413   8.496   4.117
 8338WAT      O25255   9.201   0.248   8.834
 8338WAT     H125256   9.197   0.342   8.867
 8338WAT     H225257   9.260   0.194   8.894
 8339WAT      O25258   9.481   7.320   8.491
 8339WAT     H125259   9.438   7.369   8.415
 8339WAT     H225260   9.485   7.380   8.571
 8340WAT      O25261   1.061   4.878   6.860
 8340WAT     H125262   1.004   4.939   6.806
 8340WAT     H225263   1.157   4.890   6.835
 8341WAT      O25264   5.673   5.245   7.306
 8341WAT     H125265   5.584   5.218   7.269
 8341WAT     H225266   5.660   5.296   7.391
 8342WAT      O25267   1.286   3.544   0.948
 8342WAT     H125268   1.371   3.546   1.002
 8342WAT     H225269   1.231   3.624   0.970
 8343WAT      O25270   0.018   1.812   5.226
 8343WAT     H125271   0.114   1.817   5.199
 8343WAT     H225272   0.012   1.800   5.325
 8344WAT      O25273   3.272   3.239   7.828
 8344WAT     H125274   3.267   3.240   7.729
 8344WAT     H225275   3.181   3.253   7.866
 8345WAT      O25276   2.441   1.439   6.068
 8345WAT     H125277   2.456   1.444   5.969
 8345WAT     H225278   2.385   1.516   6.097
 8346WAT      O25279   5.199   2.517   2.360
 8346WAT     H125280   5.191   2.529   2.459
 8346WAT     H225281   5.118   2.470   2.325
 8347WAT      O25282   6.603   5.046   7.992
 8347WAT     H125283   6.544   5.126   7.986
 8347WAT     H225284   6.694   5.068   7.957
 8348WAT      O25285   9.569   0.223   9.233
 8348WAT     H125286   9.662   0.205   9.264
 8348WAT     H225287   9.567   0.308   9.181
 8349WAT      O25288   7.508   0.544   5.105
 8349WAT     H125289   7.552   0.629   5.077
 8349WAT     H225290   7.445   0.563   5.180
 8350WAT      O25291   3.687   2.710   1.505
 8350WAT     H125292   3.737   2.625   1.488
 8350WAT     H225293   3.752   2.781   1.531
 8351WAT      O25294   0.280   7.712   9.844
 8351WAT     H125295   0.198   7.682   9.891
 8351WAT     H225296   0.339   7.763   9.907
 8352WAT      O25297   9.534   8.660   7.253
 8352WAT     H125298   9.436   8.675   7.237
 8352WAT     H225299   9.552   8.662   7.351
 8353WAT      O25300   6.459   6.575   8.269
 8353WAT     H125301   6.537   6.513   8.265
 8353WAT     H225302   6.398   6.548   8.343
 8354WAT      O25303   4.703   0.618   7.655
 8354WAT     H125304   4.700   0.712   7.623
 8354WAT     H225305   4.675   0.615   7.751
 8355WAT      O25306   4.268   6.420   7.778
 8355WAT     H125307   4.195   6.421   7.710
 8355WAT     H225308   4.233   6.383   7.864
 8356WAT      O25309   3.895   1.754   0.365
 8356WAT     H125310   3.880   1.682   0.297
 8356WAT     H225311   3.812   1.768   0.418
 8357WAT      O25312   6.102   2.963   1.137
 8357WAT     H125313   6.172   2.913   1.086
 8357WAT     H225314   6.072   2.908   1.215
 8358WAT      O25315   2.804   2.754   3.034
 8358WAT     H125316   2.787   2.664   3.075
 8358WAT     H225317   2.889   2.791   3.070
 8359WAT      O25318   5.179   2.454   9.728
 8359WAT     H125319   5.177   2.526   9.797
 8359WAT     H225320   5.267   2.407   9.731
 8360WAT      O25321   0.451   5.880   0.411
 8360WAT     H125322   0.476   5.973   0.383
 8360WAT     H225323   0.368   5.852   0.362
 8361WAT      O25324   6.918   0.366   5.413
 8361WAT     H125325   6.865   0.362   5.329
 8361WAT     H225326   6.857   0.358   5.492
 8362WAT      O25327   3.799   1.719   2.260
 8362WAT     H125328   3.787   1.810   2.301
 8362WAT     H225329   3.896   1.701   2.246
 8363WAT      O25330   9.616   7.503   0.778
 8363WAT     H125331   9.666   7.463   0.855
 8363WAT     H225332   9.549   7.569   0.812
 8364WAT      O25333   2.252   8.710   4.019
 8364WAT     H125334   2.183   8.782   4.019
 8364WAT     H225335   2.255   8.666   4.109
 8365WAT      O25336   3.864   8.137   5.975
 8365WAT     H125337   3.772   8.111   6.001
 8365WAT     H225338   3.861   8.215   5.913
 8366WAT      O25339   3.204   8.311   7.717
 8366WAT     H125340   3.117   8.262   7.722
 8366WAT     H225341   3.276   8.256   7.760
 8367WAT      O25342   6.024   2.488   5.917
 8367WAT     H125343   5.938   2.451   5.953
 8367WAT     H225344   6.025   2.481   5.818
 8368WAT      O25345   3.820   2.030   6.823
 8368WAT     H125346   3.865   1.999   6.907
 8368WAT     H225347   3.794   1.950   6.768
 8369WAT      O25348   0.181   5.600   0.100
 8369WAT     H125349   0.232   5.685   0.088
 8369WAT     H225350   0.245   5.523   0.108
 8370WAT      O25351   4.178   0.062   9.027
 8370WAT     H125352   4.127  -0.023   9.036
 8370WAT     H225353   4.182   0.108   9.116
 8371WAT      O25354   1.153   5.568   9.252
 8371WAT     H125355   1.099   5.598   9.174
 8371WAT     H225356   1.143   5.470   9.264
 8372WAT      O25357   9.030   1.515   5.607
 8372WAT     H125358   9.124   1.512   5.639
 8372WAT     H225359   8.968   1.503   5.684
 8373WAT      O25360   7.994   3.275   3.965
 8373WAT     H125361   7.927   3.264   3.891
 8373WAT     H225362   8.077   3.317   3.929
 8374WAT      O25363   2.484   7.755   4.103
 8374WAT     H125364   2.581   7.757   4.129
 8374WAT     H225365   2.466   7.676   4.044
 8375WAT      O25366   1.532   4.334   8.024
 8375WAT     H125367   1.490   4.402   7.964
 8375WAT     H225368   1.630   4.352   8.031
 8376WAT      O25369   1.135   6.539   6.663
 8376WAT     H125370   1.072   6.475   6.618
 8376WAT     H225371   1.225   6.496   6.672
 8377WAT      O25372   4.448   1.303   2.425
 8377WAT     H125373   4.440   1.402   2.413
 8377WAT     H225374   4.521   1.283   2.490
 8378WAT      O25375   7.533   8.400   5.059
 8378WAT     H125376   7.622   8.373   5.023
 8378WAT     H225377   7.477   8.319   5.073
 8379WAT      O25378   8.936   4.240   4.229
 8379WAT     H125379   8.859   4.277   4.282
 8379WAT     H225380   9.009   4.308   4.226
 8380WAT      O25381   5.428   4.427   0.153
 8380WAT     H125382   5.333   4.446   0.176
 8380WAT     H225383   5.481   4.410   0.236
 8381WAT      O25384   8.508   1.771   7.329
 8381WAT     H125385   8.539   1.740   7.419
 8381WAT     H225386   8.575   1.836   7.293
 8382WAT      O25387   0.348   5.416   3.734
 8382WAT     H125388   0.440   5.418   3.695
 8382WAT     H225389   0.312   5.510   3.739
 8383WAT      O25390   2.851   3.830   6.256
 8383WAT     H125391   2.873   3.923   6.226
 8383WAT     H225392   2.815   3.832   6.349
 8384WAT      O25393   0.540   4.345   9.002
 8384WAT     H125394   0.521   4.344   9.100
 8384WAT     H225395   0.629   4.302   8.985
 8385WAT      O25396   0.555   8.165   3.617
 8385WAT     H125397   0.582   8.261   3.610
 8385WAT     H225398   0.457   8.157   3.602
 8386WAT      O25399   1.808   4.576   8.685
 8386WAT     H125400   1.868   4.646   8.649
 8386WAT     H225401   1.855   4.526   8.759
 8387WAT      O25402   0.712   4.321   4.127
 8387WAT     H125403   0.700   4.339   4.029
 8387WAT     H225404   0.623   4.302   4.169
 8388WAT      O25405   9.747   3.036   4.767
 8388WAT     H125406   9.764   3.130   4.737
 8388WAT     H225407   9.666   3.034   4.825
 8389WAT      O25408   5.201   4.406   3.378
 8389WAT     H125409   5.192   4.500   3.345
 8389WAT     H225410   5.151   4.395   3.464
 8390WAT      O25411   6.253   3.228   7.172
 8390WAT     H125412   6.246   3.203   7.268
 8390WAT     H225413   6.163   3.255   7.137
 8391WAT      O25414   3.399   8.549   7.550
 8391WAT     H125415   3.403   8.583   7.644
 8391WAT     H225416   3.432   8.620   7.487
 8392WAT      O25417   9.297   6.179   4.081
 8392WAT     H125418   9.302   6.273   4.048
 8392WAT     H225419   9.242   6.175   4.165
 8393WAT      O25420   1.824   2.070   1.403
 8393WAT     H125421   1.799   2.152   1.453
 8393WAT     H225422   1.867   2.004   1.465
 8394WAT      O25423   4.096   4.629   7.116
 8394WAT     H125424   4.107   4.639   7.017
 8394WAT     H225425   4.026   4.692   7.149
 8395WAT      O25426   7.145   3.967   3.879
 8395WAT     H125427   7.161   3.877   3.919
 8395WAT     H225428   7.187   3.971   3.788
 8396WAT      O25429   3.420   0.427   4.333
 8396WAT     H125430   3.403   0.350   4.272
 8396WAT     H225431   3.518   0.449   4.331
 8397WAT      O25432   9.051   0.858   6.982
 8397WAT     H125433   9.045   0.948   7.023
 8397WAT     H225434   9.114   0.860   6.904
 8398WAT      O25435   1.404   4.901   3.375
 8398WAT     H125436   1.491   4.857   3.401
 8398WAT     H225437   1.328   4.851   3.417
 8399WAT      O25438   8.893   8.855   6.175
 8399WAT     H125439   8.961   8.814   6.235
 8399WAT     H225440   8.929   8.861   6.082
 8400WAT      O25441   3.676   9.414   0.306
 8400WAT     H125442   3.759   9.470   0.312
 8400WAT     H225443   3.702   9.319   0.289
 8401WAT      O25444   9.310   2.408   1.025
 8401WAT     H125445   9.398   2.437   1.062
 8401WAT     H225446   9.285   2.319   1.063
 8402WAT      O25447   8.175   7.140   5.692
 8402WAT     H125448   8.081   7.172   5.679
 8402WAT     H225449   8.228   7.210   5.740
 8403WAT      O25450   1.077   2.710   4.337
 8403WAT     H125451   1.035   2.705   4.427
 8403WAT     H225452   1.101   2.805   4.316
 8404WAT      O25453   5.241   8.789   7.040
 8404WAT     H125454   5.307   8.714   7.042
 8404WAT     H225455   5.288   8.873   7.012
 8405WAT      O25456   4.934   5.647   5.625
 8405WAT     H125457   4.968   5.572   5.683
 8405WAT     H225458   4.893   5.609   5.543
 8406WAT      O25459   5.824   9.663   1.402
 8406WAT     H125460   5.728   9.636   1.388
 8406WAT     H225461   5.848   9.732   1.334
 8407WAT      O25462   6.151   2.471   7.729
 8407WAT     H125463   6.232   2.530   7.733
 8407WAT     H225464   6.147   2.414   7.811
 8408WAT      O25465   0.599   7.575   9.756
 8408WAT     H125466   0.694   7.543   9.748
 8408WAT     H225467   0.593   7.669   9.723
 8409WAT      O25468   9.686   6.077   3.694
 8409WAT     H125469   9.693   6.046   3.598
 8409WAT     H225470   9.599   6.123   3.708
 8410WAT      O25471   0.969   7.589   4.296
 8410WAT     H125472   0.895   7.586   4.363
 8410WAT     H225473   1.031   7.664   4.318
 8411WAT      O25474   1.222   2.318   6.682
 8411WAT     H125475   1.142   2.313   6.623
 8411WAT     H225476   1.296   2.263   6.644
 8412WAT      O25477   9.233   2.963   5.432
 8412WAT     H125478   9.285   2.963   5.517
 8412WAT     H225479   9.225   3.057   5.398
 8413WAT      O25480   8.333   8.605   4.424
 8413WAT     H125481   8.308   8.509   4.430
 8413WAT     H225482   8.381   8.633   4.508
 8414WAT      O25483   4.488   9.603   3.651
 8414WAT     H125484   4.389   9.592   3.649
 8414WAT     H225485   4.529   9.530   3.705
 8415WAT      O25486   7.329   0.866   1.486
 8415WAT     H125487   7.293   0.936   1.424
 8415WAT     H225488   7.411   0.901   1.531
 8416WAT      O25489   6.690   8.073   5.387
 8416WAT     H125490   6.695   8.144   5.457
 8416WAT     H225491   6.651   8.111   5.303
 8417WAT      O25492   5.244   8.585   3.284
 8417WAT     H125493   5.288   8.496   3.274
 8417WAT     H225494   5.314   8.655   3.297
 8418WAT      O25495   8.679   3.741   3.934
 8418WAT     H125496   8.679   3.777   3.841
 8418WAT     H225497   8.755   3.677   3.945
 8419WAT      O25498   5.672   7.569   0.473
 8419WAT     H125499   5.767   7.600   0.481
 8419WAT     H225500   5.657   7.491   0.534
 8420WAT      O25501   3.843   0.435   5.570
 8420WAT     H125502   3.770   0.453   5.635
 8420WAT     H225503   3.911   0.508   5.574
 8421WAT      O25504   0.293   8.994   7.685
 8421WAT     H125505   0.334   9.081   7.712
 8421WAT     H225506   0.194   9.004   7.678
 8422WAT      O25507   3.177   6.455   6.745
 8422WAT     H125508   3.178   6.537   6.687
 8422WAT     H225509   3.086   6.413   6.742
 8423WAT      O25510   9.571   0.226   3.860
 8423WAT     H125511   9.626   0.152   3.899
 8423WAT     H225512   9.506   0.188   3.794
 8424WAT      O25513   6.241   1.635   4.350
 8424WAT     H125514   6.275   1.687   4.272
 8424WAT     H225515   6.316   1.621   4.415
 8425WAT      O25516   9.548   0.018   2.064
 8425WAT     H125517   9.577  -0.068   2.020
 8425WAT     H225518   9.452   0.036   2.042
 8426WAT      O25519   2.740   2.088   0.430
 8426WAT     H125520   2.695   2.103   0.343
 8426WAT     H225521   2.672   2.090   0.504
 8427WAT      O25522   5.069   1.891   3.894
 8427WAT     H125523   4.988   1.849   3.853
 8427WAT     H225524   5.089   1.848   3.982
 8428WAT      O25525   6.254   7.332   3.144
 8428WAT     H125526   6.324   7.324   3.215
 8428WAT     H225527   6.239   7.429   3.123
 8429WAT      O25528   8.264   2.240   8.080
 8429WAT     H125529   8.336   2.261   8.146
 8429WAT     H225530   8.267   2.143   8.057
 8430WAT      O25531   2.555   2.862   6.218
 8430WAT     H125532   2.613   2.939   6.246
 8430WAT     H225533   2.469   2.897   6.181
 8431WAT      O25534   0.091   0.872   2.112
 8431WAT     H125535  -0.006   0.894   2.109
 8431WAT     H225536   0.139   0.922   2.040
 8432WAT      O25537   0.944   4.708   3.092
 8432WAT     H125538   1.026   4.752   3.130
 8432WAT     H225539   0.880   4.778   3.061
 8433WAT      O25540   7.379   0.467   2.306
 8433WAT     H125541   7.302   0.440   2.249
 8433WAT     H225542   7.464   0.436   2.265
 8434WAT      O25543   7.443   2.415   8.989
 8434WAT     H125544   7.401   2.498   8.954
 8434WAT     H225545   7.450   2.347   8.916
 8435WAT      O25546   9.627   6.559   8.035
 8435WAT     H125547   9.546   6.516   8.075
 8435WAT     H225548   9.652   6.511   7.951
 8436WAT      O25549   3.996   0.245   2.127
 8436WAT     H125550   4.026   0.296   2.208
 8436WAT     H225551   3.896   0.250   2.121
 8437WAT      O25552   6.070   0.494   3.028
 8437WAT     H125553   6.066   0.594   3.029
 8437WAT     H225554   6.000   0.458   2.966
 8438WAT      O25555   7.349   7.570   1.043
 8438WAT     H125556   7.314   7.508   0.972
 8438WAT     H225557   7.363   7.519   1.128
 8439WAT      O25558   0.769   0.232   3.414
 8439WAT     H125559   0.839   0.164   3.437
 8439WAT     H225560   0.679   0.198   3.438
 8440WAT      O25561   7.418   8.772   5.269
 8440WAT     H125562   7.471   8.723   5.201
 8440WAT     H225563   7.407   8.714   5.350
 8441WAT      O25564   7.510   5.127   9.292
 8441WAT     H125565   7.598   5.173   9.284
 8441WAT     H225566   7.440   5.193   9.319
 8442WAT      O25567   0.456   3.931   1.576
 8442WAT     H125568   0.365   3.907   1.610
 8442WAT     H225569   0.497   3.999   1.637
 8443WAT      O25570   7.180   8.429   9.639
 8443WAT     H125571   7.100   8.457   9.691
 8443WAT     H225572   7.173   8.332   9.616
 8444WAT      O25573   8.216   0.291   2.145
 8444WAT     H125574   8.161   0.213   2.173
 8444WAT     H225575   8.171   0.376   2.175
 8445WAT      O25576   5.582   6.109   1.317
 8445WAT     H125577   5.529   6.194   1.320
 8445WAT     H225578   5.638   6.107   1.234
 8446WAT      O25579   8.549   2.516   7.721
 8446WAT     H125580   8.501   2.504   7.634
 8446WAT     H225581   8.515   2.599   7.766
 8447WAT      O25582   4.743   0.812   4.121
 8447WAT     H125583   4.795   0.786   4.203
 8447WAT     H225584   4.737   0.912   4.116
 8448WAT      O25585   4.415   2.181   2.427
 8448WAT     H125586   4.486   2.225   2.482
 8448WAT     H225587   4.373   2.249   2.367
 8449WAT      O25588   8.526   4.867   8.360
 8449WAT     H125589   8.504   4.853   8.457
 8449WAT     H225590   8.459   4.818   8.304
 8450WAT      O25591   4.127   6.361   3.529
 8450WAT     H125592   4.162   6.425   3.597
 8450WAT     H225593   4.180   6.371   3.444
 8451WAT      O25594   9.457   3.488   8.883
 8451WAT     H125595   9.373   3.517   8.836
 8451WAT     H225596   9.497   3.566   8.931
 8452WAT      O25597   0.932   1.669   1.324
 8452WAT     H125598   0.869   1.747   1.325
 8452WAT     H225599   1.026   1.702   1.321
 8453WAT      O25600   4.462   3.673   6.471
 8453WAT     H125601   4.428   3.596   6.525
 8453WAT     H225602   4.385   3.728   6.439
 8454WAT      O25603   8.262   6.493   6.299
 8454WAT     H125604   8.309   6.470   6.385
 8454WAT     H225605   8.329   6.505   6.226
 8455WAT      O25606   8.937   2.824   0.272
 8455WAT     H125607   9.012   2.846   0.335
 8455WAT     H225608   8.861   2.887   0.289
 8456WAT      O25609   4.197   9.830   3.472
 8456WAT     H125610   4.146   9.864   3.550
 8456WAT     H225611   4.196   9.730   3.472
 8457WAT      O25612   1.228   8.030   3.807
 8457WAT     H125613   1.182   7.962   3.750
 8457WAT     H225614   1.226   8.119   3.761
 8458WAT      O25615   9.496   1.692   8.417
 8458WAT     H125616   9.468   1.649   8.503
 8458WAT     H225617   9.595   1.699   8.413
 8459WAT      O25618   0.874   0.037   1.675
 8459WAT     H125619   0.970   0.020   1.699
 8459WAT     H225620   0.815   0.011   1.752
 8460WAT      O25621   9.333   8.122   6.183
 8460WAT     H125622   9.243   8.081   6.191
 8460WAT     H225623   9.334   8.186   6.106
 8461WAT      O25624   5.462   0.383   4.741
 8461WAT     H125625   5.377   0.334   4.728
 8461WAT     H225626   5.454   0.475   4.701
 8462WAT      O25627   8.542   6.165   1.228
 8462WAT     H125628   8.599   6.089   1.198
 8462WAT     H225629   8.600   6.237   1.267
 8463WAT      O25630   0.242   8.322   0.453
 8463WAT     H125631   0.199   8.239   0.418
 8463WAT     H225632   0.259   8.385   0.378
 8464WAT      O25633   2.683   0.040   3.208
 8464WAT     H125634   2.663   0.017   3.113
 8464WAT     H225635   2.774   0.005   3.233
 8465WAT      O25636   6.745   7.274   0.231
 8465WAT     H125637   6.761   7.331   0.311
 8465WAT     H225638   6.683   7.320   0.168
 8466WAT      O25639   1.326   3.473   2.882
 8466WAT     H125640   1.259   3.409   2.845
 8466WAT     H225641   1.366   3.527   2.808
 8467WAT      O25642   4.195   1.984   3.725
 8467WAT     H125643   4.104   1.942   3.736
 8467WAT     H225644   4.190   2.057   3.656
 8468WAT      O25645   3.483   6.124   4.816
 8468WAT     H125646   3.510   6.187   4.889
 8468WAT     H225647   3.556   6.120   4.748
 8469WAT      O25648   5.429   7.844   3.398
 8469WAT     H125649   5.331   7.840   3.414
 8469WAT     H225650   5.447   7.902   3.319
 8470WAT      O25651   5.175   0.459   5.732
 8470WAT     H125652   5.108   0.392   5.698
 8470WAT     H225653   5.158   0.474   5.830
 8471WAT      O25654   0.748   6.668   7.012
 8471WAT     H125655   0.811   6.693   7.085
 8471WAT     H225656   0.777   6.581   6.971
 8472WAT      O25657   0.466   8.472   8.519
 8472WAT     H125658   0.399   8.458   8.592
 8472WAT     H225659   0.426   8.448   8.431
 8473WAT      O25660   0.520   5.821   5.073
 8473WAT     H125661   0.555   5.740   5.027
 8473WAT     H225662   0.485   5.796   5.163
 8474WAT      O25663   8.791   5.128   6.390
 8474WAT     H125664   8.707   5.087   6.427
 8474WAT     H225665   8.772   5.169   6.302
 8475WAT      O25666   7.401   7.013   4.067
 8475WAT     H125667   7.405   7.092   4.005
 8475WAT     H225668   7.397   7.045   4.162
 8476WAT      O25669   8.437   4.435   0.240
 8476WAT     H125670   8.455   4.410   0.335
 8476WAT     H225671   8.367   4.374   0.202
 8477WAT      O25672   2.616   1.002   4.626
 8477WAT     H125673   2.552   1.048   4.564
 8477WAT     H225674   2.583   1.011   4.720
 8478WAT      O25675   3.837   6.937   2.867
 8478WAT     H125676   3.804   6.850   2.903
 8478WAT     H225677   3.847   7.003   2.942
 8479WAT      O25678   5.130   5.413   0.977
 8479WAT     H125679   5.111   5.445   1.070
 8479WAT     H225680   5.220   5.370   0.975
 8480WAT      O25681   6.109   2.802   5.478
 8480WAT     H125682   6.095   2.758   5.389
 8480WAT     H225683   6.139   2.734   5.545
 8481WAT      O25684   4.325   0.660   9.648
 8481WAT     H125685   4.355   0.745   9.691
 8481WAT     H225686   4.361   0.656   9.555
 8482WAT      O25687   5.229   4.772   3.032
 8482WAT     H125688   5.230   4.738   3.127
 8482WAT     H225689   5.165   4.718   2.978
 8483WAT      O25690   3.004   1.934   5.783
 8483WAT     H125691   3.058   1.881   5.718
 8483WAT     H225692   2.979   2.021   5.742
 8484WAT      O25693   3.442   9.272   8.772
 8484WAT     H125694   3.368   9.335   8.797
 8484WAT     H225695   3.508   9.320   8.714
 8485WAT      O25696   8.004   2.768   9.026
 8485WAT     H125697   8.017   2.816   8.939
 8485WAT     H225698   7.958   2.828   9.091
 8486WAT      O25699   5.713   4.351   8.305
 8486WAT     H125700   5.804   4.355   8.347
 8486WAT     H225701   5.718   4.301   8.219
 8487WAT      O25702   5.415   8.486   4.530
 8487WAT     H125703   5.512   8.472   4.508
 8487WAT     H225704   5.374   8.549   4.465
 8488WAT      O25705   2.449   1.173   2.196
 8488WAT     H125706   2.487   1.094   2.149
 8488WAT     H225707   2.449   1.252   2.134
 8489WAT      O25708   3.923   5.886   1.283
 8489WAT     H125709   3.927   5.979   1.245
 8489WAT     H225710   4.011   5.862   1.323
 8490WAT      O25711   4.261   5.430   6.252
 8490WAT     H125712   4.341   5.489   6.257
 8490WAT     H225713   4.230   5.407   6.344
 8491WAT      O25714   2.481   9.431   0.045
 8491WAT     H125715   2.442   9.511   0.091
 8491WAT     H225716   2.428   9.411  -0.038
 8492WAT      O25717   1.227   6.398   9.014
 8492WAT     H125718   1.148   6.427   8.960
 8492WAT     H225719   1.308   6.393   8.955
 8493WAT      O25720   3.645   3.388   3.269
 8493WAT     H125721   3.684   3.346   3.187
 8493WAT     H225722   3.546   3.370   3.272
 8494WAT      O25723   2.147   7.156   9.296
 8494WAT     H125724   2.134   7.190   9.203
 8494WAT     H225725   2.238   7.183   9.329
 8495WAT      O25726   6.444   5.385   1.904
 8495WAT     H125727   6.399   5.314   1.958
 8495WAT     H225728   6.479   5.345   1.819
 8496WAT      O25729   7.035   1.176   0.001
 8496WAT     H125730   7.120   1.124   0.005
 8496WAT     H225731   7.056   1.274  -0.004
 8497WAT      O25732   6.727   5.983   5.481
 8497WAT     H125733   6.752   5.887   5.468
 8497WAT     H225734   6.677   5.992   5.567
 8498WAT      O25735   3.407   3.981   2.399
 8498WAT     H125736   3.363   4.071   2.405
 8498WAT     H225737   3.337   3.910   2.405
 8499WAT      O25738   4.662   3.135   8.824
 8499WAT     H125739   4.697   3.194   8.751
 8499WAT     H225740   4.727   3.136   8.901
 8500WAT      O25741   8.930   2.148   4.105
 8500WAT     H125742   9.005   2.104   4.055
 8500WAT     H225743   8.943   2.247   4.102
 8501WAT      O25744   4.787   2.980   0.102
 8501WAT     H125745   4.815   3.072   0.130
 8501WAT     H225746   4.794   2.918   0.180
 8502WAT      O25747   6.138   4.598   4.968
 8502WAT     H125748   6.186   4.666   4.913
 8502WAT     H225749   6.094   4.642   5.046
 8503WAT      O25750   1.908   0.145   3.189
 8503WAT     H125751   1.951   0.228   3.224
 8503WAT     H225752   1.916   0.072   3.256
 8504WAT      O25753   1.130   5.031   2.180
 8504WAT     H125754   1.071   5.039   2.260
 8504WAT     H225755   1.221   5.066   2.202
 8505WAT      O25756   9.184   5.120   5.964
 8505WAT     H125757   9.164   5.167   5.878
 8505WAT     H225758   9.217   5.028   5.945
 8506WAT      O25759   5.265   8.100   3.720
 8506WAT     H125760   5.302   8.105   3.813
 8506WAT     H225761   5.226   8.010   3.704
 8507WAT      O25762   2.870   2.790   8.545
 8507WAT     H125763   2.867   2.771   8.643
 8507WAT     H225764   2.780   2.817   8.513
 8508WAT      O25765   1.309   3.491   5.633
 8508WAT     H125766   1.334   3.425   5.704
 8508WAT     H225767   1.391   3.539   5.601
 8509WAT      O25768   5.470   4.854   0.332
 8509WAT     H125769   5.525   4.820   0.255
 8509WAT     H225770   5.373   4.840   0.312
 8510WAT      O25771   5.350   6.206   0.137
 8510WAT     H125772   5.328   6.185   0.041
 8510WAT     H225773   5.442   6.172   0.157
 8511WAT      O25774   0.973   5.508   2.598
 8511WAT     H125775   0.874   5.502   2.584
 8511WAT     H225776   0.998   5.454   2.679
 8512WAT      O25777   6.312   9.328   4.842
 8512WAT     H125778   6.378   9.254   4.852
 8512WAT     H225779   6.224   9.299   4.879
 8513WAT      O25780   4.338   6.713   0.665
 8513WAT     H125781   4.296   6.622   0.655
 8513WAT     H225782   4.438   6.703   0.666
 8514WAT      O25783   1.919   8.267   7.441
 8514WAT     H125784   1.839   8.208   7.454
 8514WAT     H225785   1.952   8.299   7.530
 8515WAT      O25786   8.114   9.221   2.900
 8515WAT     H125787   8.155   9.312   2.895
 8515WAT     H225788   8.115   9.178   2.810
 8516WAT      O25789   2.624   5.711   3.100
 8516WAT     H125790   2.701   5.692   3.039
 8516WAT     H225791   2.651   5.781   3.167
 8517WAT      O25792   5.778   2.382   5.989
 8517WAT     H125793   5.745   2.394   5.895
 8517WAT     H225794   5.738   2.299   6.028
 8518WAT      O25795   5.850   7.468   1.527
 8518WAT     H125796   5.901   7.552   1.544
 8518WAT     H225797   5.754   7.489   1.514
 8519WAT      O25798   0.699   6.566   8.147
 8519WAT     H125799   0.773   6.632   8.155
 8519WAT     H225800   0.613   6.614   8.131
 8520WAT      O25801   3.723   4.837   8.035
 8520WAT     H125802   3.663   4.823   8.114
 8520WAT     H225803   3.774   4.922   8.047
 8521WAT      O25804   7.498   3.076   1.359
 8521WAT     H125805   7.422   3.035   1.308
 8521WAT     H225806   7.488   3.176   1.359
 8522WAT      O25807   2.550   5.255   1.283
 8522WAT     H125808   2.490   5.192   1.234
 8522WAT     H225809   2.607   5.304   1.217
 8523WAT      O25810   7.669   1.537   5.703
 8523WAT     H125811   7.667   1.613   5.768
 8523WAT     H225812   7.677   1.573   5.610
 8524WAT      O25813   6.527   8.925   4.211
 8524WAT     H125814   6.572   8.844   4.249
 8524WAT     H225815   6.578   9.007   4.236
 8525WAT      O25816   8.993   1.492   6.051
 8525WAT     H125817   8.927   1.520   5.982
 8525WAT     H225818   9.006   1.393   6.046
 8526WAT      O25819   2.010   5.920   1.847
 8526WAT     H125820   1.944   5.894   1.777
 8526WAT     H225821   2.050   6.009   1.823
 8527WAT      O25822   3.088   3.006   0.246
 8527WAT     H125823   3.105   2.937   0.176
 8527WAT     H225824   3.065   3.093   0.202
 8528WAT      O25825   5.037   8.076   9.318
 8528WAT     H125826   5.134   8.049   9.312
 8528WAT     H225827   5.021   8.122   9.405
 8529WAT      O25828   6.334   0.855   1.147
 8529WAT     H125829   6.378   0.769   1.175
 8529WAT     H225830   6.274   0.838   1.069
 8530WAT      O25831   3.791   1.947   1.120
 8530WAT     H125832   3.770   1.958   1.217
 8530WAT     H225833   3.824   1.854   1.103
 8531WAT      O25834   9.813   1.940   3.465
 8531WAT     H125835   9.818   1.916   3.562
 8531WAT     H225836   9.859   1.870   3.411
 8532WAT      O25837   2.847   5.228   9.120
 8532WAT     H125838   2.779   5.270   9.179
 8532WAT     H225839   2.853   5.130   9.139
 8533WAT      O25840   5.491   6.233   3.532
 8533WAT     H125841   5.585   6.203   3.516
 8533WAT     H225842   5.478   6.247   3.631
 8534WAT      O25843   0.804   9.706   5.462
 8534WAT     H125844   0.737   9.757   5.516
 8534WAT     H225845   0.877   9.767   5.433
 8535WAT      O25846   0.564   1.312   3.588
 8535WAT     H125847   0.578   1.337   3.684
 8535WAT     H225848   0.640   1.347   3.533
 8536WAT      O25849   5.433   2.960   0.397
 8536WAT     H125850   5.430   3.052   0.356
 8536WAT     H225851   5.526   2.924   0.391
 8537WAT      O25852   7.990   3.667   3.370
 8537WAT     H125853   8.055   3.623   3.431
 8537WAT     H225854   7.897   3.641   3.396
 8538WAT      O25855   5.343   5.617   7.643
 8538WAT     H125856   5.340   5.642   7.547
 8538WAT     H225857   5.430   5.646   7.683
 8539WAT      O25858   0.664   1.432   2.428
 8539WAT     H125859   0.672   1.369   2.351
 8539WAT     H225860   0.715   1.515   2.408
 8540WAT      O25861   6.862   0.299   1.655
 8540WAT     H125862   6.769   0.302   1.618
 8540WAT     H225863   6.900   0.392   1.656
 8541WAT      O25864   6.266   5.953   6.336
 8541WAT     H125865   6.219   6.019   6.276
 8541WAT     H225866   6.287   5.870   6.284
 8542WAT      O25867   2.819   3.118   7.484
 8542WAT     H125868   2.828   3.021   7.459
 8542WAT     H225869   2.834   3.129   7.582
 8543WAT      O25870   6.501   5.061   9.483
 8543WAT     H125871   6.537   4.995   9.549
 8543WAT     H225872   6.541   5.043   9.393
 8544WAT      O25873   0.636   6.991   7.471
 8544WAT     H125874   0.649   6.922   7.401
 8544WAT     H225875   0.538   7.007   7.485
 8545WAT      O25876   0.698   7.398   2.374
 8545WAT     H125877   0.691   7.492   2.340
 8545WAT     H225878   0.699   7.335   2.298
 8546WAT      O25879   5.803   0.093   5.948
 8546WAT     H125880   5.721   0.079   5.893
 8546WAT     H225881   5.795   0.179   5.999
 8547WAT      O25882   1.627   1.909   7.824
 8547WAT     H125883   1.641   1.966   7.744
 8547WAT     H225884   1.591   1.964   7.899
 8548WAT      O25885   4.573   2.958   7.449
 8548WAT     H125886   4.615   2.996   7.532
 8548WAT     H225887   4.630   2.981   7.370
 8549WAT      O25888   5.236   0.519   1.121
 8549WAT     H125889   5.161   0.571   1.164
 8549WAT     H225890   5.323   0.564   1.141
 8550WAT      O25891   3.129   1.175   3.621
 8550WAT     H125892   3.121   1.140   3.715
 8550WAT     H225893   3.220   1.155   3.586
 8551WAT      O25894   4.271   3.861   2.442
 8551WAT     H125895   4.225   3.948   2.426
 8551WAT     H225896   4.269   3.840   2.540
 8552WAT      O25897   5.115   9.784   9.205
 8552WAT     H125898   5.198   9.825   9.241
 8552WAT     H225899   5.073   9.725   9.275
 8553WAT      O25900   0.977   7.060   2.917
 8553WAT     H125901   0.940   7.011   2.996
 8553WAT     H225902   0.907   7.119   2.878
 8554WAT      O25903   7.569   5.424   5.976
 8554WAT     H125904   7.565   5.522   5.953
 8554WAT     H225905   7.494   5.402   6.038
 8555WAT      O25906   0.232   3.759   1.348
 8555WAT     H125907   0.200   3.820   1.275
 8555WAT     H225908   0.165   3.757   1.422
 8556WAT      O25909   5.999   9.599   6.525
 8556WAT     H125910   6.087   9.552   6.514
 8556WAT     H225911   6.006   9.667   6.598
 8557WAT      O25912   2.512   0.825   5.408
 8557WAT     H125913   2.595   0.786   5.448
 8557WAT     H225914   2.536   0.897   5.343
 8558WAT      O25915   8.951   6.519   8.132
 8558WAT     H125916   9.045   6.523   8.098
 8558WAT     H225917   8.890   6.561   8.065
 8559WAT      O25918   3.357   2.435   5.997
 8559WAT     H125919   3.408   2.351   5.979
 8559WAT     H225920   3.421   2.511   6.010
 8560WAT      O25921   8.707   3.898   5.826
 8560WAT     H125922   8.778   3.831   5.847
 8560WAT     H225923   8.702   3.911   5.727
 8561WAT      O25924   5.655   1.801   7.807
 8561WAT     H125925   5.752   1.821   7.820
 8561WAT     H225926   5.621   1.750   7.885
 8562WAT      O25927   2.911   2.703   4.958
 8562WAT     H125928   2.854   2.692   4.877
 8562WAT     H225929   2.869   2.768   5.021
 8563WAT      O25930   2.506   7.696   4.857
 8563WAT     H125931   2.417   7.652   4.866
 8563WAT     H225932   2.505   7.784   4.904
 8564WAT      O25933   3.544   0.069   2.213
 8564WAT     H125934   3.565   0.028   2.302
 8564WAT     H225935   3.445   0.072   2.201
 8565WAT      O25936   0.947   4.353   8.982
 8565WAT     H125937   0.893   4.277   8.946
 8565WAT     H225938   0.903   4.390   9.064
 8566WAT      O25939   2.232   5.779   8.329
 8566WAT     H125940   2.283   5.775   8.415
 8566WAT     H225941   2.297   5.777   8.252
 8567WAT      O25942   4.863   9.371   9.239
 8567WAT     H125943   4.942   9.342   9.293
 8567WAT     H225944   4.871   9.334   9.146
 8568WAT      O25945   8.830   1.045   1.545
 8568WAT     H125946   8.747   1.096   1.566
 8568WAT     H225947   8.816   0.991   1.462
 8569WAT      O25948   1.309   7.376   7.785
 8569WAT     H125949   1.275   7.288   7.752
 8569WAT     H225950   1.236   7.423   7.834
 8570WAT      O25951   5.355   2.943   1.418
 8570WAT     H125952   5.439   2.965   1.368
 8570WAT     H225953   5.373   2.868   1.482
 8571WAT      O25954   5.314   0.443   3.582
 8571WAT     H125955   5.240   0.429   3.517
 8571WAT     H225956   5.282   0.422   3.674
 8572WAT      O25957   5.278   5.769   7.383
 8572WAT     H125958   5.203   5.718   7.339
 8572WAT     H225959   5.240   5.846   7.434
 8573WAT      O25960   2.658   8.664   6.946
 8573WAT     H125961   2.733   8.681   6.882
 8573WAT     H225962   2.688   8.598   7.016
 8574WAT      O25963   3.570   4.358   7.939
 8574WAT     H125964   3.549   4.394   7.848
 8574WAT     H225965   3.620   4.427   7.992
 8575WAT      O25966   0.948   3.586   1.672
 8575WAT     H125967   1.047   3.596   1.679
 8575WAT     H225968   0.916   3.632   1.589
 8576WAT      O25969   6.726   7.198   8.156
 8576WAT     H125970   6.653   7.193   8.088
 8576WAT     H225971   6.757   7.105   8.178
 8577WAT      O25972   4.790   6.780   4.692
 8577WAT     H125973   4.791   6.681   4.700
 8577WAT     H225974   4.808   6.807   4.597
 8578WAT      O25975   1.951   5.646   6.627
 8578WAT     H125976   1.997   5.662   6.714
 8578WAT     H225977   1.859   5.612   6.644
 8579WAT      O25978   1.575   9.808   7.806
 8579WAT     H125979   1.646   9.844   7.867
 8579WAT     H225980   1.486   9.816   7.850
 8580WAT      O25981   9.369   5.396   0.142
 8580WAT     H125982   9.409   5.415   0.232
 8580WAT     H225983   9.422   5.442   0.071
 8581WAT      O25984   8.057   3.321   2.655
 8581WAT     H125985   8.057   3.233   2.702
 8581WAT     H225986   8.059   3.395   2.722
 8582WAT      O25987   7.435   0.646   0.626
 8582WAT     H125988   7.445   0.583   0.703
 8582WAT     H225989   7.354   0.620   0.573
 8583WAT      O25990   9.597   9.304   7.459
 8583WAT     H125991   9.634   9.258   7.379
 8583WAT     H225992   9.588   9.239   7.534
 8584WAT      O25993   1.519   0.325   6.208
 8584WAT     H125994   1.481   0.418   6.198
 8584WAT     H225995   1.592   0.312   6.141
 8585WAT      O25996   9.269   9.218   9.424
 8585WAT     H125997   9.274   9.311   9.461
 8585WAT     H225998   9.307   9.217   9.331
 8586WAT      O25999   2.326   1.187   3.085
 8586WAT     H126000   2.228   1.175   3.074
 8586WAT     H226001   2.345   1.222   3.176
 8587WAT      O26002   4.691   3.406   1.010
 8587WAT     H126003   4.692   3.505   1.025
 8587WAT     H226004   4.779   3.377   0.973
 8588WAT      O26005   3.415   8.036   9.433
 8588WAT     H126006   3.429   8.082   9.345
 8588WAT     H226007   3.333   8.072   9.476
 8589WAT      O26008   3.656   8.782   2.007
 8589WAT     H126009   3.623   8.790   2.101
 8589WAT     H226010   3.579   8.761   1.947
 8590WAT      O26011   1.520   1.945   8.444
 8590WAT     H126012   1.465   1.952   8.527
 8590WAT     H226013   1.617   1.933   8.469
 8591WAT      O26014   6.171   5.784   6.948
 8591WAT     H126015   6.263   5.775   6.911
 8591WAT     H226016   6.153   5.709   7.011
 8592WAT      O26017   8.250   5.973   7.108
 8592WAT     H126018   8.176   6.003   7.169
 8592WAT     H226019   8.231   5.880   7.076
 8593WAT      O26020   0.213   6.610   1.658
 8593WAT     H126021   0.264   6.593   1.574
 8593WAT     H226022   0.247   6.693   1.702
 8594WAT      O26023   6.391   7.437   9.003
 8594WAT     H126024   6.476   7.426   9.055
 8594WAT     H226025   6.313   7.417   9.062
 8595WAT      O26026   7.332   2.140   4.265
 8595WAT     H126027   7.389   2.101   4.193
 8595WAT     H226028   7.376   2.221   4.303
 8596WAT      O26029   6.264   5.056   0.662
 8596WAT     H126030   6.362   5.070   0.670
 8596WAT     H226031   6.243   5.021   0.570
 8597WAT      O26032   0.565   8.269   7.103
 8597WAT     H126033   0.659   8.251   7.134
 8597WAT     H226034   0.522   8.335   7.165
 8598WAT      O26035   6.274   6.096   7.789
 8598WAT     H126036   6.360   6.146   7.792
 8598WAT     H226037   6.286   6.006   7.830
 8599WAT      O26038   8.663   5.043   7.678
 8599WAT     H126039   8.687   5.139   7.665
 8599WAT     H226040   8.745   4.990   7.697
 8600WAT      O26041   9.779   2.344   1.278
 8600WAT     H126042   9.838   2.274   1.238
 8600WAT     H226043   9.803   2.357   1.374
 8601WAT      O26044   3.473   2.991   2.988
 8601WAT     H126045   3.567   3.008   2.960
 8601WAT     H226046   3.413   2.990   2.908
 8602WAT      O26047   9.002   2.408   4.033
 8602WAT     H126048   9.039   2.487   4.082
 8602WAT     H226049   9.076   2.364   3.981
 8603WAT      O26050   8.685   0.150   9.133
 8603WAT     H126051   8.738   0.192   9.206
 8603WAT     H226052   8.743   0.088   9.080
 8604WAT      O26053   6.874   1.810   1.491
 8604WAT     H126054   6.940   1.735   1.486
 8604WAT     H226055   6.781   1.774   1.494
 8605WAT      O26056   5.564   5.118   1.376
 8605WAT     H126057   5.574   5.021   1.354
 8605WAT     H226058   5.505   5.162   1.309
 8606WAT      O26059   6.464   3.546   9.221
 8606WAT     H126060   6.476   3.645   9.218
 8606WAT     H226061   6.552   3.502   9.236
 8607WAT      O26062   4.825   9.738   9.756
 8607WAT     H126063   4.759   9.664   9.741
 8607WAT     H226064   4.779   9.826   9.748
 8608WAT      O26065   1.090   4.499   3.163
 8608WAT     H126066   1.018   4.566   3.147
 8608WAT     H226067   1.084   4.425   3.096
 8609WAT      O26068   9.474   6.748   7.483
 8609WAT     H126069   9.476   6.674   7.416
 8609WAT     H226070   9.383   6.755   7.523
 8610WAT      O26071   1.099   1.794   9.421
 8610WAT     H126072   1.105   1.755   9.329
 8610WAT     H226073   1.191   1.811   9.456
 8611WAT      O26074   8.704   2.779   1.869
 8611WAT     H126075   8.721   2.794   1.966
 8611WAT     H226076   8.614   2.817   1.845
 8612WAT      O26077   4.670   0.431   3.478
 8612WAT     H126078   4.752   0.451   3.532
 8612WAT     H226079   4.614   0.363   3.525
 8613WAT      O26080   2.348   5.285   6.947
 8613WAT     H126081   2.318   5.316   6.857
 8613WAT     H226082   2.441   5.249   6.941
 8614WAT      O26083   5.846   3.781   7.546
 8614WAT     H126084   5.937   3.765   7.508
 8614WAT     H226085   5.779   3.784   7.471
 8615WAT      O26086   4.781   0.721   1.711
 8615WAT     H126087   4.726   0.769   1.642
 8615WAT     H226088   4.726   0.650   1.754
 8616WAT      O26089   4.863   1.191   5.779
 8616WAT     H126090   4.829   1.282   5.804
 8616WAT     H226091   4.798   1.147   5.717
 8617WAT      O26092   1.235   8.466   1.895
 8617WAT     H126093   1.334   8.479   1.892
 8617WAT     H226094   1.191   8.535   1.838
 8618WAT      O26095   2.978   5.694   6.436
 8618WAT     H126096   3.076   5.686   6.452
 8618WAT     H226097   2.962   5.725   6.342
 8619WAT      O26098   8.554   8.990   1.343
 8619WAT     H126099   8.633   8.929   1.337
 8619WAT     H226100   8.485   8.962   1.276
 8620WAT      O26101   7.717   4.820   3.993
 8620WAT     H126102   7.774   4.819   3.911
 8620WAT     H226103   7.689   4.726   4.015
 8621WAT      O26104   8.620   1.644   9.108
 8621WAT     H126105   8.597   1.567   9.048
 8621WAT     H226106   8.607   1.617   9.204
 8622WAT      O26107   6.222   7.855   8.140
 8622WAT     H126108   6.249   7.783   8.075
 8622WAT     H226109   6.124   7.872   8.132
 8623WAT      O26110   7.297   1.212   8.439
 8623WAT     H126111   7.333   1.222   8.346
 8623WAT     H226112   7.203   1.246   8.442
 8624WAT      O26113   6.438   7.745   6.653
 8624WAT     H126114   6.385   7.759   6.569
 8624WAT     H226115   6.475   7.832   6.684
 8625WAT      O26116   4.013   1.743   5.344
 8625WAT     H126117   4.107   1.772   5.328
 8625WAT     H226118   3.974   1.709   5.258
 8626WAT      O26119   0.231   3.778   3.348
 8626WAT     H126120   0.248   3.688   3.389
 8626WAT     H226121   0.184   3.766   3.260
 8627WAT      O26122   0.677   8.294   5.044
 8627WAT     H126123   0.577   8.294   5.043
 8627WAT     H226124   0.709   8.233   5.116
 8628WAT      O26125   4.471   2.477   9.085
 8628WAT     H126126   4.509   2.568   9.070
 8628WAT     H226127   4.398   2.482   9.154
 8629WAT      O26128   3.493   2.771   1.700
 8629WAT     H126129   3.412   2.789   1.643
 8629WAT     H226130   3.573   2.761   1.641
 8630WAT      O26131   5.317   4.217   2.538
 8630WAT     H126132   5.375   4.297   2.527
 8630WAT     H226133   5.288   4.209   2.633
 8631WAT      O26134   1.076   9.042   8.257
 8631WAT     H126135   1.171   9.018   8.278
 8631WAT     H226136   1.074   9.127   8.205
 8632WAT      O26137   8.231   3.779   6.019
 8632WAT     H126138   8.165   3.845   6.055
 8632WAT     H226139   8.307   3.828   5.976
 8633WAT      O26140   7.030   8.985   4.372
 8633WAT     H126141   7.108   8.979   4.310
 8633WAT     H226142   7.038   8.915   4.443
 8634WAT      O26143   8.184   3.145   0.372
 8634WAT     H126144   8.166   3.051   0.400
 8634WAT     H226145   8.102   3.182   0.328
 8635WAT      O26146   5.273   2.523   0.851
 8635WAT     H126147   5.220   2.438   0.853
 8635WAT     H226148   5.357   2.511   0.904
 8636WAT      O26149   0.860   8.450   3.396
 8636WAT     H126150   0.793   8.417   3.462
 8636WAT     H226151   0.891   8.374   3.340
 8637WAT      O26152   8.425   5.213   7.089
 8637WAT     H126153   8.412   5.150   7.166
 8637WAT     H226154   8.508   5.187   7.040
 8638WAT      O26155   9.267   1.494   5.753
 8638WAT     H126156   9.324   1.418   5.784
 8638WAT     H226157   9.320   1.578   5.751
 8639WAT      O26158   4.481   2.084   4.220
 8639WAT     H126159   4.571   2.053   4.250
 8639WAT     H226160   4.486   2.180   4.193
 8640WAT      O26161   9.202   7.975   2.085
 8640WAT     H126162   9.150   7.926   2.155
 8640WAT     H226163   9.296   7.987   2.117
 8641WAT      O26164   6.425   4.735   5.138
 8641WAT     H126165   6.453   4.804   5.204
 8641WAT     H226166   6.377   4.661   5.186
 8642WAT      O26167   5.601   5.860   6.947
 8642WAT     H126168   5.506   5.892   6.953
 8642WAT     H226169   5.616   5.819   6.857
 8643WAT      O26170   5.730   2.645   6.352
 8643WAT     H126171   5.820   2.607   6.327
 8643WAT     H226172   5.743   2.720   6.416
 8644WAT      O26173   4.372   5.967   7.041
 8644WAT     H126174   4.443   5.929   7.100
 8644WAT     H226175   4.357   5.905   6.963
 8645WAT      O26176   7.820   9.067   5.778
 8645WAT     H126177   7.760   9.010   5.723
 8645WAT     H226178   7.915   9.055   5.747
 8646WAT      O26179   6.797   2.478   5.457
 8646WAT     H126180   6.743   2.520   5.530
 8646WAT     H226181   6.753   2.494   5.369
 8647WAT      O26182   0.727   0.479   3.284
 8647WAT     H126183   0.767   0.409   3.343
 8647WAT     H226184   0.800   0.529   3.238
 8648WAT      O26185   0.980   2.626   4.110
 8648WAT     H126186   0.891   2.585   4.130
 8648WAT     H226187   1.027   2.647   4.195
 8649WAT      O26188   5.183   4.535   2.336
 8649WAT     H126189   5.200   4.494   2.246
 8649WAT     H226190   5.268   4.572   2.372
 8650WAT      O26191   5.630   0.190   4.688
 8650WAT     H126192   5.596   0.096   4.683
 8650WAT     H226193   5.554   0.253   4.679
 8651WAT      O26194   7.970   2.138   7.483
 8651WAT     H126195   7.974   2.150   7.582
 8651WAT     H226196   7.877   2.112   7.455
 8652WAT      O26197   3.427   5.830   4.844
 8652WAT     H126198   3.377   5.911   4.875
 8652WAT     H226199   3.373   5.780   4.777
 8653WAT      O26200   8.355   6.693   2.471
 8653WAT     H126201   8.453   6.675   2.462
 8653WAT     H226202   8.342   6.775   2.526
 8654WAT      O26203   8.088   3.552   1.727
 8654WAT     H126204   8.128   3.465   1.698
 8654WAT     H226205   8.054   3.602   1.647
 8655WAT      O26206   1.480   0.869   8.820
 8655WAT     H126207   1.546   0.834   8.887
 8655WAT     H226208   1.502   0.963   8.797
 8656WAT      O26209   2.041   1.917   6.077
 8656WAT     H126210   1.983   1.992   6.109
 8656WAT     H226211   2.137   1.940   6.092
 8657WAT      O26212   4.167   3.694   6.629
 8657WAT     H126213   4.142   3.679   6.725
 8657WAT     H226214   4.244   3.757   6.625
 8658WAT      O26215   3.803   5.861   6.164
 8658WAT     H126216   3.859   5.922   6.109
 8658WAT     H226217   3.750   5.801   6.104
 8659WAT      O26218   0.174   5.874   0.017
 8659WAT     H126219   0.088   5.911  -0.018
 8659WAT     H226220   0.181   5.891   0.115
 8660WAT      O26221   9.632   3.004   9.668
 8660WAT     H126222   9.595   2.913   9.682
 8660WAT     H226223   9.563   3.064   9.629
 8661WAT      O26224   0.381   6.971   4.071
 8661WAT     H126225   0.300   7.030   4.075
 8661WAT     H226226   0.386   6.928   3.981
 8662WAT      O26227   6.654   6.892   5.727
 8662WAT     H126228   6.616   6.982   5.747
 8662WAT     H226229   6.742   6.882   5.773
 8663WAT      O26230   8.923   7.610   8.752
 8663WAT     H126231   8.955   7.531   8.701
 8663WAT     H226232   8.946   7.694   8.702
 8664WAT      O26233   8.108   2.568   7.106
 8664WAT     H126234   8.057   2.566   7.020
 8664WAT     H226235   8.151   2.657   7.117
 8665WAT      O26236   9.831   9.564   5.181
 8665WAT     H126237   9.810   9.662   5.179
 8665WAT     H226238   9.759   9.517   5.232
 8666WAT      O26239   9.768   6.983   1.125
 8666WAT     H126240   9.836   6.931   1.176
 8666WAT     H226241   9.714   6.922   1.067
 8667WAT      O26242   7.435   5.114   0.172
 8667WAT     H126243   7.500   5.054   0.124
 8667WAT     H226244   7.411   5.191   0.113
 8668WAT      O26245   5.006   4.226   3.817
 8668WAT     H126246   5.071   4.283   3.868
 8668WAT     H226247   4.913   4.245   3.848
 8669WAT      O26248   2.549   4.319   6.031
 8669WAT     H126249   2.489   4.330   5.951
 8669WAT     H226250   2.541   4.400   6.090
 8670WAT      O26251   5.086   5.241   7.211
 8670WAT     H126252   5.117   5.312   7.148
 8670WAT     H226253   5.162   5.181   7.235
 8671WAT      O26254   1.977   1.430   6.083
 8671WAT     H126255   1.894   1.376   6.096
 8671WAT     H226256   1.960   1.502   6.016
 8672WAT      O26257   3.438   8.065   1.134
 8672WAT     H126258   3.525   8.027   1.102
 8672WAT     H226259   3.427   8.158   1.097
 8673WAT      O26260   0.511   6.569   4.815
 8673WAT     H126261   0.451   6.641   4.781
 8673WAT     H226262   0.459   6.505   4.872
 8674WAT      O26263   3.981   7.599   4.428
 8674WAT     H126264   4.051   7.648   4.375
 8674WAT     H226265   3.935   7.663   4.489
 8675WAT      O26266   4.926   1.232   9.720
 8675WAT     H126267   4.942   1.294   9.644
 8675WAT     H226268   4.830   1.204   9.720
 8676WAT      O26269   6.252   5.525   9.229
 8676WAT     H126270   6.250   5.425   9.239
 8676WAT     H226271   6.215   5.549   9.139
 8677WAT      O26272   3.263   1.445   7.900
 8677WAT     H126273   3.274   1.419   7.805
 8677WAT     H226274   3.174   1.490   7.913
 8678WAT      O26275   2.009   0.571   1.233
 8678WAT     H126276   2.108   0.573   1.247
 8678WAT     H226277   1.970   0.660   1.258
 8679WAT      O26278   7.182   0.223   4.150
 8679WAT     H126279   7.269   0.187   4.117
 8679WAT     H226280   7.190   0.249   4.246
 8680WAT      O26281   5.193   0.606   0.635
 8680WAT     H126282   5.195   0.610   0.535
 8680WAT     H226283   5.102   0.627   0.668
 8681WAT      O26284   7.014   8.067   6.713
 8681WAT     H126285   6.947   8.016   6.767
 8681WAT     H226286   7.106   8.029   6.729
 8682WAT      O26287   9.811   5.087   2.670
 8682WAT     H126288   9.833   5.152   2.598
 8682WAT     H226289   9.713   5.089   2.688
 8683WAT      O26290   7.728   6.978   8.512
 8683WAT     H126291   7.748   6.894   8.462
 8683WAT     H226292   7.630   6.998   8.507
 8684WAT      O26293   5.830   2.576   4.436
 8684WAT     H126294   5.829   2.540   4.342
 8684WAT     H226295   5.739   2.611   4.459
 8685WAT      O26296   6.642   2.481   7.115
 8685WAT     H126297   6.740   2.478   7.136
 8685WAT     H226298   6.628   2.523   7.026
 8686WAT      O26299   7.219   1.683   2.157
 8686WAT     H126300   7.199   1.591   2.124
 8686WAT     H226301   7.316   1.703   2.145
 8687WAT      O26302   4.862   5.704   1.072
 8687WAT     H126303   4.925   5.766   1.118
 8687WAT     H226304   4.894   5.686   0.979
 8688WAT      O26305   1.471   7.682   3.498
 8688WAT     H126306   1.537   7.609   3.487
 8688WAT     H226307   1.487   7.730   3.584
 8689WAT      O26308   5.765   0.698   5.626
 8689WAT     H126309   5.793   0.750   5.707
 8689WAT     H226310   5.734   0.762   5.555
 8690WAT      O26311   6.021   1.022   2.131
 8690WAT     H126312   6.018   1.077   2.047
 8690WAT     H226313   5.964   0.941   2.120
 8691WAT      O26314   8.871   7.752   8.079
 8691WAT     H126315   8.845   7.808   8.000
 8691WAT     H226316   8.908   7.665   8.047
 8692WAT      O26317   5.182   9.775   4.099
 8692WAT     H126318   5.182   9.822   4.011
 8692WAT     H226319   5.103   9.806   4.153
 8693WAT      O26320   2.417   5.513   8.852
 8693WAT     H126321   2.487   5.562   8.801
 8693WAT     H226322   2.338   5.496   8.793
 8694WAT      O26323   5.775   7.591   5.658
 8694WAT     H126324   5.856   7.534   5.666
 8694WAT     H226325   5.794   7.681   5.697
 8695WAT      O26326   7.808   1.252   4.164
 8695WAT     H126327   7.877   1.309   4.209
 8695WAT     H226328   7.833   1.241   4.068
 8696WAT      O26329   4.464   0.059   1.896
 8696WAT     H126330   4.512  -0.028   1.908
 8696WAT     H226331   4.494   0.124   1.966
 8697WAT      O26332   7.381   7.541   9.285
 8697WAT     H126333   7.365   7.469   9.353
 8697WAT     H226334   7.478   7.565   9.284
 8698WAT      O26335   0.051   0.111   1.489
 8698WAT     H126336  -0.024   0.111   1.555
 8698WAT     H226337   0.120   0.179   1.515
 8699WAT      O26338   3.158   8.119   9.511
 8699WAT     H126339   3.181   8.204   9.465
 8699WAT     H226340   3.087   8.071   9.458
 8700WAT      O26341   8.449   4.992   1.941
 8700WAT     H126342   8.507   5.050   1.884
 8700WAT     H226343   8.418   5.043   2.021
 8701WAT      O26344   0.551   3.488   1.428
 8701WAT     H126345   0.593   3.555   1.489
 8701WAT     H226346   0.614   3.467   1.354
 8702WAT      O26347   8.382   1.259   0.307
 8702WAT     H126348   8.342   1.176   0.348
 8702WAT     H226349   8.481   1.250   0.304
 8703WAT      O26350   8.494   6.949   9.479
 8703WAT     H126351   8.572   7.007   9.503
 8703WAT     H226352   8.495   6.867   9.536
 8704WAT      O26353   5.523   5.432   6.066
 8704WAT     H126354   5.467   5.354   6.036
 8704WAT     H226355   5.492   5.461   6.157
 8705WAT      O26356   1.646   3.147   5.575
 8705WAT     H126357   1.680   3.076   5.635
 8705WAT     H226358   1.711   3.223   5.572
 8706WAT      O26359   6.267   0.832   2.560
 8706WAT     H126360   6.346   0.891   2.577
 8706WAT     H226361   6.210   0.829   2.642
 8707WAT      O26362   7.375   8.614   0.136
 8707WAT     H126363   7.468   8.647   0.151
 8707WAT     H226364   7.312   8.660   0.198
 8708WAT      O26365   4.258   1.877   5.530
 8708WAT     H126366   4.317   1.942   5.483
 8708WAT     H226367   4.237   1.912   5.622
 8709WAT      O26368   9.879   2.134   0.721
 8709WAT     H126369   9.977   2.114   0.717
 8709WAT     H226370   9.866   2.230   0.747
 8710WAT      O26371   7.771   0.849   8.148
 8710WAT     H126372   7.846   0.896   8.194
 8710WAT     H226373   7.715   0.916   8.100
 8711WAT      O26374   0.318   4.308   0.198
 8711WAT     H126375   0.287   4.403   0.209
 8711WAT     H226376   0.368   4.280   0.279
 8712WAT      O26377   4.549   6.754   4.338
 8712WAT     H126378   4.549   6.736   4.240
 8712WAT     H226379   4.479   6.697   4.382
 8713WAT      O26380   3.845   1.997   0.846
 8713WAT     H126381   3.830   1.999   0.945
 8713WAT     H226382   3.757   1.996   0.799
 8714WAT      O26383   3.664   2.208   6.245
 8714WAT     H126384   3.724   2.154   6.304
 8714WAT     H226385   3.684   2.187   6.149
 8715WAT      O26386   5.129   8.276   2.174
 8715WAT     H126387   5.178   8.204   2.223
 8715WAT     H226388   5.079   8.236   2.098
 8716WAT      O26389   3.336   3.182   1.962
 8716WAT     H126390   3.295   3.117   2.026
 8716WAT     H226391   3.389   3.133   1.893
 8717WAT      O26392   1.826   8.496   9.219
 8717WAT     H126393   1.917   8.455   9.217
 8717WAT     H226394   1.831   8.590   9.184
 8718WAT      O26395   2.635   8.345   6.291
 8718WAT     H126396   2.716   8.396   6.262
 8718WAT     H226397   2.583   8.316   6.211
 8719WAT      O26398   5.388   2.719   6.247
 8719WAT     H126399   5.449   2.670   6.184
 8719WAT     H226400   5.340   2.653   6.305
 8720WAT      O26401   6.379   2.096   0.919
 8720WAT     H126402   6.430   2.174   0.955
 8720WAT     H226403   6.437   2.015   0.920
 8721WAT      O26404   7.857   9.454   0.711
 8721WAT     H126405   7.838   9.551   0.698
 8721WAT     H226406   7.937   9.443   0.769
 8722WAT      O26407   9.503   9.441   4.825
 8722WAT     H126408   9.453   9.527   4.818
 8722WAT     H226409   9.499   9.392   4.738
 8723WAT      O26410   8.817   8.143   4.478
 8723WAT     H126411   8.781   8.212   4.415
 8723WAT     H226412   8.855   8.188   4.559
 8724WAT      O26413   7.887   0.062   7.318
 8724WAT     H126414   7.960   0.116   7.360
 8724WAT     H226415   7.900   0.060   7.219
 8725WAT      O26416   1.051   3.324   9.018
 8725WAT     H126417   1.039   3.386   9.096
 8725WAT     H226418   0.984   3.346   8.947
 8726WAT      O26419   9.307   9.239   3.629
 8726WAT     H126420   9.267   9.330   3.634
 8726WAT     H226421   9.406   9.246   3.615
 8727WAT      O26422   7.117   8.570   0.882
 8727WAT     H126423   7.163   8.658   0.882
 8727WAT     H226424   7.080   8.552   0.790
 8728WAT      O26425   9.379   1.276   5.408
 8728WAT     H126426   9.344   1.328   5.330
 8728WAT     H226427   9.435   1.335   5.466
 8729WAT      O26428   9.149   0.238   8.130
 8729WAT     H126429   9.110   0.149   8.153
 8729WAT     H226430   9.086   0.287   8.070
 8730WAT      O26431   0.898   3.162   2.289
 8730WAT     H126432   0.873   3.180   2.193
 8730WAT     H226433   0.988   3.202   2.307
 8731WAT      O26434   3.165   8.024   2.506
 8731WAT     H126435   3.093   7.986   2.564
 8731WAT     H226436   3.254   7.993   2.539
 8732WAT      O26437   8.309   1.951   2.171
 8732WAT     H126438   8.255   1.925   2.251
 8732WAT     H226439   8.275   2.037   2.134
 8733WAT      O26440   2.194   9.497   0.450
 8733WAT     H126441   2.218   9.591   0.475
 8733WAT     H226442   2.272   9.452   0.406
 8734WAT      O26443   7.192   2.382   4.095
 8734WAT     H126444   7.237   2.300   4.060
 8734WAT     H226445   7.221   2.461   4.041
 8735WAT      O26446   2.721   1.280   1.759
 8735WAT     H126447   2.792   1.210   1.758
 8735WAT     H226448   2.665   1.273   1.677
 8736WAT      O26449   1.360   7.699   2.774
 8736WAT     H126450   1.293   7.762   2.814
 8736WAT     H226451   1.318   7.651   2.697
 8737WAT      O26452   8.520   9.116   2.367
 8737WAT     H126453   8.511   9.183   2.441
 8737WAT     H226454   8.593   9.052   2.389
 8738WAT      O26455   2.804   7.298   5.937
 8738WAT     H126456   2.832   7.229   5.869
 8738WAT     H226457   2.734   7.357   5.897
 8739WAT      O26458   6.580   6.801   2.020
 8739WAT     H126459   6.626   6.834   1.938
 8739WAT     H226460   6.492   6.761   1.995
 8740WAT      O26461   1.048   0.354   4.519
 8740WAT     H126462   1.038   0.267   4.470
 8740WAT     H226463   1.095   0.420   4.461
 8741WAT      O26464   5.600   4.591   6.633
 8741WAT     H126465   5.587   4.630   6.724
 8741WAT     H226466   5.516   4.549   6.602
 8742WAT      O26467   0.240   7.614   7.298
 8742WAT     H126468   0.284   7.620   7.388
 8742WAT     H226469   0.148   7.652   7.304
 8743WAT      O26470   3.290   0.755   1.710
 8743WAT     H126471   3.343   0.771   1.627
 8743WAT     H226472   3.344   0.778   1.790
 8744WAT      O26473   7.849   7.365   7.108
 8744WAT     H126474   7.754   7.396   7.111
 8744WAT     H226475   7.874   7.345   7.014
 8745WAT      O26476   5.868   7.317   9.570
 8745WAT     H126477   5.891   7.385   9.640
 8745WAT     H226478   5.774   7.332   9.539
 8746WAT      O26479   7.677   3.330   7.378
 8746WAT     H126480   7.704   3.385   7.458
 8746WAT     H226481   7.634   3.389   7.310
 8747WAT      O26482   8.157   4.583   2.564
 8747WAT     H126483   8.086   4.633   2.615
 8747WAT     H226484   8.126   4.568   2.470
 8748WAT      O26485   4.602   1.802   0.326
 8748WAT     H126486   4.639   1.809   0.233
 8748WAT     H226487   4.642   1.874   0.383
 8749WAT      O26488   8.049   8.140   7.547
 8749WAT     H126489   7.975   8.096   7.496
 8749WAT     H226490   8.088   8.215   7.493
 8750WAT      O26491   2.605   2.638   6.360
 8750WAT     H126492   2.613   2.721   6.305
 8750WAT     H226493   2.603   2.662   6.457
 8751WAT      O26494   0.237   9.143   4.092
 8751WAT     H126495   0.164   9.135   4.024
 8751WAT     H226496   0.221   9.225   4.148
 8752WAT      O26497   8.063   2.017   7.881
 8752WAT     H126498   8.002   2.089   7.849
 8752WAT     H226499   8.147   2.017   7.827
 8753WAT      O26500   6.148   2.693   3.908
 8753WAT     H126501   6.179   2.612   3.958
 8753WAT     H226502   6.222   2.760   3.906
 8754WAT      O26503   4.728   6.218   1.489
 8754WAT     H126504   4.688   6.156   1.556
 8754WAT     H226505   4.662   6.239   1.418
 8755WAT      O26506   8.069   7.215   1.641
 8755WAT     H126507   8.039   7.228   1.735
 8755WAT     H226508   8.048   7.296   1.587
 8756WAT      O26509   1.874   9.108   4.791
 8756WAT     H126510   1.783   9.150   4.787
 8756WAT     H226511   1.905   9.106   4.886
 8757WAT      O26512   6.828   9.023   3.594
 8757WAT     H126513   6.744   9.047   3.643
 8757WAT     H226514   6.907   9.036   3.654
 8758WAT      O26515   1.483   3.276   0.465
 8758WAT     H126516   1.528   3.352   0.512
 8758WAT     H226517   1.495   3.285   0.366
 8759WAT      O26518   1.669   5.267   7.459
 8759WAT     H126519   1.724   5.324   7.398
 8759WAT     H226520   1.709   5.270   7.551
 8760WAT      O26521   3.339   6.552   3.013
 8760WAT     H126522   3.266   6.537   3.079
 8760WAT     H226523   3.347   6.650   2.995
 8761WAT      O26524   4.576   0.189   3.125
 8761WAT     H126525   4.528   0.146   3.201
 8761WAT     H226526   4.599   0.284   3.149
 8762WAT      O26527   2.034   3.562   6.754
 8762WAT     H126528   2.009   3.504   6.677
 8762WAT     H226529   2.115   3.616   6.730
 8763WAT      O26530   2.642   4.200   6.642
 8763WAT     H126531   2.620   4.184   6.739
 8763WAT     H226532   2.580   4.145   6.585
 8764WAT      O26533   3.704   6.884   4.231
 8764WAT     H126534   3.790   6.844   4.198
 8764WAT     H226535   3.675   6.839   4.315
 8765WAT      O26536   9.746   6.796   3.185
 8765WAT     H126537   9.665   6.739   3.201
 8765WAT     H226538   9.757   6.812   3.087
 8766WAT      O26539   2.223   1.764   9.241
 8766WAT     H126540   2.256   1.853   9.210
 8766WAT     H226541   2.204   1.768   9.339
 8767WAT      O26542   0.180   7.357   4.740
 8767WAT     H126543   0.178   7.276   4.681
 8767WAT     H226544   0.155   7.330   4.833
 8768WAT      O26545   0.652   8.435   1.653
 8768WAT     H126546   0.593   8.415   1.732
 8768WAT     H226547   0.701   8.352   1.626
 8769WAT      O26548   9.770   2.947   0.226
 8769WAT     H126549   9.850   3.006   0.235
 8769WAT     H226550   9.711   2.957   0.306
 8770WAT      O26551   0.277   1.219   2.474
 8770WAT     H126552   0.336   1.188   2.549
 8770WAT     H226553   0.227   1.142   2.435
 8771WAT      O26554   0.192   1.128   1.016
 8771WAT     H126555   0.231   1.066   0.949
 8771WAT     H226556   0.250   1.131   1.097
 8772WAT      O26557   7.166   0.104   3.399
 8772WAT     H126558   7.082   0.089   3.347
 8772WAT     H226559   7.218   0.178   3.356
 8773WAT      O26560   9.164   7.432   2.282
 8773WAT     H126561   9.095   7.427   2.354
 8773WAT     H226562   9.127   7.481   2.203
 8774WAT      O26563   5.954   6.062   1.558
 8774WAT     H126564   6.004   6.082   1.474
 8774WAT     H226565   6.006   6.096   1.637
 8775WAT      O26566   6.277   5.947   8.474
 8775WAT     H126567   6.217   5.905   8.541
 8775WAT     H226568   6.353   5.993   8.521
 8776WAT      O26569   4.026   0.089   6.779
 8776WAT     H126570   4.052   0.001   6.741
 8776WAT     H226571   4.059   0.163   6.721
 8777WAT      O26572   1.807   3.708   9.149
 8777WAT     H126573   1.854   3.697   9.062
 8777WAT     H226574   1.825   3.800   9.185
 8778WAT      O26575   5.075   3.356   7.763
 8778WAT     H126576   5.132   3.389   7.839
 8778WAT     H226577   5.116   3.384   7.676
 8779WAT      O26578   1.511   0.500   5.812
 8779WAT     H126579   1.435   0.470   5.870
 8779WAT     H226580   1.577   0.426   5.803
 8780WAT      O26581   5.359   2.015   0.556
 8780WAT     H126582   5.360   2.110   0.585
 8780WAT     H226583   5.347   2.010   0.457
 8781WAT      O26584   1.051   1.328   1.253
 8781WAT     H126585   1.023   1.270   1.330
 8781WAT     H226586   1.144   1.362   1.269
 8782WAT      O26587   5.144   8.727   5.719
 8782WAT     H126588   5.218   8.695   5.660
 8782WAT     H226589   5.084   8.650   5.741
 8783WAT      O26590   9.400   0.138   4.481
 8783WAT     H126591   9.481   0.165   4.534
 8783WAT     H226592   9.419   0.149   4.384
 8784WAT      O26593   6.781   5.689   1.792
 8784WAT     H126594   6.866   5.662   1.839
 8784WAT     H226595   6.802   5.719   1.699
 8785WAT      O26596   0.621   6.083   2.344
 8785WAT     H126597   0.713   6.121   2.349
 8785WAT     H226598   0.557   6.154   2.312
 8786WAT      O26599   2.262   9.096   3.890
 8786WAT     H126600   2.203   9.015   3.889
 8786WAT     H226601   2.205   9.178   3.899
 8787WAT      O26602   9.386   1.852   7.898
 8787WAT     H126603   9.401   1.753   7.908
 8787WAT     H226604   9.340   1.870   7.811
 8788WAT      O26605   7.607   7.535   5.257
 8788WAT     H126606   7.653   7.557   5.171
 8788WAT     H226607   7.624   7.607   5.324
 8789WAT      O26608   0.705   5.493   2.932
 8789WAT     H126609   0.617   5.521   2.971
 8789WAT     H226610   0.706   5.514   2.834
 8790WAT      O26611   2.289   9.721   0.894
 8790WAT     H126612   2.228   9.670   0.955
 8790WAT     H226613   2.346   9.656   0.842
 8791WAT      O26614   5.803   9.565   9.340
 8791WAT     H126615   5.840   9.568   9.247
 8791WAT     H226616   5.826   9.478   9.383
 8792WAT      O26617   2.245   0.457   1.485
 8792WAT     H126618   2.269   0.490   1.393
 8792WAT     H226619   2.297   0.374   1.505
 8793WAT      O26620   0.100   6.188   9.610
 8793WAT     H126621   0.118   6.101   9.564
 8793WAT     H226622   0.154   6.193   9.694
 8794WAT      O26623   2.029   7.489   9.887
 8794WAT     H126624   2.044   7.588   9.885
 8794WAT     H226625   2.032   7.454   9.793
 8795WAT      O26626   4.743   0.670   3.325
 8795WAT     H126627   4.700   0.755   3.355
 8795WAT     H226628   4.722   0.596   3.389
 8796WAT      O26629   2.592   8.368   0.551
 8796WAT     H126630   2.605   8.275   0.585
 8796WAT     H226631   2.670   8.395   0.495
 8797WAT      O26632   8.511   9.080   3.110
 8797WAT     H126633   8.599   9.032   3.103
 8797WAT     H226634   8.470   9.060   3.199
 8798WAT      O26635   4.707   5.880   1.445
 8798WAT     H126636   4.707   5.914   1.351
 8798WAT     H226637   4.790   5.912   1.492
 8799WAT      O26638   9.391   8.730   5.639
 8799WAT     H126639   9.356   8.649   5.685
 8799WAT     H226640   9.489   8.719   5.622
 8800WAT      O26641   6.799   0.970   6.260
 8800WAT     H126642   6.799   1.040   6.187
 8800WAT     H226643   6.708   0.932   6.269
 8801WAT      O26644   4.787   1.536   4.338
 8801WAT     H126645   4.753   1.529   4.432
 8801WAT     H226646   4.826   1.627   4.324
 8802WAT      O26647   8.140   1.492   6.585
 8802WAT     H126648   8.150   1.553   6.506
 8802WAT     H226649   8.224   1.438   6.596
 8803WAT      O26650   2.449   9.258   6.452
 8803WAT     H126651   2.489   9.190   6.390
 8803WAT     H226652   2.519   9.291   6.515
 8804WAT      O26653   4.196   1.622   7.516
 8804WAT     H126654   4.168   1.674   7.436
 8804WAT     H226655   4.260   1.550   7.489
 8805WAT      O26656   4.815   1.101   6.801
 8805WAT     H126657   4.716   1.086   6.803
 8805WAT     H226658   4.843   1.152   6.881
 8806WAT      O26659   0.664   9.075   5.641
 8806WAT     H126660   0.703   9.004   5.582
 8806WAT     H226661   0.624   9.147   5.584
 8807WAT      O26662   9.099   0.603   3.033
 8807WAT     H126663   9.158   0.680   3.009
 8807WAT     H226664   9.004   0.630   3.021
 8808WAT      O26665   2.922   5.510   8.834
 8808WAT     H126666   2.883   5.583   8.778
 8808WAT     H226667   2.900   5.421   8.792
 8809WAT      O26668   5.314   1.127   3.132
 8809WAT     H126669   5.270   1.070   3.202
 8809WAT     H226670   5.391   1.078   3.092
 8810WAT      O26671   2.253   4.591   9.479
 8810WAT     H126672   2.334   4.645   9.460
 8810WAT     H226673   2.238   4.525   9.404
 8811WAT      O26674   8.204   9.809   0.809
 8811WAT     H126675   8.262   9.792   0.889
 8811WAT     H226676   8.190   9.723   0.759
 8812WAT      O26677   3.442   1.806   5.686
 8812WAT     H126678   3.497   1.816   5.769
 8812WAT     H226679   3.360   1.753   5.707
 8813WAT      O26680   2.355   2.914   6.555
 8813WAT     H126681   2.262   2.941   6.578
 8813WAT     H226682   2.354   2.860   6.471
 8814WAT      O26683   1.053   7.329   0.982
 8814WAT     H126684   0.981   7.291   0.924
 8814WAT     H226685   1.011   7.365   1.066
 8815WAT      O26686   1.637   8.297   5.292
 8815WAT     H126687   1.619   8.200   5.277
 8815WAT     H226688   1.573   8.351   5.238
 8816WAT      O26689   1.480   1.137   2.418
 8816WAT     H126690   1.570   1.173   2.394
 8816WAT     H226691   1.417   1.213   2.432
 8817WAT      O26692   0.574   6.768   0.069
 8817WAT     H126693   0.516   6.830   0.017
 8817WAT     H226694   0.619   6.703   0.007
 8818WAT      O26695   3.314   1.662   2.906
 8818WAT     H126696   3.315   1.571   2.865
 8818WAT     H226697   3.408   1.692   2.922
 8819WAT      O26698   4.055   3.594   7.524
 8819WAT     H126699   4.084   3.572   7.617
 8819WAT     H226700   4.005   3.681   7.524
 8820WAT      O26701   6.489   6.029   4.290
 8820WAT     H126702   6.520   6.002   4.381
 8820WAT     H226703   6.568   6.055   4.234
 8821WAT      O26704   7.045   9.096   1.787
 8821WAT     H126705   7.035   9.171   1.852
 8821WAT     H226706   7.142   9.088   1.761
 8822WAT      O26707   1.029   6.931   3.707
 8822WAT     H126708   1.094   7.002   3.679
 8822WAT     H226709   1.079   6.854   3.745
 8823WAT      O26710   4.351   4.635   5.797
 8823WAT     H126711   4.420   4.581   5.845
 8823WAT     H226712   4.261   4.615   5.835
 8824WAT      O26713   3.925   8.122   1.771
 8824WAT     H126714   3.974   8.097   1.855
 8824WAT     H226715   3.973   8.085   1.692
 8825WAT      O26716   3.703   8.417   1.103
 8825WAT     H126717   3.626   8.480   1.107
 8825WAT     H226718   3.713   8.370   1.191
 8826WAT      O26719   7.669   3.079   0.361
 8826WAT     H126720   7.766   3.098   0.377
 8826WAT     H226721   7.635   3.136   0.287
 8827WAT      O26722   9.078   0.580   2.074
 8827WAT     H126723   9.007   0.585   2.004
 8827WAT     H226724   9.040   0.608   2.162
 8828WAT      O26725   2.770   6.887   3.777
 8828WAT     H126726   2.714   6.804   3.768
 8828WAT     H226727   2.860   6.871   3.736
 8829WAT      O26728   2.321   5.776   9.332
 8829WAT     H126729   2.376   5.807   9.255
 8829WAT     H226730   2.224   5.778   9.306
 8830WAT      O26731   2.077   3.061   9.290
 8830WAT     H126732   2.125   2.973   9.283
 8830WAT     H226733   2.045   3.089   9.200
 8831WAT      O26734   4.984   8.313   6.315
 8831WAT     H126735   4.914   8.242   6.313
 8831WAT     H226736   4.954   8.392   6.261
 8832WAT      O26737   3.761   7.953   9.774
 8832WAT     H126738   3.809   7.885   9.829
 8832WAT     H226739   3.827   8.011   9.726
 8833WAT      O26740   0.104   1.419   4.443
 8833WAT     H126741   0.090   1.336   4.498
 8833WAT     H226742   0.101   1.396   4.346
 8834WAT      O26743   2.820   3.155   5.674
 8834WAT     H126744   2.804   3.085   5.745
 8834WAT     H226745   2.781   3.241   5.704
 8835WAT      O26746   1.659   2.917   7.440
 8835WAT     H126747   1.725   2.889   7.370
 8835WAT     H226748   1.597   2.841   7.459
 8836WAT      O26749   5.089   8.618   5.176
 8836WAT     H126750   5.016   8.550   5.168
 8836WAT     H226751   5.160   8.583   5.237
 8837WAT      O26752   6.729   9.090   9.084
 8837WAT     H126753   6.713   9.162   9.151
 8837WAT     H226754   6.645   9.076   9.030
 8838WAT      O26755   4.682   9.781   1.442
 8838WAT     H126756   4.655   9.706   1.503
 8838WAT     H226757   4.602   9.818   1.397
 8839WAT      O26758   7.094   4.567   1.777
 8839WAT     H126759   7.062   4.475   1.753
 8839WAT     H226760   7.053   4.634   1.715
 8840WAT      O26761   5.017   4.187   6.991
 8840WAT     H126762   4.997   4.090   7.000
 8840WAT     H226763   5.047   4.207   6.898
 8841WAT      O26764   5.582   0.903   9.777
 8841WAT     H126765   5.503   0.889   9.718
 8841WAT     H226766   5.558   0.882   9.871
 8842WAT      O26767   6.386   8.854   5.749
 8842WAT     H126768   6.344   8.827   5.662
 8842WAT     H226769   6.420   8.948   5.741
 8843WAT      O26770   1.327   6.249   1.627
 8843WAT     H126771   1.419   6.281   1.650
 8843WAT     H226772   1.331   6.153   1.599
 8844WAT      O26773   6.883   7.452   6.599
 8844WAT     H126774   6.968   7.496   6.628
 8844WAT     H226775   6.833   7.512   6.537
 8845WAT      O26776   3.902   0.049   4.620
 8845WAT     H126777   3.843   0.072   4.543
 8845WAT     H226778   3.925   0.133   4.670
 8846WAT      O26779   0.122   1.529   5.420
 8846WAT     H126780   0.054   1.597   5.448
 8846WAT     H226781   0.086   1.475   5.344
 8847WAT      O26782   4.607   8.256   4.339
 8847WAT     H126783   4.630   8.170   4.293
 8847WAT     H226784   4.530   8.240   4.401
 8848WAT      O26785   3.086   8.675   9.173
 8848WAT     H126786   3.164   8.704   9.117
 8848WAT     H226787   3.061   8.581   9.149
 8849WAT      O26788   6.755   2.977   1.368
 8849WAT     H126789   6.823   2.905   1.381
 8849WAT     H226790   6.790   3.043   1.301
 8850WAT      O26791   3.140   7.075   9.753
 8850WAT     H126792   3.146   7.174   9.761
 8850WAT     H226793   3.057   7.050   9.704
 8851WAT      O26794   2.769   9.620   4.675
 8851WAT     H126795   2.730   9.626   4.583
 8851WAT     H226796   2.780   9.524   4.701
 8852WAT      O26797   5.278   6.102   7.792
 8852WAT     H126798   5.253   6.195   7.766
 8852WAT     H226799   5.370   6.101   7.830
 8853WAT      O26800   0.912   6.180   0.711
 8853WAT     H126801   0.864   6.114   0.654
 8853WAT     H226802   0.993   6.137   0.751
 8854WAT      O26803   2.369   2.579   4.686
 8854WAT     H126804   2.322   2.532   4.611
 8854WAT     H226805   2.401   2.669   4.655
 8855WAT      O26806   3.669   6.011   5.577
 8855WAT     H126807   3.589   6.037   5.631
 8855WAT     H226808   3.752   6.030   5.630
 8856WAT      O26809   8.428   5.845   6.355
 8856WAT     H126810   8.442   5.941   6.382
 8856WAT     H226811   8.455   5.785   6.429
 8857WAT      O26812   0.420   2.592   9.835
 8857WAT     H126813   0.478   2.612   9.756
 8857WAT     H226814   0.418   2.493   9.850
 8858WAT      O26815   3.074   3.916   9.594
 8858WAT     H126816   3.065   3.988   9.663
 8858WAT     H226817   3.139   3.847   9.626
 8859WAT      O26818   1.653   8.106   9.168
 8859WAT     H126819   1.719   8.124   9.241
 8859WAT     H226820   1.697   8.117   9.080
 8860WAT      O26821   1.506   5.839   9.796
 8860WAT     H126822   1.492   5.752   9.843
 8860WAT     H226823   1.425   5.862   9.742
 8861WAT      O26824   8.649   7.291   3.522
 8861WAT     H126825   8.644   7.211   3.581
 8861WAT     H226826   8.721   7.278   3.454
 8862WAT      O26827   2.567   7.878   0.428
 8862WAT     H126828   2.546   7.832   0.515
 8862WAT     H226829   2.486   7.880   0.371
 8863WAT      O26830   1.545   1.245   3.759
 8863WAT     H126831   1.537   1.173   3.690
 8863WAT     H226832   1.454   1.275   3.786
 8864WAT      O26833   6.513   2.499   0.874
 8864WAT     H126834   6.533   2.565   0.801
 8864WAT     H226835   6.514   2.407   0.837
 8865WAT      O26836   5.520   8.088   5.783
 8865WAT     H126837   5.487   8.180   5.805
 8865WAT     H226838   5.565   8.048   5.863
 8866WAT      O26839   2.903   9.816   6.235
 8866WAT     H126840   2.971   9.794   6.165
 8866WAT     H226841   2.949   9.859   6.313
 8867WAT      O26842   1.354   4.597   2.151
 8867WAT     H126843   1.269   4.583   2.101
 8867WAT     H226844   1.349   4.547   2.238
 8868WAT      O26845   4.405   6.820   4.922
 8868WAT     H126846   4.385   6.722   4.914
 8868WAT     H226847   4.459   6.850   4.844
 8869WAT      O26848   3.299   6.427   3.299
 8869WAT     H126849   3.223   6.489   3.285
 8869WAT     H226850   3.300   6.395   3.393
 8870WAT      O26851   6.939   4.496   4.277
 8870WAT     H126852   6.986   4.462   4.359
 8870WAT     H226853   6.886   4.578   4.300
 8871WAT      O26854   3.505   5.771   6.492
 8871WAT     H126855   3.551   5.843   6.440
 8871WAT     H226856   3.569   5.697   6.512
 8872WAT      O26857   1.528   2.738   1.815
 8872WAT     H126858   1.614   2.759   1.769
 8872WAT     H226859   1.477   2.822   1.831
 8873WAT      O26860   9.425   7.945   9.378
 8873WAT     H126861   9.506   7.913   9.329
 8873WAT     H226862   9.344   7.898   9.343
 8874WAT      O26863   1.763   4.622   3.682
 8874WAT     H126864   1.856   4.651   3.705
 8874WAT     H226865   1.698   4.669   3.742
 8875WAT      O26866   0.061   4.350   4.572
 8875WAT     H126867  -0.019   4.301   4.608
 8875WAT     H226868   0.030   4.420   4.506
 8876WAT      O26869   7.556   4.038   7.683
 8876WAT     H126870   7.500   4.039   7.600
 8876WAT     H226871   7.513   4.093   7.754
 8877WAT      O26872   2.903   9.229   7.627
 8877WAT     H126873   2.806   9.204   7.620
 8877WAT     H226874   2.937   9.204   7.718
 8878WAT      O26875   5.156   5.461   7.372
 8878WAT     H126876   5.096   5.523   7.422
 8878WAT     H226877   5.101   5.397   7.319
 8879WAT      O26878   3.485   2.294   9.868
 8879WAT     H126879   3.433   2.212   9.842
 8879WAT     H226880   3.423   2.360   9.910
 8880WAT      O26881   3.679   0.741   5.598
 8880WAT     H126882   3.651   0.695   5.682
 8880WAT     H226883   3.779   0.752   5.598
 8881WAT      O26884   3.503   9.018   4.348
 8881WAT     H126885   3.550   8.937   4.311
 8881WAT     H226886   3.556   9.100   4.326
 8882WAT      O26887   5.392   9.153   7.333
 8882WAT     H126888   5.408   9.212   7.254
 8882WAT     H226889   5.302   9.110   7.324
 8883WAT      O26890   7.175   7.161   4.543
 8883WAT     H126891   7.168   7.168   4.444
 8883WAT     H226892   7.102   7.103   4.579
 8884WAT      O26893   2.542   8.097   7.511
 8884WAT     H126894   2.535   8.119   7.608
 8884WAT     H226895   2.550   8.181   7.457
 8885WAT      O26896   0.654   9.073   1.404
 8885WAT     H126897   0.693   9.102   1.317
 8885WAT     H226898   0.631   9.154   1.458
 8886WAT      O26899   5.986   1.392   9.541
 8886WAT     H126900   6.028   1.462   9.598
 8886WAT     H226901   5.976   1.308   9.593
 8887WAT      O26902   9.377   0.006   0.319
 8887WAT     H126903   9.379   0.040   0.225
 8887WAT     H226904   9.317  -0.074   0.324
 8888WAT      O26905   9.292   8.413   1.124
 8888WAT     H126906   9.278   8.485   1.056
 8888WAT     H226907   9.204   8.373   1.149
 8889WAT      O26908   6.042   9.128   1.190
 8889WAT     H126909   5.982   9.178   1.253
 8889WAT     H226910   5.990   9.102   1.109
 8890WAT      O26911   4.934   1.488   9.556
 8890WAT     H126912   4.972   1.548   9.626
 8890WAT     H226913   5.006   1.463   9.491
 8891WAT      O26914   4.280   8.896   5.332
 8891WAT     H126915   4.362   8.952   5.338
 8891WAT     H226916   4.296   8.808   5.377
 8892WAT      O26917   0.758   3.949   8.215
 8892WAT     H126918   0.712   3.957   8.303
 8892WAT     H226919   0.689   3.951   8.142
 8893WAT      O26920   4.811   3.924   4.800
 8893WAT     H126921   4.738   3.976   4.847
 8893WAT     H226922   4.864   3.986   4.743
 8894WAT      O26923   1.245   3.060   4.860
 8894WAT     H126924   1.241   3.142   4.803
 8894WAT     H226925   1.225   3.084   4.955
 8895WAT      O26926   6.290   8.015   5.917
 8895WAT     H126927   6.256   8.040   5.826
 8895WAT     H226928   6.220   8.037   5.986
 8896WAT      O26929   8.252   0.466   4.098
 8896WAT     H126930   8.210   0.394   4.043
 8896WAT     H226931   8.257   0.436   4.193
 8897WAT      O26932   6.568   0.540   9.211
 8897WAT     H126933   6.620   0.623   9.229
 8897WAT     H226934   6.630   0.462   9.208
 8898WAT      O26935   1.992   0.905   0.246
 8898WAT     H126936   2.080   0.861   0.264
 8898WAT     H226937   2.007   0.997   0.211
 8899WAT      O26938   2.619   1.239   1.520
 8899WAT     H126939   2.667   1.229   1.432
 8899WAT     H226940   2.541   1.177   1.522
 8900WAT      O26941   4.974   2.398   0.071
 8900WAT     H126942   5.038   2.354   0.007
 8900WAT     H226943   4.901   2.442   0.020
 8901WAT      O26944   6.151   7.992   0.054
 8901WAT     H126945   6.168   8.055  -0.021
 8901WAT     H226946   6.054   7.993   0.078
 8902WAT      O26947   0.844   4.895   5.976
 8902WAT     H126948   0.849   4.877   5.878
 8902WAT     H226949   0.873   4.989   5.995
 8903WAT      O26950   8.575   0.409   7.861
 8903WAT     H126951   8.534   0.501   7.856
 8903WAT     H226952   8.565   0.374   7.955
 8904WAT      O26953   8.717   1.927   1.648
 8904WAT     H126954   8.733   1.835   1.614
 8904WAT     H226955   8.726   1.928   1.748
 8905WAT      O26956   9.072   5.138   6.693
 8905WAT     H126957   9.074   5.091   6.605
 8905WAT     H226958   9.166   5.163   6.720
 8906WAT      O26959   6.656   2.776   4.162
 8906WAT     H126960   6.736   2.735   4.119
 8906WAT     H226961   6.667   2.772   4.262
 8907WAT      O26962   4.639   7.684   4.727
 8907WAT     H126963   4.731   7.723   4.716
 8907WAT     H226964   4.614   7.686   4.824
 8908WAT      O26965   9.522   6.583   4.730
 8908WAT     H126966   9.594   6.653   4.726
 8908WAT     H226967   9.432   6.628   4.727
 8909WAT      O26968   8.600   6.423   5.902
 8909WAT     H126969   8.561   6.416   5.993
 8909WAT     H226970   8.582   6.514   5.864
 8910WAT      O26971   8.537   5.506   9.239
 8910WAT     H126972   8.486   5.441   9.296
 8910WAT     H226973   8.635   5.488   9.249
 8911WAT      O26974   9.121   4.199   5.244
 8911WAT     H126975   9.138   4.291   5.281
 8911WAT     H226976   9.155   4.193   5.151
 8912WAT      O26977   4.811   9.699   6.921
 8912WAT     H126978   4.765   9.698   7.010
 8912WAT     H226979   4.902   9.658   6.930
 8913WAT      O26980   7.298   8.949   3.768
 8913WAT     H126981   7.289   8.849   3.770
 8913WAT     H226982   7.394   8.974   3.782
 8914WAT      O26983   6.689   4.758   5.410
 8914WAT     H126984   6.613   4.813   5.378
 8914WAT     H226985   6.728   4.707   5.334
 8915WAT      O26986   4.392   9.048   9.145
 8915WAT     H126987   4.415   9.115   9.074
 8915WAT     H226988   4.474   9.027   9.198
 8916WAT      O26989   5.801   1.013   4.753
 8916WAT     H126990   5.898   1.037   4.743
 8916WAT     H226991   5.762   0.996   4.662
 8917WAT      O26992   7.528   6.573   5.507
 8917WAT     H126993   7.488   6.617   5.588
 8917WAT     H226994   7.618   6.536   5.530
 8918WAT      O26995   3.332   8.767   8.599
 8918WAT     H126996   3.416   8.787   8.650
 8918WAT     H226997   3.253   8.799   8.651
 8919WAT      O26998   1.598   7.335   3.235
 8919WAT     H126999   1.553   7.247   3.251
 8919WAT     H227000   1.659   7.328   3.157
 8920WAT      O27001   7.382   7.696   9.636
 8920WAT     H127002   7.300   7.752   9.621
 8920WAT     H227003   7.408   7.700   9.733
 8921WAT      O27004   7.439   0.927   3.997
 8921WAT     H127005   7.502   0.978   4.055
 8921WAT     H227006   7.387   0.862   4.053
 8922WAT      O27007   6.399   1.230   8.266
 8922WAT     H127008   6.420   1.267   8.357
 8922WAT     H227009   6.471   1.259   8.202
 8923WAT      O27010   1.372   8.088   9.127
 8923WAT     H127011   1.471   8.098   9.137
 8923WAT     H227012   1.349   8.072   9.031
 8924WAT      O27013   7.587   4.610   3.464
 8924WAT     H127014   7.585   4.512   3.449
 8924WAT     H227015   7.493   4.645   3.470
 8925WAT      O27016   5.109   1.643   8.563
 8925WAT     H127017   5.090   1.580   8.639
 8925WAT     H227018   5.206   1.667   8.563
 8926WAT      O27019   7.671   6.789   7.611
 8926WAT     H127020   7.709   6.711   7.660
 8926WAT     H227021   7.618   6.756   7.533
 8927WAT      O27022   3.156   6.673   8.367
 8927WAT     H127023   3.060   6.644   8.370
 8927WAT     H227024   3.195   6.666   8.459
 8928WAT      O27025   4.861   8.870   8.298
 8928WAT     H127026   4.807   8.862   8.381
 8928WAT     H227027   4.833   8.799   8.232
 8929WAT      O27028   9.580   2.075   8.661
 8929WAT     H127029   9.495   2.030   8.687
 8929WAT     H227030   9.589   2.075   8.561
 8930WAT      O27031   7.254   8.503   1.813
 8930WAT     H127032   7.230   8.495   1.910
 8930WAT     H227033   7.216   8.426   1.763
 8931WAT      O27034   2.911   5.839   5.685
 8931WAT     H127035   2.904   5.745   5.716
 8931WAT     H227036   2.969   5.844   5.603
 8932WAT      O27037   1.575   3.408   2.585
 8932WAT     H127038   1.568   3.500   2.624
 8932WAT     H227039   1.633   3.410   2.504
 8933WAT      O27040   0.274   8.704   7.627
 8933WAT     H127041   0.280   8.803   7.644
 8933WAT     H227042   0.178   8.678   7.616
 8934WAT      O27043   1.622   0.919   8.537
 8934WAT     H127044   1.646   0.838   8.591
 8934WAT     H227045   1.588   0.991   8.597
 8935WAT      O27046   6.647   2.337   6.019
 8935WAT     H127047   6.582   2.368   6.088
 8935WAT     H227048   6.623   2.244   5.990
 8936WAT      O27049   7.896   1.244   3.015
 8936WAT     H127050   7.974   1.251   2.953
 8936WAT     H227051   7.929   1.217   3.106
 8937WAT      O27052   8.477   9.743   6.052
 8937WAT     H127053   8.560   9.694   6.026
 8937WAT     H227054   8.415   9.681   6.100
 8938WAT      O27055   2.691   4.145   2.499
 8938WAT     H127056   2.618   4.213   2.498
 8938WAT     H227057   2.696   4.100   2.409
 8939WAT      O27058   9.024   3.285   1.626
 8939WAT     H127059   8.930   3.316   1.633
 8939WAT     H227060   9.036   3.202   1.680
 8940WAT      O27061   1.975   4.116   8.519
 8940WAT     H127062   1.979   4.200   8.465
 8940WAT     H227063   2.066   4.097   8.557
 8941WAT      O27064   2.111   7.627   1.739
 8941WAT     H127065   2.038   7.663   1.798
 8941WAT     H227066   2.076   7.613   1.647
 8942WAT      O27067   1.776   1.154   5.277
 8942WAT     H127068   1.728   1.239   5.300
 8942WAT     H227069   1.719   1.098   5.217
 8943WAT      O27070   7.523   7.352   8.811
 8943WAT     H127071   7.436   7.400   8.804
 8943WAT     H227072   7.581   7.397   8.879
 8944WAT      O27073   4.509   4.220   2.957
 8944WAT     H127074   4.474   4.140   2.908
 8944WAT     H227075   4.606   4.234   2.933
 8945WAT      O27076   3.272   2.771   4.154
 8945WAT     H127077   3.318   2.694   4.198
 8945WAT     H227078   3.341   2.829   4.110
 8946WAT      O27079   8.706   4.287   8.876
 8946WAT     H127080   8.791   4.318   8.833
 8946WAT     H227081   8.713   4.189   8.896
 8947WAT      O27082   8.147   0.979   6.707
 8947WAT     H127083   8.132   0.937   6.796
 8947WAT     H227084   8.220   0.930   6.659
 8948WAT      O27085   9.850   0.846   9.718
 8948WAT     H127086   9.798   0.804   9.792
 8948WAT     H227087   9.860   0.944   9.735
 8949WAT      O27088   8.484   0.669   7.829
 8949WAT     H127089   8.398   0.682   7.780
 8949WAT     H227090   8.467   0.678   7.928
 8950WAT      O27091   5.264   2.544   1.692
 8950WAT     H127092   5.172   2.556   1.656
 8950WAT     H227093   5.306   2.463   1.650
 8951WAT      O27094   3.323   3.275   8.705
 8951WAT     H127095   3.312   3.365   8.749
 8951WAT     H227096   3.315   3.203   8.774
 8952WAT      O27097   3.108   6.814   9.423
 8952WAT     H127098   3.029   6.855   9.468
 8952WAT     H227099   3.190   6.833   9.476
 8953WAT      O27100   8.962   3.785   6.929
 8953WAT     H127101   8.885   3.761   6.988
 8953WAT     H227102   8.929   3.842   6.854
 8954WAT      O27103   2.026   1.047   1.550
 8954WAT     H127104   2.086   1.121   1.579
 8954WAT     H227105   2.063   1.003   1.468
 8955WAT      O27106   8.675   9.747   2.998
 8955WAT     H127107   8.695   9.818   2.930
 8955WAT     H227108   8.622   9.674   2.956
 8956WAT      O27109   1.294   4.746   3.745
 8956WAT     H127110   1.363   4.815   3.766
 8956WAT     H227111   1.331   4.655   3.764
 8957WAT      O27112   2.856   5.764   9.230
 8957WAT     H127113   2.931   5.718   9.181
 8957WAT     H227114   2.768   5.730   9.196
 8958WAT      O27115   8.337   6.799   8.253
 8958WAT     H127116   8.349   6.870   8.323
 8958WAT     H227117   8.374   6.832   8.166
 8959WAT      O27118   2.012   7.314   7.623
 8959WAT     H127119   2.047   7.315   7.529
 8959WAT     H227120   2.079   7.273   7.683
 8960WAT      O27121   5.262   8.435   7.954
 8960WAT     H127122   5.224   8.347   7.926
 8960WAT     H227123   5.193   8.506   7.946
 8961WAT      O27124   2.898   2.859   0.623
 8961WAT     H127125   2.975   2.798   0.600
 8961WAT     H227126   2.877   2.916   0.543
 8962WAT      O27127   1.050   7.513   8.533
 8962WAT     H127128   1.099   7.475   8.454
 8962WAT     H227129   0.979   7.449   8.562
 8963WAT      O27130   2.617   1.333   9.417
 8963WAT     H127131   2.674   1.374   9.346
 8963WAT     H227132   2.571   1.252   9.380
 8964WAT      O27133   2.374   9.193   2.850
 8964WAT     H127134   2.423   9.231   2.772
 8964WAT     H227135   2.404   9.098   2.865
 8965WAT      O27136   9.183   1.559   0.284
 8965WAT     H127137   9.134   1.535   0.200
 8965WAT     H227138   9.134   1.632   0.331
 8966WAT      O27139   9.282   9.064   5.106
 8966WAT     H127140   9.359   9.072   5.044
 8966WAT     H227141   9.225   9.146   5.101
 8967WAT      O27142   4.914   1.729   8.888
 8967WAT     H127143   4.864   1.648   8.919
 8967WAT     H227144   4.882   1.756   8.797
 8968WAT      O27145   4.533   5.564   1.242
 8968WAT     H127146   4.564   5.486   1.187
 8968WAT     H227147   4.523   5.644   1.184
 8969WAT      O27148   1.150   1.130   2.186
 8969WAT     H127149   1.150   1.116   2.285
 8969WAT     H227150   1.239   1.165   2.157
 8970WAT      O27151   2.573   0.449   9.585
 8970WAT     H127152   2.553   0.352   9.598
 8970WAT     H227153   2.491   0.503   9.600
 8971WAT      O27154   9.570   9.302   6.395
 8971WAT     H127155   9.502   9.298   6.322
 8971WAT     H227156   9.544   9.372   6.461
 8972WAT      O27157   6.755   4.030   3.971
 8972WAT     H127158   6.838   4.083   3.954
 8972WAT     H227159   6.716   4.000   3.885
 8973WAT      O27160   0.550   4.465   4.873
 8973WAT     H127161   0.598   4.380   4.895
 8973WAT     H227162   0.580   4.536   4.937
 8974WAT      O27163   0.760   0.730   1.787
 8974WAT     H127164   0.693   0.768   1.851
 8974WAT     H227165   0.810   0.656   1.833
 8975WAT      O27166   6.256   2.622   4.718
 8975WAT     H127167   6.191   2.621   4.643
 8975WAT     H227168   6.330   2.557   4.698
 8976WAT      O27169   8.934   0.333   0.927
 8976WAT     H127170   9.011   0.307   0.987
 8976WAT     H227171   8.881   0.252   0.903
 8977WAT      O27172   0.917   0.165   9.582
 8977WAT     H127173   1.006   0.206   9.603
 8977WAT     H227174   0.896   0.179   9.485
 8978WAT      O27175   1.812   0.515   7.488
 8978WAT     H127176   1.774   0.432   7.446
 8978WAT     H227177   1.905   0.529   7.454
 8979WAT      O27178   6.018   2.017   9.752
 8979WAT     H127179   5.934   2.033   9.803
 8979WAT     H227180   5.998   1.965   9.669
 8980WAT      O27181   0.254   2.662   7.199
 8980WAT     H127182   0.204   2.689   7.117
 8980WAT     H227183   0.315   2.736   7.228
 8981WAT      O27184   4.842   6.342   0.015
 8981WAT     H127185   4.870   6.280   0.088
 8981WAT     H227186   4.852   6.297  -0.073
 8982WAT      O27187   0.638   7.768   6.080
 8982WAT     H127188   0.565   7.817   6.034
 8982WAT     H227189   0.599   7.712   6.154
 8983WAT      O27190   7.862   0.754   3.953
 8983WAT     H127191   7.931   0.710   4.012
 8983WAT     H227192   7.772   0.747   3.997
 8984WAT      O27193   1.925   3.362   6.307
 8984WAT     H127194   1.989   3.340   6.381
 8984WAT     H227195   1.861   3.286   6.295
 8985WAT      O27196   4.346   0.829   0.098
 8985WAT     H127197   4.363   0.865   0.006
 8985WAT     H227198   4.354   0.903   0.164
 8986WAT      O27199   4.734   7.744   3.988
 8986WAT     H127200   4.809   7.694   4.030
 8986WAT     H227201   4.649   7.693   4.000
 8987WAT      O27202   0.776   5.585   5.696
 8987WAT     H127203   0.848   5.647   5.664
 8987WAT     H227204   0.790   5.494   5.655
 8988WAT      O27205   7.880   8.180   5.546
 8988WAT     H127206   7.904   8.158   5.451
 8988WAT     H227207   7.784   8.209   5.550
 8989WAT      O27208   0.927   9.644   3.115
 8989WAT     H127209   0.985   9.609   3.189
 8989WAT     H227210   0.856   9.703   3.153
 8990WAT      O27211   2.955   7.428   9.073
 8990WAT     H127212   2.949   7.513   9.125
 8990WAT     H227213   2.870   7.415   9.021
 8991WAT      O27214   0.380   7.197   4.484
 8991WAT     H127215   0.367   7.106   4.445
 8991WAT     H227216   0.467   7.200   4.533
 8992WAT      O27217   5.956   0.047   8.327
 8992WAT     H127218   6.004   0.091   8.252
 8992WAT     H227219   5.952  -0.051   8.312
 8993WAT      O27220   4.763   5.558   9.830
 8993WAT     H127221   4.668   5.531   9.818
 8993WAT     H227222   4.769   5.630   9.899
 8994WAT      O27223   9.091   0.690   7.942
 8994WAT     H127224   9.014   0.635   7.975
 8994WAT     H227225   9.058   0.778   7.910
 8995WAT      O27226   8.415   3.601   6.674
 8995WAT     H127227   8.398   3.584   6.577
 8995WAT     H227228   8.328   3.614   6.721
 8996WAT      O27229   9.460   5.014   6.273
 8996WAT     H127230   9.535   4.954   6.299
 8996WAT     H227231   9.463   5.098   6.328
 8997WAT      O27232   1.873   5.573   1.750
 8997WAT     H127233   1.853   5.513   1.673
 8997WAT     H227234   1.799   5.638   1.762
 8998WAT      O27235   3.826   9.347   8.267
 8998WAT     H127236   3.816   9.269   8.205
 8998WAT     H227237   3.912   9.394   8.248
 8999WAT      O27238   4.734   7.438   8.298
 8999WAT     H127239   4.700   7.510   8.237
 8999WAT     H227240   4.766   7.361   8.244
 9000WAT      O27241   6.902   4.493   4.794
 9000WAT     H127242   6.856   4.490   4.705
 9000WAT     H227243   6.847   4.445   4.862
 9001WAT      O27244   0.917   8.974   5.998
 9001WAT     H127245   0.830   8.986   6.046
 9001WAT     H227246   0.916   9.027   5.913
 9002WAT      O27247   0.943   5.769   8.783
 9002WAT     H127248   1.041   5.765   8.765
 9002WAT     H227249   0.922   5.719   8.867
 9003WAT      O27250   0.234   8.138   3.427
 9003WAT     H127251   0.147   8.099   3.457
 9003WAT     H227252   0.238   8.137   3.327
 9004WAT      O27253   8.684   9.519   9.191
 9004WAT     H127254   8.741   9.547   9.268
 9004WAT     H227255   8.635   9.598   9.154
 9005WAT      O27256   9.544   1.406   4.605
 9005WAT     H127257   9.587   1.493   4.630
 9005WAT     H227258   9.584   1.372   4.521
 9006WAT      O27259   6.215   7.018   9.775
 9006WAT     H127260   6.234   6.990   9.681
 9006WAT     H227261   6.228   7.116   9.784
 9007WAT      O27262   1.836   1.311   3.097
 9007WAT     H127263   1.887   1.386   3.054
 9007WAT     H227264   1.762   1.348   3.152
 9008WAT      O27265   8.736   2.620   5.014
 9008WAT     H127266   8.814   2.653   5.067
 9008WAT     H227267   8.688   2.549   5.067
 9009WAT      O27268   4.280   3.184   2.565
 9009WAT     H127269   4.318   3.228   2.646
 9009WAT     H227270   4.312   3.089   2.560
 9010WAT      O27271   0.539   6.868   3.810
 9010WAT     H127272   0.461   6.926   3.783
 9010WAT     H227273   0.615   6.926   3.837
 9011WAT      O27274   7.271   4.453   7.113
 9011WAT     H127275   7.272   4.375   7.176
 9011WAT     H227276   7.350   4.511   7.132
 9012WAT      O27277   3.433   3.883   7.541
 9012WAT     H127278   3.393   3.803   7.586
 9012WAT     H227279   3.438   3.959   7.606
 9013WAT      O27280   2.291   9.172   6.732
 9013WAT     H127281   2.308   9.095   6.794
 9013WAT     H227282   2.376   9.196   6.685
 9014WAT      O27283   2.892   2.645   1.401
 9014WAT     H127284   2.942   2.693   1.473
 9014WAT     H227285   2.810   2.602   1.440
 9015WAT      O27286   6.312   3.347   9.127
 9015WAT     H127287   6.357   3.433   9.150
 9015WAT     H227288   6.370   3.271   9.156
 9016WAT      O27289   3.439   1.371   6.490
 9016WAT     H127290   3.475   1.418   6.571
 9016WAT     H227291   3.403   1.282   6.516
 9017WAT      O27292   1.099   0.468   5.515
 9017WAT     H127293   1.195   0.463   5.486
 9017WAT     H227294   1.076   0.385   5.566
 9018WAT      O27295   6.301   3.143   3.785
 9018WAT     H127296   6.359   3.135   3.704
 9018WAT     H227297   6.324   3.227   3.834
 9019WAT      O27298   5.593   2.896   9.402
 9019WAT     H127299   5.602   2.955   9.322
 9019WAT     H227300   5.684   2.872   9.436
 9020WAT      O27301   7.957   4.698   4.929
 9020WAT     H127302   7.991   4.784   4.891
 9020WAT     H227303   8.034   4.640   4.955
 9021WAT      O27304   5.958   2.170   2.722
 9021WAT     H127305   5.913   2.258   2.735
 9021WAT     H227306   5.893   2.096   2.743
 9022WAT      O27307   9.676   5.127   3.753
 9022WAT     H127308   9.752   5.090   3.806
 9022WAT     H227309   9.598   5.145   3.813
 9023WAT      O27310   5.225   2.899   7.529
 9023WAT     H127311   5.232   2.911   7.430
 9023WAT     H227312   5.259   2.808   7.554
 9024WAT      O27313   6.872   8.788   0.704
 9024WAT     H127314   6.918   8.713   0.655
 9024WAT     H227315   6.789   8.753   0.747
 9025WAT      O27316   9.046   5.964   2.026
 9025WAT     H127317   8.977   5.983   2.096
 9025WAT     H227318   9.106   5.890   2.058
 9026WAT      O27319   3.084   5.363   9.165
 9026WAT     H127320   3.119   5.306   9.239
 9026WAT     H227321   2.997   5.324   9.132
 9027WAT      O27322   7.557   7.781   2.505
 9027WAT     H127323   7.524   7.815   2.594
 9027WAT     H227324   7.648   7.819   2.486
 9028WAT      O27325   4.535   4.909   3.258
 9028WAT     H127326   4.567   4.881   3.168
 9028WAT     H227327   4.613   4.917   3.321
 9029WAT      O27328   5.104   9.108   8.291
 9029WAT     H127329   5.105   9.200   8.330
 9029WAT     H227330   5.020   9.096   8.238
 9030WAT      O27331   5.823   9.124   0.293
 9030WAT     H127332   5.806   9.222   0.289
 9030WAT     H227333   5.804   9.083   0.204
 9031WAT      O27334   7.297   2.744   7.643
 9031WAT     H127335   7.355   2.788   7.575
 9031WAT     H227336   7.222   2.805   7.668
 9032WAT      O27337   5.334   2.337   2.127
 9032WAT     H127338   5.417   2.310   2.079
 9032WAT     H227339   5.351   2.420   2.180
 9033WAT      O27340   3.123   4.150   3.497
 9033WAT     H127341   3.125   4.145   3.597
 9033WAT     H227342   3.209   4.190   3.464
 9034WAT      O27343   8.977   1.079   6.242
 9034WAT     H127344   9.010   1.118   6.156
 9034WAT     H227345   9.048   1.021   6.282
 9035WAT      O27346   5.046   1.288   3.652
 9035WAT     H127347   4.946   1.289   3.655
 9035WAT     H227348   5.082   1.378   3.678
 9036WAT      O27349   0.324   0.568   1.878
 9036WAT     H127350   0.330   0.471   1.905
 9036WAT     H227351   0.342   0.576   1.781
 9037WAT      O27352   9.499   4.136   0.148
 9037WAT     H127353   9.437   4.152   0.225
 9037WAT     H227354   9.594   4.147   0.177
 9038WAT      O27355   3.865   8.638   1.829
 9038WAT     H127356   3.935   8.587   1.879
 9038WAT     H227357   3.795   8.670   1.893
 9039WAT      O27358   2.674   0.717   7.002
 9039WAT     H127359   2.722   0.646   6.952
 9039WAT     H227360   2.728   0.745   7.081
 9040WAT      O27361   8.397   8.952   1.770
 9040WAT     H127362   8.335   8.984   1.842
 9040WAT     H227363   8.379   9.003   1.686
 9041WAT      O27364   6.564   4.650   0.508
 9041WAT     H127365   6.578   4.744   0.477
 9041WAT     H227366   6.653   4.607   0.525
 9042WAT      O27367   9.242   2.025   9.410
 9042WAT     H127368   9.223   1.941   9.360
 9042WAT     H227369   9.220   2.104   9.352
 9043WAT      O27370   6.298   1.105   4.385
 9043WAT     H127371   6.253   1.104   4.296
 9043WAT     H227372   6.397   1.117   4.372
 9044WAT      O27373   4.308   1.536   3.134
 9044WAT     H127374   4.280   1.458   3.079
 9044WAT     H227375   4.380   1.509   3.197
 9045WAT      O27376   0.672   9.651   9.577
 9045WAT     H127377   0.757   9.696   9.608
 9045WAT     H227378   0.638   9.592   9.650
 9046WAT      O27379   2.465   3.651   2.066
 9046WAT     H127380   2.523   3.587   2.117
 9046WAT     H227381   2.377   3.659   2.111
 9047WAT      O27382   6.673   0.594   3.072
 9047WAT     H127383   6.672   0.684   3.117
 9047WAT     H227384   6.590   0.584   3.017
 9048WAT      O27385   2.599   3.071   1.485
 9048WAT     H127386   2.693   3.040   1.501
 9048WAT     H227387   2.578   3.065   1.387
 9049WAT      O27388   5.806   1.263   8.838
 9049WAT     H127389   5.800   1.209   8.754
 9049WAT     H227390   5.715   1.272   8.879
 9050WAT      O27391   1.930   9.283   7.695
 9050WAT     H127392   1.838   9.277   7.733
 9050WAT     H227393   1.986   9.344   7.751
 9051WAT      O27394   1.581   9.105   4.421
 9051WAT     H127395   1.576   9.125   4.323
 9051WAT     H227396   1.647   9.031   4.437
 9052WAT      O27397   7.834   1.870   9.309
 9052WAT     H127398   7.775   1.874   9.389
 9052WAT     H227399   7.780   1.889   9.227
 9053WAT      O27400   1.344   3.332   1.293
 9053WAT     H127401   1.394   3.296   1.214
 9053WAT     H227402   1.343   3.264   1.366
 9054WAT      O27403   1.445   7.501   0.499
 9054WAT     H127404   1.479   7.576   0.554
 9054WAT     H227405   1.359   7.467   0.537
 9055WAT      O27406   8.271   1.880   1.921
 9055WAT     H127407   8.276   1.905   2.018
 9055WAT     H227408   8.224   1.792   1.912
 9056WAT      O27409   9.136   9.774   0.677
 9056WAT     H127410   9.214   9.718   0.649
 9056WAT     H227411   9.062   9.715   0.708
 9057WAT      O27412   1.909   1.758   5.353
 9057WAT     H127413   1.981   1.819   5.388
 9057WAT     H227414   1.845   1.736   5.426
 9058WAT      O27415   7.048   9.412   3.234
 9058WAT     H127416   7.072   9.337   3.172
 9058WAT     H227417   6.949   9.411   3.250
 9059WAT      O27418   0.237   3.271   8.090
 9059WAT     H127419   0.336   3.265   8.105
 9059WAT     H227420   0.198   3.179   8.086
 9060WAT      O27421   5.306   3.958   6.008
 9060WAT     H127422   5.392   3.961   6.060
 9060WAT     H227423   5.303   3.873   5.956
 9061WAT      O27424   8.959   7.950   0.931
 9061WAT     H127425   8.919   7.994   0.851
 9061WAT     H227426   8.890   7.941   1.003
 9062WAT      O27427   4.006   4.731   8.030
 9062WAT     H127428   3.915   4.765   8.007
 9062WAT     H227429   4.019   4.640   7.991
 9063WAT      O27430   1.191   2.026   1.306
 9063WAT     H127431   1.242   2.100   1.263
 9063WAT     H227432   1.093   2.046   1.303
 9064WAT      O27433   7.752   8.555   7.239
 9064WAT     H127434   7.680   8.540   7.172
 9064WAT     H227435   7.750   8.650   7.269
 9065WAT      O27436   1.482   1.318   3.476
 9065WAT     H127437   1.427   1.302   3.394
 9065WAT     H227438   1.460   1.408   3.514
 9066WAT      O27439   2.587   1.448   3.328
 9066WAT     H127440   2.659   1.403   3.381
 9066WAT     H227441   2.622   1.534   3.291
 9067WAT      O27442   8.269   7.147   5.211
 9067WAT     H127443   8.249   7.236   5.169
 9067WAT     H227444   8.312   7.087   5.144
 9068WAT      O27445   4.867   7.313   8.633
 9068WAT     H127446   4.859   7.313   8.533
 9068WAT     H227447   4.791   7.260   8.672
 9069WAT      O27448   9.604   9.643   3.592
 9069WAT     H127449   9.683   9.614   3.646
 9069WAT     H227450   9.633   9.667   3.500
 9070WAT      O27451   2.369   7.348   8.528
 9070WAT     H127452   2.363   7.379   8.623
 9070WAT     H227453   2.457   7.303   8.514
 9071WAT      O27454   5.153   9.303   2.423
 9071WAT     H127455   5.156   9.205   2.402
 9071WAT     H227456   5.066   9.326   2.466
 9072WAT      O27457   4.442   8.792   7.872
 9072WAT     H127458   4.537   8.814   7.850
 9072WAT     H227459   4.396   8.756   7.790
 9073WAT      O27460   3.667   5.336   8.010
 9073WAT     H127461   3.613   5.270   7.959
 9073WAT     H227462   3.623   5.426   8.006
 9074WAT      O27463   8.863   1.627   1.200
 9074WAT     H127464   8.940   1.562   1.204
 9074WAT     H227465   8.898   1.719   1.183
 9075WAT      O27466   3.832   3.696   7.942
 9075WAT     H127467   3.819   3.627   7.870
 9075WAT     H227468   3.757   3.690   8.008
 9076WAT      O27469   6.110   8.842   5.260
 9076WAT     H127470   6.150   8.903   5.328
 9076WAT     H227471   6.176   8.771   5.235
 9077WAT      O27472   1.661   4.779   4.049
 9077WAT     H127473   1.636   4.871   4.021
 9077WAT     H227474   1.615   4.757   4.136
 9078WAT      O27475   9.834   5.751   3.457
 9078WAT     H127476   9.777   5.695   3.397
 9078WAT     H227477   9.925   5.711   3.463
 9079WAT      O27478   4.505   7.152   4.907
 9079WAT     H127479   4.515   7.247   4.877
 9079WAT     H227480   4.517   7.091   4.828
 9080WAT      O27481   4.409   8.215   6.961
 9080WAT     H127482   4.425   8.179   7.053
 9080WAT     H227483   4.434   8.145   6.894
 9081WAT      O27484   3.301   4.770   0.189
 9081WAT     H127485   3.324   4.688   0.242
 9081WAT     H227486   3.364   4.844   0.212
 9082WAT      O27487   7.803   2.832   7.272
 9082WAT     H127488   7.838   2.831   7.179
 9082WAT     H227489   7.861   2.775   7.330
 9083WAT      O27490   8.581   8.264   4.045
 9083WAT     H127491   8.609   8.248   3.951
 9083WAT     H227492   8.583   8.362   4.064
 9084WAT      O27493   7.075   7.786   5.475
 9084WAT     H127494   7.043   7.766   5.568
 9084WAT     H227495   7.112   7.879   5.471
 9085WAT      O27496   1.634   6.207   3.065
 9085WAT     H127497   1.630   6.212   3.165
 9085WAT     H227498   1.659   6.296   3.028
 9086WAT      O27499   0.682   1.910   4.815
 9086WAT     H127500   0.706   1.813   4.809
 9086WAT     H227501   0.644   1.940   4.728
 9087WAT      O27502   3.177   8.256   7.275
 9087WAT     H127503   3.175   8.330   7.208
 9087WAT     H227504   3.132   8.286   7.359
 9088WAT      O27505   2.203   6.458   2.339
 9088WAT     H127506   2.218   6.375   2.391
 9088WAT     H227507   2.237   6.446   2.246
 9089WAT      O27508   5.142   2.076   7.141
 9089WAT     H127509   5.096   2.075   7.053
 9089WAT     H227510   5.087   2.025   7.208
 9090WAT      O27511   3.922   8.102   2.689
 9090WAT     H127512   4.022   8.109   2.696
 9090WAT     H227513   3.881   8.186   2.724
 9091WAT      O27514   3.741   6.508   3.431
 9091WAT     H127515   3.751   6.410   3.414
 9091WAT     H227516   3.667   6.544   3.374
 9092WAT      O27517   7.281   1.489   5.053
 9092WAT     H127518   7.212   1.497   4.981
 9092WAT     H227519   7.265   1.559   5.123
 9093WAT      O27520   8.119   3.551   4.279
 9093WAT     H127521   8.063   3.524   4.357
 9093WAT     H227522   8.195   3.487   4.269
 9094WAT      O27523   1.129   0.372   8.540
 9094WAT     H127524   1.192   0.374   8.618
 9094WAT     H227525   1.179   0.343   8.458
 9095WAT      O27526   9.845   8.141   4.102
 9095WAT     H127527   9.768   8.090   4.139
 9095WAT     H227528   9.826   8.239   4.109
 9096WAT      O27529   3.020   6.680   2.285
 9096WAT     H127530   3.035   6.673   2.384
 9096WAT     H227531   3.069   6.607   2.239
 9097WAT      O27532   0.042   2.935   2.990
 9097WAT     H127533   0.067   2.935   3.087
 9097WAT     H227534  -0.054   2.963   2.980
 9098WAT      O27535   5.616   8.824   7.308
 9098WAT     H127536   5.572   8.765   7.375
 9098WAT     H227537   5.692   8.873   7.352
 9099WAT      O27538   3.167   5.001   8.558
 9099WAT     H127539   3.250   5.037   8.601
 9099WAT     H227540   3.162   4.902   8.573
 9100WAT      O27541   7.833   2.835   4.937
 9100WAT     H127542   7.847   2.915   4.995
 9100WAT     H227543   7.920   2.788   4.922
 9101WAT      O27544   8.877   4.822   9.313
 9101WAT     H127545   8.800   4.875   9.348
 9101WAT     H227546   8.873   4.819   9.213
 9102WAT      O27547   3.478   2.549   1.831
 9102WAT     H127548   3.561   2.506   1.797
 9102WAT     H227549   3.468   2.640   1.791
 9103WAT      O27550   5.569   3.867   7.305
 9103WAT     H127551   5.518   3.816   7.236
 9103WAT     H227552   5.540   3.837   7.396
 9104WAT      O27553   5.047   2.711   5.705
 9104WAT     H127554   5.101   2.629   5.722
 9104WAT     H227555   5.057   2.738   5.609
 9105WAT      O27556   6.063   7.392   4.065
 9105WAT     H127557   6.159   7.392   4.092
 9105WAT     H227558   6.007   7.432   4.137
 9106WAT      O27559   0.846   9.685   6.873
 9106WAT     H127560   0.940   9.712   6.851
 9106WAT     H227561   0.830   9.698   6.971
 9107WAT      O27562   0.672   1.258   2.190
 9107WAT     H127563   0.616   1.208   2.124
 9107WAT     H227564   0.712   1.338   2.144
 9108WAT      O27565   7.321   1.911   6.790
 9108WAT     H127566   7.234   1.912   6.838
 9108WAT     H227567   7.329   1.992   6.734
 9109WAT      O27568   8.380   9.373   5.660
 9109WAT     H127569   8.407   9.293   5.606
 9109WAT     H227570   8.454   9.398   5.723
 9110WAT      O27571   7.471   4.202   3.282
 9110WAT     H127572   7.513   4.242   3.364
 9110WAT     H227573   7.482   4.103   3.285
 9111WAT      O27574   9.534   2.331   4.740
 9111WAT     H127575   9.466   2.300   4.806
 9111WAT     H227576   9.622   2.288   4.760
 9112WAT      O27577   4.673   1.441   9.448
 9112WAT     H127578   4.595   1.495   9.479
 9112WAT     H227579   4.750   1.455   9.510
 9113WAT      O27580   3.021   2.540   4.004
 9113WAT     H127581   3.070   2.499   4.081
 9113WAT     H227582   2.968   2.470   3.957
 9114WAT      O27583   9.815   8.836   6.330
 9114WAT     H127584   9.751   8.905   6.364
 9114WAT     H227585   9.848   8.862   6.239
 9115WAT      O27586   6.094   4.782   7.241
 9115WAT     H127587   6.037   4.860   7.267
 9115WAT     H227588   6.122   4.732   7.323
 9116WAT      O27589   3.927   3.978   5.931
 9116WAT     H127590   3.878   4.060   5.960
 9116WAT     H227591   3.868   3.898   5.944
 9117WAT      O27592   7.138   3.625   1.293
 9117WAT     H127593   7.166   3.707   1.343
 9117WAT     H227594   7.212   3.597   1.231
 9118WAT      O27595   8.934   4.832   0.646
 9118WAT     H127596   8.844   4.787   0.649
 9118WAT     H227597   8.999   4.780   0.702
 9119WAT      O27598   0.494   8.129   0.474
 9119WAT     H127599   0.427   8.094   0.540
 9119WAT     H227600   0.475   8.226   0.456
 9120WAT      O27601   5.687   4.137   5.956
 9120WAT     H127602   5.635   4.149   5.872
 9120WAT     H227603   5.632   4.167   6.034
 9121WAT      O27604   3.077   5.346   9.680
 9121WAT     H127605   3.020   5.313   9.605
 9121WAT     H227606   3.122   5.269   9.725
 9122WAT      O27607   0.729   3.609   4.044
 9122WAT     H127608   0.711   3.706   4.035
 9122WAT     H227609   0.664   3.568   4.108
 9123WAT      O27610   4.144   4.468   1.468
 9123WAT     H127611   4.203   4.485   1.548
 9123WAT     H227612   4.049   4.479   1.494
 9124WAT      O27613   9.372   2.886   5.674
 9124WAT     H127614   9.367   2.984   5.693
 9124WAT     H227615   9.464   2.862   5.643
 9125WAT      O27616   8.939   3.059   0.897
 9125WAT     H127617   9.037   3.076   0.899
 9125WAT     H227618   8.898   3.090   0.983
 9126WAT      O27619   7.369   5.090   3.064
 9126WAT     H127620   7.443   5.145   3.027
 9126WAT     H227621   7.405   5.025   3.131
 9127WAT      O27622   2.255   5.049   7.713
 9127WAT     H127623   2.192   5.098   7.774
 9127WAT     H227624   2.209   4.968   7.677
 9128WAT      O27625   8.520   4.805   7.515
 9128WAT     H127626   8.569   4.889   7.538
 9128WAT     H227627   8.563   4.728   7.561
 9129WAT      O27628   3.221   1.529   4.573
 9129WAT     H127629   3.288   1.581   4.627
 9129WAT     H227630   3.242   1.539   4.476
 9130WAT      O27631   2.374   1.412   0.626
 9130WAT     H127632   2.464   1.378   0.654
 9130WAT     H227633   2.374   1.512   0.627
 9131WAT      O27634   5.828   5.146   2.505
 9131WAT     H127635   5.859   5.116   2.595
 9131WAT     H227636   5.821   5.246   2.504
 9132WAT      O27637   7.297   9.128   8.749
 9132WAT     H127638   7.289   9.226   8.733
 9132WAT     H227639   7.236   9.079   8.687
 9133WAT      O27640   1.255   1.483   4.435
 9133WAT     H127641   1.248   1.465   4.337
 9133WAT     H227642   1.219   1.574   4.455
 9134WAT      O27643   6.390   1.556   6.479
 9134WAT     H127644   6.419   1.506   6.560
 9134WAT     H227645   6.301   1.598   6.496
 9135WAT      O27646   1.089   6.552   5.148
 9135WAT     H127647   1.089   6.528   5.245
 9135WAT     H227648   1.106   6.650   5.137
 9136WAT      O27649   6.789   6.846   4.565
 9136WAT     H127650   6.689   6.838   4.575
 9136WAT     H227651   6.812   6.849   4.468
 9137WAT      O27652   0.915   5.966   4.791
 9137WAT     H127653   0.881   5.888   4.843
 9137WAT     H227654   0.943   5.935   4.700
 9138WAT      O27655   8.841   9.636   7.171
 9138WAT     H127656   8.771   9.597   7.231
 9138WAT     H227657   8.924   9.580   7.177
 9139WAT      O27658   2.980   8.600   7.139
 9139WAT     H127659   3.071   8.616   7.178
 9139WAT     H227660   2.933   8.530   7.192
 9140WAT      O27661   3.942   7.855   9.281
 9140WAT     H127662   3.888   7.881   9.361
 9140WAT     H227663   4.039   7.854   9.306
 9141WAT      O27664   0.598   5.187   5.742
 9141WAT     H127665   0.520   5.234   5.783
 9141WAT     H227666   0.566   5.105   5.694
 9142WAT      O27667   6.483   1.100   0.961
 9142WAT     H127668   6.440   1.067   0.877
 9142WAT     H227669   6.415   1.106   1.034
 9143WAT      O27670   6.251   5.517   6.460
 9143WAT     H127671   6.186   5.511   6.537
 9143WAT     H227672   6.294   5.428   6.446
 9144WAT      O27673   0.704   9.359   2.905
 9144WAT     H127674   0.701   9.452   2.869
 9144WAT     H227675   0.720   9.294   2.831
 9145WAT      O27676   5.830   5.561   4.297
 9145WAT     H127677   5.889   5.624   4.247
 9145WAT     H227678   5.790   5.608   4.376
 9146WAT      O27679   1.291   0.967   9.533
 9146WAT     H127680   1.315   0.895   9.599
 9146WAT     H227681   1.202   0.947   9.493
 9147WAT      O27682   5.894   7.826   5.739
 9147WAT     H127683   5.968   7.877   5.695
 9147WAT     H227684   5.806   7.868   5.714
 9148WAT      O27685   3.259   3.250   9.680
 9148WAT     H127686   3.316   3.234   9.761
 9148WAT     H227687   3.302   3.321   9.624
 9149WAT      O27688   1.804   9.610   0.961
 9149WAT     H127689   1.802   9.510   0.967
 9149WAT     H227690   1.860   9.638   0.883
 9150WAT      O27691   9.821   1.247   7.031
 9150WAT     H127692   9.809   1.304   6.950
 9150WAT     H227693   9.742   1.259   7.092
 9151WAT      O27694   9.135   1.974   0.743
 9151WAT     H127695   9.164   1.916   0.819
 9151WAT     H227696   9.048   2.018   0.766
 9152WAT      O27697   5.367   6.154   9.768
 9152WAT     H127698   5.433   6.087   9.733
 9152WAT     H227699   5.368   6.235   9.710
 9153WAT      O27700   3.993   2.359   3.394
 9153WAT     H127701   4.026   2.279   3.444
 9153WAT     H227702   3.976   2.334   3.298
 9154WAT      O27703   7.842   8.448   3.955
 9154WAT     H127704   7.875   8.415   4.043
 9154WAT     H227705   7.826   8.547   3.961
 9155WAT      O27706   8.512   2.196   4.023
 9155WAT     H127707   8.420   2.221   3.993
 9155WAT     H227708   8.511   2.176   4.121
 9156WAT      O27709   7.180   6.423   8.278
 9156WAT     H127710   7.232   6.397   8.359
 9156WAT     H227711   7.236   6.407   8.196
 9157WAT      O27712   1.891   7.116   8.945
 9157WAT     H127713   1.862   7.021   8.931
 9157WAT     H227714   1.810   7.172   8.963
 9158WAT      O27715   6.119   5.467   2.795
 9158WAT     H127716   6.146   5.375   2.767
 9158WAT     H227717   6.022   5.482   2.773
 9159WAT      O27718   0.118   2.641   6.557
 9159WAT     H127719   0.185   2.657   6.629
 9159WAT     H227720   0.156   2.669   6.469
 9160WAT      O27721   4.519   6.577   7.030
 9160WAT     H127722   4.475   6.584   7.120
 9160WAT     H227723   4.461   6.525   6.968
 9161WAT      O27724   0.639   1.255   0.252
 9161WAT     H127725   0.704   1.249   0.176
 9161WAT     H227726   0.545   1.253   0.216
 9162WAT      O27727   8.372   4.101   1.765
 9162WAT     H127728   8.436   4.026   1.783
 9162WAT     H227729   8.379   4.128   1.669
 9163WAT      O27730   1.186   5.494   5.586
 9163WAT     H127731   1.265   5.437   5.563
 9163WAT     H227732   1.201   5.538   5.675
 9164WAT      O27733   3.189   8.103   4.684
 9164WAT     H127734   3.136   8.083   4.766
 9164WAT     H227735   3.146   8.059   4.605
 9165WAT      O27736   4.314   8.576   1.066
 9165WAT     H127737   4.242   8.612   1.125
 9165WAT     H227738   4.302   8.611   0.973
 9166WAT      O27739   0.918   1.010   9.783
 9166WAT     H127740   0.929   1.045   9.690
 9166WAT     H227741   0.874   1.079   9.840
 9167WAT      O27742   9.774   7.100   6.912
 9167WAT     H127743   9.728   7.168   6.856
 9167WAT     H227744   9.710   7.027   6.936
 9168WAT      O27745   1.507   1.263   6.013
 9168WAT     H127746   1.526   1.345   5.958
 9168WAT     H227747   1.423   1.220   5.981
 9169WAT      O27748   9.562   9.615   1.643
 9169WAT     H127749   9.634   9.600   1.576
 9169WAT     H227750   9.536   9.712   1.645
 9170WAT      O27751   7.058   1.778   7.140
 9170WAT     H127752   7.059   1.792   7.239
 9170WAT     H227753   7.112   1.697   7.117
 9171WAT      O27754   9.420   7.208   1.546
 9171WAT     H127755   9.392   7.288   1.493
 9171WAT     H227756   9.519   7.200   1.544
 9172WAT      O27757   0.624   7.048   2.058
 9172WAT     H127758   0.650   6.961   2.016
 9172WAT     H227759   0.526   7.049   2.074
 9173WAT      O27760   4.803   0.349   2.371
 9173WAT     H127761   4.879   0.409   2.397
 9173WAT     H227762   4.720   0.378   2.418
 9174WAT      O27763   0.785   6.608   7.796
 9174WAT     H127764   0.780   6.704   7.767
 9174WAT     H227765   0.878   6.588   7.826
 9175WAT      O27766   9.441   4.399   4.726
 9175WAT     H127767   9.484   4.474   4.777
 9175WAT     H227768   9.510   4.329   4.706
 9176WAT      O27769   7.332   8.775   1.849
 9176WAT     H127770   7.321   8.677   1.831
 9176WAT     H227771   7.248   8.810   1.891
 9177WAT      O27772   2.904   8.849   3.725
 9177WAT     H127773   2.839   8.808   3.662
 9177WAT     H227774   2.901   8.802   3.813
 9178WAT      O27775   6.392   7.302   6.936
 9178WAT     H127776   6.478   7.306   6.987
 9178WAT     H227777   6.382   7.385   6.881
 9179WAT      O27778   8.470   0.850   1.184
 9179WAT     H127779   8.500   0.760   1.215
 9179WAT     H227780   8.534   0.885   1.116
 9180WAT      O27781   6.115   8.451   9.145
 9180WAT     H127782   6.094   8.364   9.189
 9180WAT     H227783   6.205   8.483   9.176
 9181WAT      O27784   8.321   0.278   9.879
 9181WAT     H127785   8.380   0.342   9.829
 9181WAT     H227786   8.309   0.195   9.825
 9182WAT      O27787   8.447   7.394   8.538
 9182WAT     H127788   8.404   7.334   8.605
 9182WAT     H227789   8.408   7.378   8.448
 9183WAT      O27790   3.906   5.335   5.523
 9183WAT     H127791   3.823   5.378   5.556
 9183WAT     H227792   3.892   5.236   5.517
 9184WAT      O27793   0.498   6.180   6.757
 9184WAT     H127794   0.534   6.163   6.848
 9184WAT     H227795   0.444   6.264   6.756
 9185WAT      O27796   6.953   9.309   1.629
 9185WAT     H127797   6.980   9.230   1.684
 9185WAT     H227798   6.853   9.318   1.629
 9186WAT      O27799   0.035   7.004   8.641
 9186WAT     H127800  -0.039   7.021   8.576
 9186WAT     H227801   0.094   7.084   8.647
 9187WAT      O27802   4.202   8.732   7.225
 9187WAT     H127803   4.161   8.642   7.212
 9187WAT     H227804   4.260   8.754   7.146
 9188WAT      O27805   7.403   9.711   1.637
 9188WAT     H127806   7.306   9.688   1.640
 9188WAT     H227807   7.415   9.802   1.597
 9189WAT      O27808   5.636   2.770   5.416
 9189WAT     H127809   5.562   2.823   5.458
 9189WAT     H227810   5.598   2.692   5.367
 9190WAT      O27811   6.440   8.008   9.153
 9190WAT     H127812   6.481   7.918   9.166
 9190WAT     H227813   6.502   8.078   9.189
 9191WAT      O27814   3.733   8.137   0.671
 9191WAT     H127815   3.764   8.180   0.756
 9191WAT     H227816   3.770   8.044   0.665
 9192WAT      O27817   9.588   8.660   6.608
 9192WAT     H127818   9.685   8.680   6.621
 9192WAT     H227819   9.536   8.745   6.614
 9193WAT      O27820   5.247   7.359   4.609
 9193WAT     H127821   5.199   7.287   4.659
 9193WAT     H227822   5.331   7.382   4.657
 9194WAT      O27823   9.318   8.710   4.500
 9194WAT     H127824   9.290   8.622   4.538
 9194WAT     H227825   9.342   8.699   4.403
 9195WAT      O27826   8.285   2.878   6.382
 9195WAT     H127827   8.258   2.963   6.337
 9195WAT     H227828   8.326   2.817   6.314
 9196WAT      O27829   7.113   2.935   0.606
 9196WAT     H127830   7.115   2.871   0.683
 9196WAT     H227831   7.097   3.028   0.640
 9197WAT      O27832   3.041   1.193   6.342
 9197WAT     H127833   3.031   1.282   6.386
 9197WAT     H227834   3.116   1.142   6.385
 9198WAT      O27835   6.412   3.816   5.833
 9198WAT     H127836   6.413   3.810   5.933
 9198WAT     H227837   6.392   3.910   5.806
 9199WAT      O27838   0.512   2.384   1.077
 9199WAT     H127839   0.434   2.446   1.080
 9199WAT     H227840   0.593   2.431   1.113
 9200WAT      O27841   2.379   1.592   5.380
 9200WAT     H127842   2.407   1.509   5.428
 9200WAT     H227843   2.406   1.672   5.434
 9201WAT      O27844   5.338   9.532   4.149
 9201WAT     H127845   5.273   9.607   4.143
 9201WAT     H227846   5.429   9.564   4.124
 9202WAT      O27847   5.739   6.796   4.982
 9202WAT     H127848   5.640   6.782   4.991
 9202WAT     H227849   5.783   6.781   5.070
 9203WAT      O27850   1.799   0.029   6.125
 9203WAT     H127851   1.836  -0.044   6.068
 9203WAT     H227852   1.759  -0.011   6.208
 9204WAT      O27853   3.354   8.580   4.923
 9204WAT     H127854   3.269   8.549   4.879
 9204WAT     H227855   3.407   8.502   4.954
 9205WAT      O27856   7.474   8.150   7.055
 9205WAT     H127857   7.564   8.112   7.077
 9205WAT     H227858   7.479   8.198   6.967
 9206WAT      O27859   0.970   0.142   3.695
 9206WAT     H127860   0.968   0.072   3.623
 9206WAT     H227861   1.033   0.215   3.668
 9207WAT      O27862   9.160   6.126   4.617
 9207WAT     H127863   9.240   6.116   4.559
 9207WAT     H227864   9.177   6.083   4.706
 9208WAT      O27865   6.747   0.257   8.148
 9208WAT     H127866   6.652   0.283   8.132
 9208WAT     H227867   6.760   0.234   8.244
 9209WAT      O27868   0.840   5.007   1.507
 9209WAT     H127869   0.891   4.974   1.587
 9209WAT     H227870   0.812   5.102   1.523
 9210WAT      O27871   5.549   7.427   7.780
 9210WAT     H127872   5.510   7.408   7.690
 9210WAT     H227873   5.476   7.451   7.843
 9211WAT      O27874   8.027   7.510   4.828
 9211WAT     H127875   8.025   7.579   4.755
 9211WAT     H227876   8.098   7.443   4.809
 9212WAT      O27877   9.792   6.423   2.204
 9212WAT     H127878   9.828   6.501   2.153
 9212WAT     H227879   9.755   6.454   2.291
 9213WAT      O27880   8.234   2.791   8.703
 9213WAT     H127881   8.268   2.835   8.786
 9213WAT     H227882   8.134   2.792   8.703
 9214WAT      O27883   5.016   4.387   9.032
 9214WAT     H127884   5.030   4.334   9.115
 9214WAT     H227885   5.064   4.343   8.956
 9215WAT      O27886   2.976   1.851   3.584
 9215WAT     H127887   2.937   1.911   3.514
 9215WAT     H227888   3.029   1.778   3.540
 9216WAT      O27889   8.536   7.970   5.454
 9216WAT     H127890   8.454   7.980   5.512
 9216WAT     H227891   8.508   7.940   5.363
 9217WAT      O27892   2.337   1.116   1.837
 9217WAT     H127893   2.413   1.090   1.897
 9217WAT     H227894   2.266   1.159   1.891
 9218WAT      O27895   7.890   7.920   5.610
 9218WAT     H127896   7.884   8.020   5.602
 9218WAT     H227897   7.916   7.881   5.521
 9219WAT      O27898   2.709   1.691   3.693
 9219WAT     H127899   2.653   1.738   3.761
 9219WAT     H227900   2.728   1.752   3.616
 9220WAT      O27901   3.087   5.712   0.276
 9220WAT     H127902   3.149   5.684   0.203
 9220WAT     H227903   3.029   5.787   0.244
 9221WAT      O27904   3.979   4.128   5.232
 9221WAT     H127905   4.024   4.060   5.289
 9221WAT     H227906   4.029   4.214   5.237
 9222WAT      O27907   0.043   8.577   9.815
 9222WAT     H127908   0.133   8.618   9.833
 9222WAT     H227909  -0.020   8.603   9.888
 9223WAT      O27910   5.713   6.126   7.902
 9223WAT     H127911   5.805   6.120   7.864
 9223WAT     H227912   5.673   6.215   7.878
 9224WAT      O27913   5.321   1.973   9.838
 9224WAT     H127914   5.384   1.931   9.903
 9224WAT     H227915   5.350   1.953   9.745
 9225WAT      O27916   4.844   8.412   2.909
 9225WAT     H127917   4.886   8.488   2.959
 9225WAT     H227918   4.911   8.339   2.895
 9226WAT      O27919   9.456   4.796   5.315
 9226WAT     H127920   9.523   4.834   5.252
 9226WAT     H227921   9.499   4.779   5.403
 9227WAT      O27922   8.278   9.076   7.672
 9227WAT     H127923   8.338   9.153   7.653
 9227WAT     H227924   8.326   9.009   7.728
 9228WAT      O27925   5.115   7.703   7.566
 9228WAT     H127926   5.146   7.785   7.614
 9228WAT     H227927   5.113   7.625   7.629
 9229WAT      O27928   4.800   8.038   2.371
 9229WAT     H127929   4.800   8.025   2.272
 9229WAT     H227930   4.711   8.010   2.408
 9230WAT      O27931   2.668   6.016   4.689
 9230WAT     H127932   2.623   5.945   4.742
 9230WAT     H227933   2.613   6.100   4.692
 9231WAT      O27934   8.278   1.483   2.758
 9231WAT     H127935   8.301   1.514   2.666
 9231WAT     H227936   8.180   1.466   2.765
 9232WAT      O27937   5.945   7.271   3.033
 9232WAT     H127938   5.982   7.296   2.944
 9232WAT     H227939   6.012   7.218   3.084
 9233WAT      O27940   8.124   9.130   4.623
 9233WAT     H127941   8.102   9.141   4.526
 9233WAT     H227942   8.154   9.036   4.640
 9234WAT      O27943   0.028   0.357   5.056
 9234WAT     H127944   0.062   0.317   4.971
 9234WAT     H227945  -0.008   0.449   5.038
 9235WAT      O27946   0.086   3.871   8.173
 9235WAT     H127947   0.104   3.969   8.167
 9235WAT     H227948   0.167   3.820   8.142
 9236WAT      O27949   3.641   7.277   3.361
 9236WAT     H127950   3.634   7.191   3.412
 9236WAT     H227951   3.556   7.328   3.369
 9237WAT      O27952   5.822   3.731   3.395
 9237WAT     H127953   5.874   3.695   3.317
 9237WAT     H227954   5.884   3.753   3.470
 9238WAT      O27955   0.825   6.273   5.707
 9238WAT     H127956   0.830   6.373   5.706
 9238WAT     H227957   0.833   6.238   5.614
 9239WAT      O27958   3.187   0.145   5.027
 9239WAT     H127959   3.201   0.049   5.048
 9239WAT     H227960   3.266   0.198   5.058
 9240WAT      O27961   8.679   5.571   4.497
 9240WAT     H127962   8.697   5.650   4.556
 9240WAT     H227963   8.752   5.564   4.428
 9241WAT      O27964   8.856   6.372   5.860
 9241WAT     H127965   8.759   6.381   5.881
 9241WAT     H227966   8.910   6.383   5.944
 9242WAT      O27967   6.251   7.628   5.975
 9242WAT     H127968   6.307   7.622   5.893
 9242WAT     H227969   6.288   7.566   6.045
 9243WAT      O27970   6.406   2.291   3.148
 9243WAT     H127971   6.444   2.289   3.055
 9243WAT     H227972   6.307   2.279   3.143
 9244WAT      O27973   2.931   0.375   0.394
 9244WAT     H127974   2.908   0.353   0.489
 9244WAT     H227975   2.984   0.460   0.392
 9245WAT      O27976   7.163   1.178   6.774
 9245WAT     H127977   7.159   1.262   6.720
 9245WAT     H227978   7.159   1.099   6.714
 9246WAT      O27979   1.255   2.017   3.114
 9246WAT     H127980   1.239   1.923   3.083
 9246WAT     H227981   1.202   2.080   3.058
 9247WAT      O27982   8.141   5.119   4.698
 9247WAT     H127983   8.206   5.189   4.667
 9247WAT     H227984   8.089   5.086   4.619
 9248WAT      O27985   3.460   8.346   7.116
 9248WAT     H127986   3.380   8.407   7.110
 9248WAT     H227987   3.523   8.367   7.041
 9249WAT      O27988   4.355   0.890   4.474
 9249WAT     H127989   4.301   0.945   4.539
 9249WAT     H227990   4.440   0.861   4.518
 9250WAT      O27991   1.647   6.799   9.122
 9250WAT     H127992   1.573   6.733   9.131
 9250WAT     H227993   1.713   6.786   9.196
 9251WAT      O27994   5.423   0.062   2.416
 9251WAT     H127995   5.364   0.063   2.335
 9251WAT     H227996   5.412   0.148   2.466
 9252WAT      O27997   4.104   8.038   5.928
 9252WAT     H127998   4.012   8.077   5.922
 9252WAT     H227999   4.127   8.022   6.024
 9253WAT      O28000   0.978   4.916   1.729
 9253WAT     H128001   1.046   4.925   1.801
 9253WAT     H228002   0.887   4.912   1.769
 9254WAT      O28003   2.886   4.410   0.765
 9254WAT     H128004   2.895   4.333   0.829
 9254WAT     H228005   2.876   4.495   0.817
 9255WAT      O28006   8.122   1.745   2.935
 9255WAT     H128007   8.023   1.736   2.951
 9255WAT     H228008   8.158   1.659   2.899
 9256WAT      O28009   8.461   1.821   6.176
 9256WAT     H128010   8.560   1.824   6.187
 9256WAT     H228011   8.429   1.728   6.188
 9257WAT      O28012   5.273   7.459   9.445
 9257WAT     H128013   5.248   7.403   9.366
 9257WAT     H228014   5.192   7.480   9.499
 9258WAT      O28015   4.429   1.293   9.665
 9258WAT     H128016   4.334   1.276   9.637
 9258WAT     H228017   4.452   1.389   9.645
 9259WAT      O28018   1.396   7.484   0.035
 9259WAT     H128019   1.471   7.437  -0.012
 9259WAT     H228020   1.334   7.524  -0.032
 9260WAT      O28021   1.476   1.768   8.686
 9260WAT     H128022   1.571   1.739   8.675
 9260WAT     H228023   1.439   1.729   8.770
 9261WAT      O28024   5.132   2.293   0.764
 9261WAT     H128025   5.206   2.328   0.708
 9261WAT     H228026   5.066   2.245   0.706
 9262WAT      O28027   5.030   0.041   3.629
 9262WAT     H128028   5.038   0.102   3.550
 9262WAT     H228029   4.978  -0.040   3.604
 9263WAT      O28030   1.368   0.541   3.131
 9263WAT     H128031   1.453   0.542   3.183
 9263WAT     H228032   1.389   0.533   3.033
 9264WAT      O28033   7.230   7.571   5.828
 9264WAT     H128034   7.259   7.521   5.909
 9264WAT     H228035   7.137   7.544   5.803
 9265WAT      O28036   5.873   3.891   9.309
 9265WAT     H128037   5.904   3.811   9.358
 9265WAT     H228038   5.777   3.881   9.284
 9266WAT      O28039   1.704   6.280   3.941
 9266WAT     H128040   1.673   6.200   3.993
 9266WAT     H228041   1.627   6.342   3.927
 9267WAT      O28042   3.840   1.564   8.288
 9267WAT     H128043   3.914   1.539   8.226
 9267WAT     H228044   3.760   1.592   8.235
 9268WAT      O28045   0.322   6.297   4.682
 9268WAT     H128046   0.340   6.372   4.618
 9268WAT     H228047   0.358   6.321   4.772
 9269WAT      O28048   3.931   7.680   0.990
 9269WAT     H128049   3.994   7.674   0.913
 9269WAT     H228050   3.837   7.682   0.956
 9270WAT      O28051   5.717   0.680   2.568
 9270WAT     H128052   5.799   0.664   2.622
 9270WAT     H228053   5.668   0.594   2.556
 9271WAT      O28054   8.611   6.046   5.683
 9271WAT     H128055   8.672   6.064   5.760
 9271WAT     H228056   8.666   6.020   5.603
 9272WAT      O28057   3.333   0.373   4.585
 9272WAT     H128058   3.397   0.317   4.637
 9272WAT     H228059   3.371   0.391   4.494
 9273WAT      O28060   7.681   2.528   2.176
 9273WAT     H128061   7.748   2.519   2.102
 9273WAT     H228062   7.602   2.578   2.142
 9274WAT      O28063   2.642   8.675   1.799
 9274WAT     H128064   2.704   8.723   1.861
 9274WAT     H228065   2.602   8.741   1.735
 9275WAT      O28066   1.561   0.939   0.137
 9275WAT     H128067   1.640   0.885   0.106
 9275WAT     H228068   1.594   1.023   0.180
 9276WAT      O28069   6.644   0.097   7.482
 9276WAT     H128070   6.646   0.123   7.385
 9276WAT     H228071   6.564   0.041   7.499
 9277WAT      O28072   6.026   4.697   8.868
 9277WAT     H128073   6.017   4.784   8.820
 9277WAT     H228074   6.119   4.687   8.902
 9278WAT      O28075   0.102   2.479   4.419
 9278WAT     H128076   0.021   2.428   4.389
 9278WAT     H228077   0.179   2.457   4.359
 9279WAT      O28078   4.158   0.051   9.810
 9279WAT     H128079   4.232   0.118   9.815
 9279WAT     H228080   4.076   0.088   9.854
 9280WAT      O28081   1.703   1.857   4.711
 9280WAT     H128082   1.614   1.822   4.680
 9280WAT     H228083   1.691   1.900   4.801
 9281WAT      O28084   0.925   5.070   6.721
 9281WAT     H128085   0.936   5.075   6.622
 9281WAT     H228086   0.828   5.079   6.745
 9282WAT      O28087   9.360   9.160   9.142
 9282WAT     H128088   9.447   9.210   9.149
 9282WAT     H228089   9.378   9.066   9.110
 9283WAT      O28090   3.400   7.991   4.472
 9283WAT     H128091   3.378   8.041   4.388
 9283WAT     H228092   3.433   8.055   4.542
 9284WAT      O28093   0.392   4.173   8.443
 9284WAT     H128094   0.396   4.272   8.455
 9284WAT     H228095   0.348   4.131   8.523
 9285WAT      O28096   8.881   0.861   3.273
 9285WAT     H128097   8.880   0.773   3.227
 9285WAT     H228098   8.919   0.931   3.212
 9286WAT      O28099   1.147   1.717   9.166
 9286WAT     H128100   1.127   1.634   9.218
 9286WAT     H228101   1.223   1.699   9.103
 9287WAT      O28102   3.893   0.783   8.429
 9287WAT     H128103   3.932   0.850   8.493
 9287WAT     H228104   3.882   0.695   8.475
 9288WAT      O28105   5.281   6.024   4.210
 9288WAT     H128106   5.374   6.025   4.246
 9288WAT     H228107   5.245   5.931   4.213
 9289WAT      O28108   5.125   3.222   1.011
 9289WAT     H128109   5.191   3.148   1.015
 9289WAT     H228110   5.088   3.239   1.102
 9290WAT      O28111   3.798   2.647   5.543
 9290WAT     H128112   3.867   2.598   5.488
 9290WAT     H228113   3.715   2.591   5.549
 9291WAT      O28114   0.999   7.690   8.285
 9291WAT     H128115   1.042   7.649   8.366
 9291WAT     H228116   1.016   7.632   8.205
 9292WAT      O28117   3.306   3.497   8.008
 9292WAT     H128118   3.300   3.451   8.097
 9292WAT     H228119   3.401   3.495   7.977
 9293WAT      O28120   1.164   8.317   4.737
 9293WAT     H128121   1.117   8.319   4.825
 9293WAT     H228122   1.229   8.241   4.735
 9294WAT      O28123   6.136   0.047   2.990
 9294WAT     H128124   6.133   0.126   3.051
 9294WAT     H228125   6.070   0.059   2.916
 9295WAT      O28126   5.755   3.962   9.603
 9295WAT     H128127   5.738   4.020   9.523
 9295WAT     H228128   5.741   4.015   9.686
 9296WAT      O28129   7.276   3.318   4.281
 9296WAT     H128130   7.304   3.239   4.335
 9296WAT     H228131   7.176   3.322   4.278
 9297WAT      O28132   4.383   2.999   3.201
 9297WAT     H128133   4.296   2.956   3.224
 9297WAT     H228134   4.395   3.082   3.255
 9298WAT      O28135   3.112   9.343   2.536
 9298WAT     H128136   3.020   9.312   2.559
 9298WAT     H228137   3.116   9.442   2.540
 9299WAT      O28138   9.073   6.855   8.961
 9299WAT     H128139   9.161   6.852   9.007
 9299WAT     H228140   9.055   6.948   8.929
 9300WAT      O28141   9.399   0.836   1.653
 9300WAT     H128142   9.401   0.866   1.557
 9300WAT     H228143   9.334   0.893   1.704
 9301WAT      O28144   3.763   2.040   9.686
 9301WAT     H128145   3.752   2.126   9.737
 9301WAT     H228146   3.860   2.021   9.672
 9302WAT      O28147   4.914   4.446   1.473
 9302WAT     H128148   4.986   4.426   1.540
 9302WAT     H228149   4.899   4.545   1.469
 9303WAT      O28150   3.146   2.699   3.014
 9303WAT     H128151   3.126   2.794   2.988
 9303WAT     H228152   3.110   2.681   3.105
 9304WAT      O28153   7.381   9.381   8.304
 9304WAT     H128154   7.353   9.466   8.349
 9304WAT     H228155   7.311   9.354   8.237
 9305WAT      O28156   6.861   6.866   9.363
 9305WAT     H128157   6.820   6.956   9.375
 9305WAT     H228158   6.912   6.842   9.446
 9306WAT      O28159   7.348   1.988   3.205
 9306WAT     H128160   7.426   2.046   3.183
 9306WAT     H228161   7.286   2.038   3.266
 9307WAT      O28162   8.583   6.596   4.135
 9307WAT     H128163   8.551   6.681   4.093
 9307WAT     H228164   8.580   6.604   4.234
 9308WAT      O28165   1.701   9.017   2.549
 9308WAT     H128166   1.608   9.043   2.573
 9308WAT     H228167   1.757   9.099   2.539
 9309WAT      O28168   9.839   7.373   2.509
 9309WAT     H128169   9.877   7.298   2.563
 9309WAT     H228170   9.750   7.400   2.547
 9310WAT      O28171   2.098   4.184   6.925
 9310WAT     H128172   2.017   4.170   6.869
 9310WAT     H228173   2.110   4.106   6.986
 9311WAT      O28174   9.019   9.297   1.820
 9311WAT     H128175   8.945   9.364   1.828
 9311WAT     H228176   8.982   9.205   1.830
 9312WAT      O28177   6.342   8.491   0.805
 9312WAT     H128178   6.381   8.409   0.764
 9312WAT     H228179   6.408   8.533   0.867
 9313WAT      O28180   9.078   6.304   4.953
 9313WAT     H128181   9.136   6.223   4.958
 9313WAT     H228182   9.092   6.360   5.034
 9314WAT      O28183   0.113   7.108   8.165
 9314WAT     H128184   0.212   7.116   8.169
 9314WAT     H228185   0.082   7.037   8.228
 9315WAT      O28186   3.787   9.655   4.815
 9315WAT     H128187   3.846   9.700   4.747
 9315WAT     H228188   3.786   9.557   4.798
 9316WAT      O28189   0.339   5.204   9.702
 9316WAT     H128190   0.241   5.200   9.682
 9316WAT     H228191   0.373   5.111   9.719
 9317WAT      O28192   0.752   3.615   5.509
 9317WAT     H128193   0.731   3.529   5.555
 9317WAT     H228194   0.830   3.602   5.448
 9318WAT      O28195   9.729   0.866   7.043
 9318WAT     H128196   9.762   0.820   7.125
 9318WAT     H228197   9.631   0.851   7.032
 9319WAT      O28198   8.188   5.756   2.585
 9319WAT     H128199   8.188   5.801   2.495
 9319WAT     H228200   8.279   5.764   2.626
 9320WAT      O28201   5.160   4.176   0.300
 9320WAT     H128202   5.192   4.229   0.379
 9320WAT     H228203   5.061   4.187   0.291
 9321WAT      O28204   1.281   9.274   8.687
 9321WAT     H128205   1.325   9.353   8.731
 9321WAT     H228206   1.251   9.300   8.595
 9322WAT      O28207   2.891   6.319   6.401
 9322WAT     H128208   2.810   6.374   6.419
 9322WAT     H228209   2.905   6.311   6.302
 9323WAT      O28210   5.773   1.963   3.774
 9323WAT     H128211   5.802   1.881   3.725
 9323WAT     H228212   5.726   1.937   3.858
 9324WAT      O28213   1.652   6.180   0.588
 9324WAT     H128214   1.604   6.221   0.511
 9324WAT     H228215   1.735   6.233   0.608
 9325WAT      O28216   1.294   2.095   4.558
 9325WAT     H128217   1.243   2.147   4.626
 9325WAT     H228218   1.388   2.127   4.555
 9326WAT      O28219   5.708   2.803   2.581
 9326WAT     H128220   5.711   2.712   2.623
 9326WAT     H228221   5.623   2.812   2.528
 9327WAT      O28222   1.333   9.016   2.828
 9327WAT     H128223   1.375   8.961   2.900
 9327WAT     H228224   1.324   9.110   2.860
 9328WAT      O28225   8.095   7.637   3.771
 9328WAT     H128226   8.192   7.615   3.761
 9328WAT     H228227   8.079   7.732   3.743
 9329WAT      O28228   0.649   7.364   7.236
 9329WAT     H128229   0.645   7.264   7.227
 9329WAT     H228230   0.556   7.400   7.242
 9330WAT      O28231   7.214   1.224   2.213
 9330WAT     H128232   7.242   1.227   2.118
 9330WAT     H228233   7.201   1.317   2.248
 9331WAT      O28234   6.823   4.885   0.757
 9331WAT     H128235   6.864   4.927   0.838
 9331WAT     H228236   6.727   4.865   0.774
 9332WAT      O28237   4.316   9.741   3.978
 9332WAT     H128238   4.316   9.841   3.981
 9332WAT     H228239   4.232   9.708   3.935
 9333WAT      O28240   0.752   4.829   0.784
 9333WAT     H128241   0.792   4.753   0.836
 9333WAT     H228242   0.734   4.905   0.846
 9334WAT      O28243   4.647   7.977   8.338
 9334WAT     H128244   4.727   7.924   8.310
 9334WAT     H228245   4.672   8.072   8.353
 9335WAT      O28246   2.800   7.942   2.887
 9335WAT     H128247   2.865   7.954   2.812
 9335WAT     H228248   2.842   7.887   2.959
 9336WAT      O28249   1.692   9.587   7.728
 9336WAT     H128250   1.638   9.657   7.774
 9336WAT     H228251   1.778   9.574   7.777
 9337WAT      O28252   5.312   8.674   2.668
 9337WAT     H128253   5.240   8.631   2.723
 9337WAT     H228254   5.278   8.758   2.626
 9338WAT      O28255   4.393   2.380   4.773
 9338WAT     H128256   4.492   2.378   4.784
 9338WAT     H228257   4.351   2.425   4.852
 9339WAT      O28258   5.203   1.294   7.837
 9339WAT     H128259   5.135   1.366   7.853
 9339WAT     H228260   5.248   1.310   7.749
 9340WAT      O28261   1.358   2.828   3.686
 9340WAT     H128262   1.286   2.837   3.617
 9340WAT     H228263   1.416   2.750   3.663
 9341WAT      O28264   4.032   2.917   4.315
 9341WAT     H128265   3.948   2.905   4.367
 9341WAT     H228266   4.108   2.936   4.377
 9342WAT      O28267   6.547   1.630   5.677
 9342WAT     H128268   6.574   1.724   5.655
 9342WAT     H228269   6.448   1.624   5.684
 9343WAT      O28270   4.844   7.079   3.393
 9343WAT     H128271   4.811   7.058   3.301
 9343WAT     H228272   4.940   7.109   3.388
 9344WAT      O28273   8.058   1.296   9.015
 9344WAT     H128274   8.080   1.392   9.029
 9344WAT     H228275   7.995   1.265   9.085
 9345WAT      O28276   7.154   6.074   8.115
 9345WAT     H128277   7.070   6.111   8.075
 9345WAT     H228278   7.134   5.993   8.169
 9346WAT      O28279   8.896   3.145   5.347
 9346WAT     H128280   8.954   3.139   5.266
 9346WAT     H228281   8.906   3.235   5.389
 9347WAT      O28282   4.423   8.758   6.214
 9347WAT     H128283   4.497   8.782   6.151
 9347WAT     H228284   4.388   8.667   6.191
 9348WAT      O28285   9.105   8.890   6.604
 9348WAT     H128286   9.092   8.826   6.529
 9348WAT     H228287   9.154   8.845   6.679
 9349WAT      O28288   6.331   1.958   1.161
 9349WAT     H128289   6.383   1.874   1.174
 9349WAT     H228290   6.359   2.001   1.075
 9350WAT      O28291   0.732   4.921   1.811
 9350WAT     H128292   0.695   4.943   1.902
 9350WAT     H228293   0.672   4.854   1.767
 9351WAT      O28294   8.534   7.770   0.293
 9351WAT     H128295   8.549   7.684   0.343
 9351WAT     H228296   8.597   7.774   0.215
 9352WAT      O28297   4.333   9.159   0.119
 9352WAT     H128298   4.423   9.145   0.078
 9352WAT     H228299   4.300   9.251   0.096
 9353WAT      O28300   4.553   0.100   6.544
 9353WAT     H128301   4.598   0.120   6.632
 9353WAT     H228302   4.455   0.113   6.553
 9354WAT      O28303   2.344   4.645   7.858
 9354WAT     H128304   2.439   4.614   7.857
 9354WAT     H228305   2.292   4.597   7.788
 9355WAT      O28306   6.062   9.807   6.848
 9355WAT     H128307   6.099   9.820   6.757
 9355WAT     H228308   6.131   9.763   6.906
 9356WAT      O28309   0.201   2.859   5.630
 9356WAT     H128310   0.184   2.953   5.599
 9356WAT     H228311   0.281   2.822   5.583
 9357WAT      O28312   1.638   8.687   5.371
 9357WAT     H128313   1.704   8.761   5.361
 9357WAT     H228314   1.605   8.684   5.465
 9358WAT      O28315   6.324   0.730   2.299
 9358WAT     H128316   6.321   0.786   2.382
 9358WAT     H228317   6.315   0.790   2.219
 9359WAT      O28318   5.445   8.332   0.097
 9359WAT     H128319   5.504   8.253   0.082
 9359WAT     H228320   5.501   8.409   0.129
 9360WAT      O28321   1.165   7.987   7.502
 9360WAT     H128322   1.205   8.066   7.457
 9360WAT     H228323   1.068   7.979   7.476
 9361WAT      O28324   3.223   0.197   1.046
 9361WAT     H128325   3.203   0.175   1.142
 9361WAT     H228326   3.204   0.116   0.989
 9362WAT      O28327   9.143   7.167   5.820
 9362WAT     H128328   9.095   7.099   5.875
 9362WAT     H228329   9.228   7.193   5.865
 9363WAT      O28330   9.634   8.616   9.336
 9363WAT     H128331   9.640   8.715   9.332
 9363WAT     H228332   9.605   8.581   9.246
 9364WAT      O28333   5.808   4.747   7.536
 9364WAT     H128334   5.791   4.839   7.571
 9364WAT     H228335   5.905   4.737   7.514
 9365WAT      O28336   7.127   5.580   5.724
 9365WAT     H128337   7.096   5.518   5.651
 9365WAT     H228338   7.086   5.552   5.810
 9366WAT      O28339   9.311   8.086   4.936
 9366WAT     H128340   9.402   8.073   4.974
 9366WAT     H228341   9.284   8.182   4.946
 9367WAT      O28342   7.932   5.760   1.781
 9367WAT     H128343   7.942   5.858   1.764
 9367WAT     H228344   7.851   5.744   1.836
 9368WAT      O28345   7.812   1.228   2.091
 9368WAT     H128346   7.791   1.244   1.995
 9368WAT     H228347   7.906   1.256   2.110
 9369WAT      O28348   8.325   4.376   3.014
 9369WAT     H128349   8.252   4.309   3.002
 9369WAT     H228350   8.337   4.428   2.929
 9370WAT      O28351   2.751   7.419   5.379
 9370WAT     H128352   2.774   7.494   5.442
 9370WAT     H228353   2.708   7.456   5.297
 9371WAT      O28354   1.889   3.949   3.183
 9371WAT     H128355   1.792   3.958   3.162
 9371WAT     H228356   1.933   4.039   3.178
 9372WAT      O28357   0.141   5.352   7.650
 9372WAT     H128358   0.127   5.402   7.736
 9372WAT     H228359   0.239   5.343   7.632
 9373WAT      O28360   4.017   9.764   2.361
 9373WAT     H128361   3.938   9.728   2.312
 9373WAT     H228362   4.066   9.689   2.406
 9374WAT      O28363   8.204   7.665   1.553
 9374WAT     H128364   8.174   7.720   1.632
 9374WAT     H228365   8.289   7.704   1.516
 9375WAT      O28366   8.843   0.094   5.518
 9375WAT     H128367   8.825   0.014   5.575
 9375WAT     H228368   8.790   0.171   5.551
 9376WAT      O28369   2.823   5.734   5.268
 9376WAT     H128370   2.748   5.738   5.334
 9376WAT     H228371   2.886   5.661   5.294
 9377WAT      O28372   1.816   9.331   0.981
 9377WAT     H128373   1.898   9.275   0.973
 9377WAT     H228374   1.764   9.304   1.062
 9378WAT      O28375   3.517   4.432   0.211
 9378WAT     H128376   3.600   4.380   0.232
 9378WAT     H228377   3.542   4.514   0.158
 9379WAT      O28378   2.462   7.673   0.127
 9379WAT     H128379   2.525   7.599   0.105
 9379WAT     H228380   2.393   7.640   0.192
 9380WAT      O28381   5.272   1.098   7.299
 9380WAT     H128382   5.246   1.033   7.228
 9380WAT     H228383   5.210   1.176   7.297
 9381WAT      O28384   1.871   7.527   9.351
 9381WAT     H128385   1.790   7.581   9.373
 9381WAT     H228386   1.952   7.571   9.391
 9382WAT      O28387   0.350   8.952   5.711
 9382WAT     H128388   0.440   8.926   5.678
 9382WAT     H228389   0.344   9.052   5.715
 9383WAT      O28390   3.626   6.246   6.729
 9383WAT     H128391   3.593   6.165   6.680
 9383WAT     H228392   3.562   6.322   6.716
 9384WAT      O28393   3.725   2.595   1.110
 9384WAT     H128394   3.822   2.585   1.134
 9384WAT     H228395   3.669   2.567   1.188
 9385WAT      O28396   5.743   5.903   6.513
 9385WAT     H128397   5.696   5.845   6.579
 9385WAT     H228398   5.687   5.911   6.430
 9386WAT      O28399   9.352   3.214   1.202
 9386WAT     H128400   9.289   3.175   1.135
 9386WAT     H228401   9.301   3.243   1.283
 9387WAT      O28402   5.965   1.158   3.658
 9387WAT     H128403   6.032   1.143   3.731
 9387WAT     H228404   5.985   1.100   3.580
 9388WAT      O28405   3.844   8.516   0.737
 9388WAT     H128406   3.909   8.505   0.662
 9388WAT     H228407   3.892   8.503   0.824
 9389WAT      O28408   4.487   8.995   0.440
 9389WAT     H128409   4.423   9.060   0.398
 9389WAT     H228410   4.497   9.016   0.537
 9390WAT      O28411   3.361   6.023   5.979
 9390WAT     H128412   3.397   6.074   6.057
 9390WAT     H228413   3.261   6.027   5.980
 9391WAT      O28414   7.297   6.075   0.153
 9391WAT     H128415   7.206   6.090   0.114
 9391WAT     H228416   7.307   5.978   0.177
 9392WAT      O28417   5.582   1.030   8.772
 9392WAT     H128418   5.681   1.039   8.764
 9392WAT     H228419   5.556   0.934   8.755
 9393WAT      O28420   3.191   2.821   1.400
 9393WAT     H128421   3.289   2.803   1.410
 9393WAT     H228422   3.141   2.778   1.476
 9394WAT      O28423   3.163   4.103   0.757
 9394WAT     H128424   3.079   4.061   0.720
 9394WAT     H228425   3.242   4.046   0.734
 9395WAT      O28426   9.043   8.725   6.402
 9395WAT     H128427   9.127   8.671   6.395
 9395WAT     H228428   8.976   8.675   6.456
 9396WAT      O28429   7.304   9.572   4.569
 9396WAT     H128430   7.352   9.499   4.521
 9396WAT     H228431   7.235   9.612   4.508
 9397WAT      O28432   9.555   6.326   4.204
 9397WAT     H128433   9.511   6.385   4.271
 9397WAT     H228434   9.502   6.327   4.119
 9398WAT      O28435   1.415   9.015   3.453
 9398WAT     H128436   1.365   9.012   3.366
 9398WAT     H228437   1.383   8.942   3.513
 9399WAT      O28438   7.021   3.188   5.901
 9399WAT     H128439   7.030   3.096   5.940
 9399WAT     H228440   7.055   3.189   5.807
 9400WAT      O28441   6.547   7.470   2.011
 9400WAT     H128442   6.596   7.396   2.058
 9400WAT     H228443   6.460   7.436   1.976
 9401WAT      O28444   6.450   5.607   6.278
 9401WAT     H128445   6.387   5.600   6.355
 9401WAT     H228446   6.410   5.664   6.206
 9402WAT      O28447   2.383   4.179   0.134
 9402WAT     H128448   2.391   4.084   0.165
 9402WAT     H228449   2.427   4.189   0.045
 9403WAT      O28450   5.212   2.454   3.215
 9403WAT     H128451   5.221   2.382   3.147
 9403WAT     H228452   5.116   2.465   3.239
 9404WAT      O28453   9.181   2.055   4.026
 9404WAT     H128454   9.265   2.103   4.050
 9404WAT     H228455   9.198   1.957   4.017
 9405WAT      O28456   3.512   4.285   1.151
 9405WAT     H128457   3.595   4.292   1.096
 9405WAT     H228458   3.466   4.373   1.153
 9406WAT      O28459   0.849   0.109   7.247
 9406WAT     H128460   0.841   0.139   7.342
 9406WAT     H228461   0.934   0.057   7.236
 9407WAT      O28462   3.989   4.736   2.244
 9407WAT     H128463   3.895   4.705   2.226
 9407WAT     H228464   3.991   4.791   2.327
 9408WAT      O28465   3.193   1.290   4.730
 9408WAT     H128466   3.258   1.223   4.695
 9408WAT     H228467   3.191   1.369   4.669
 9409WAT      O28468   3.242   5.977   2.264
 9409WAT     H128469   3.177   5.995   2.338
 9409WAT     H228470   3.310   6.051   2.260
 9410WAT      O28471   6.008   9.238   6.262
 9410WAT     H128472   6.050   9.304   6.200
 9410WAT     H228473   5.909   9.242   6.254
 9411WAT      O28474   4.837   7.505   6.604
 9411WAT     H128475   4.756   7.498   6.663
 9411WAT     H228476   4.812   7.552   6.520
 9412WAT      O28477   6.348   7.086   3.657
 9412WAT     H128478   6.250   7.072   3.671
 9412WAT     H228479   6.386   7.133   3.737
 9413WAT      O28480   7.914   7.828   3.412
 9413WAT     H128481   7.817   7.806   3.401
 9413WAT     H228482   7.967   7.782   3.340
 9414WAT      O28483   8.614   4.055   0.628
 9414WAT     H128484   8.676   4.129   0.651
 9414WAT     H228485   8.523   4.092   0.607
 9415WAT      O28486   1.237   6.360   0.701
 9415WAT     H128487   1.187   6.394   0.621
 9415WAT     H228488   1.224   6.423   0.777
 9416WAT      O28489   4.074   5.445   0.210
 9416WAT     H128490   4.100   5.541   0.212
 9416WAT     H228491   3.974   5.438   0.208
 9417WAT      O28492   5.916   9.177   7.304
 9417WAT     H128493   5.826   9.138   7.321
 9417WAT     H228494   5.955   9.210   7.390
 9418WAT      O28495   3.775   1.542   2.537
 9418WAT     H128496   3.822   1.630   2.541
 9418WAT     H228497   3.826   1.474   2.589
 9419WAT      O28498   6.276   4.190   5.490
 9419WAT     H128499   6.270   4.184   5.590
 9419WAT     H228500   6.184   4.189   5.451
 9420WAT      O28501   1.098   0.853   4.047
 9420WAT     H128502   1.019   0.796   4.071
 9420WAT     H228503   1.073   0.950   4.056
 9421WAT      O28504   4.754   4.756   0.314
 9421WAT     H128505   4.822   4.803   0.258
 9421WAT     H228506   4.695   4.701   0.256
 9422WAT      O28507   6.901   6.117   6.767
 9422WAT     H128508   6.872   6.121   6.863
 9422WAT     H228509   6.852   6.044   6.720
 9423WAT      O28510   9.014   4.652   4.596
 9423WAT     H128511   8.956   4.720   4.550
 9423WAT     H228512   9.044   4.687   4.684
 9424WAT      O28513   5.963   7.281   1.191
 9424WAT     H128514   5.931   7.215   1.259
 9424WAT     H228515   6.010   7.232   1.117
 9425WAT      O28516   9.430   4.837   0.745
 9425WAT     H128517   9.391   4.929   0.753
 9425WAT     H228518   9.451   4.817   0.649
 9426WAT      O28519   9.303   3.902   5.328
 9426WAT     H128520   9.228   3.966   5.340
 9426WAT     H228521   9.390   3.952   5.329
 9427WAT      O28522   5.044   1.702   9.770
 9427WAT     H128523   5.117   1.633   9.770
 9427WAT     H228524   5.017   1.721   9.864
 9428WAT      O28525   0.923   4.364   7.653
 9428WAT     H128526   0.986   4.420   7.708
 9428WAT     H228527   0.932   4.388   7.557
 9429WAT      O28528   4.665   2.593   3.357
 9429WAT     H128529   4.722   2.593   3.275
 9429WAT     H228530   4.578   2.638   3.338
 9430WAT      O28531   1.955   4.490   7.121
 9430WAT     H128532   1.870   4.498   7.174
 9430WAT     H228533   2.027   4.543   7.165
 9431WAT      O28534   8.594   5.800  -0.002
 9431WAT     H128535   8.608   5.871   0.067
 9431WAT     H228536   8.564   5.715   0.042
 9432WAT      O28537   2.502   4.033   2.147
 9432WAT     H128538   2.507   3.960   2.080
 9432WAT     H228539   2.469   3.997   2.234
 9433WAT      O28540   7.185   9.443   1.681
 9433WAT     H128541   7.102   9.393   1.656
 9433WAT     H228542   7.265   9.386   1.662
 9434WAT      O28543   4.903   0.453   5.890
 9434WAT     H128544   4.899   0.403   5.803
 9434WAT     H228545   4.862   0.543   5.878
 9435WAT      O28546   7.582   8.100   2.982
 9435WAT     H128547   7.574   8.137   2.889
 9435WAT     H228548   7.492   8.078   3.017
 9436WAT      O28549   3.230   0.500   4.037
 9436WAT     H128550   3.224   0.458   3.946
 9436WAT     H228551   3.167   0.454   4.099
 9437WAT      O28552   9.042   8.555   5.013
 9437WAT     H128553   9.054   8.611   5.095
 9437WAT     H228554   9.030   8.613   4.933
 9438WAT      O28555   6.083   6.479   0.832
 9438WAT     H128556   6.089   6.553   0.899
 9438WAT     H228557   6.092   6.391   0.880
 9439WAT      O28558   7.818   9.601   4.553
 9439WAT     H128559   7.895   9.562   4.503
 9439WAT     H228560   7.745   9.533   4.559
 9440WAT      O28561   2.595   6.004   5.377
 9440WAT     H128562   2.541   5.998   5.461
 9440WAT     H228563   2.546   5.958   5.303
 9441WAT      O28564   5.051   6.180   3.871
 9441WAT     H128565   5.143   6.209   3.895
 9441WAT     H228566   5.043   6.174   3.771
 9442WAT      O28567   7.791   0.502   3.530
 9442WAT     H128568   7.799   0.414   3.483
 9442WAT     H228569   7.695   0.521   3.548
 9443WAT      O28570   5.447   3.970   9.648
 9443WAT     H128571   5.527   4.024   9.673
 9443WAT     H228572   5.401   3.938   9.731
 9444WAT      O28573   2.867   6.308   2.708
 9444WAT     H128574   2.771   6.326   2.687
 9444WAT     H228575   2.890   6.349   2.796
 9445WAT      O28576   6.053   7.347   3.347
 9445WAT     H128577   6.101   7.354   3.259
 9445WAT     H228578   6.074   7.259   3.389
 9446WAT      O28579   7.748   7.297   5.909
 9446WAT     H128580   7.690   7.289   5.991
 9446WAT     H228581   7.692   7.325   5.831
 9447WAT      O28582   4.211   2.232   5.226
 9447WAT     H128583   4.123   2.207   5.267
 9447WAT     H228584   4.214   2.331   5.212
 9448WAT      O28585   5.976   1.788   2.890
 9448WAT     H128586   5.893   1.820   2.935
 9448WAT     H228587   6.046   1.860   2.895
 9449WAT      O28588   5.278   4.112   5.468
 9449WAT     H128589   5.364   4.151   5.437
 9449WAT     H228590   5.259   4.140   5.562
 9450WAT      O28591   7.147   3.352   8.096
 9450WAT     H128592   7.230   3.408   8.089
 9450WAT     H228593   7.086   3.391   8.165
 9451WAT      O28594   3.573   2.829   6.810
 9451WAT     H128595   3.591   2.782   6.723
 9451WAT     H228596   3.650   2.815   6.872
 9452WAT      O28597   6.624   8.407   3.610
 9452WAT     H128598   6.548   8.467   3.635
 9452WAT     H228599   6.594   8.312   3.614
 9453WAT      O28600   5.357   6.150   0.479
 9453WAT     H128601   5.420   6.137   0.402
 9453WAT     H228602   5.360   6.071   0.540
 9454WAT      O28603   1.713   6.116   5.216
 9454WAT     H128604   1.769   6.036   5.195
 9454WAT     H228605   1.686   6.113   5.312
 9455WAT      O28606   0.611   0.679   6.993
 9455WAT     H128607   0.672   0.758   6.989
 9455WAT     H228608   0.517   0.711   7.006
 9456WAT      O28609   6.808   6.645   1.220
 9456WAT     H128610   6.823   6.716   1.288
 9456WAT     H228611   6.793   6.557   1.266
 9457WAT      O28612   1.490   2.979   6.190
 9457WAT     H128613   1.539   3.016   6.111
 9457WAT     H228614   1.527   3.018   6.274
 9458WAT      O28615   6.336   3.473   5.269
 9458WAT     H128616   6.251   3.421   5.262
 9458WAT     H228617   6.401   3.424   5.328
 9459WAT      O28618   3.984   7.465   4.188
 9459WAT     H128619   4.047   7.388   4.179
 9459WAT     H228620   4.002   7.513   4.274
 9460WAT      O28621   3.935   2.049   1.763
 9460WAT     H128622   3.840   2.033   1.788
 9460WAT     H228623   3.984   2.086   1.842
 9461WAT      O28624   8.397   7.193   7.396
 9461WAT     H128625   8.490   7.161   7.414
 9461WAT     H228626   8.336   7.162   7.468
 9462WAT      O28627   5.365   4.577   8.870
 9462WAT     H128628   5.350   4.618   8.960
 9462WAT     H228629   5.286   4.595   8.812
 9463WAT      O28630   5.139   2.574   4.499
 9463WAT     H128631   5.164   2.482   4.470
 9463WAT     H228632   5.039   2.580   4.509
 9464WAT      O28633   1.609   7.603   4.550
 9464WAT     H128634   1.678   7.532   4.565
 9464WAT     H228635   1.643   7.691   4.582
 9465WAT      O28636   2.792   7.469   4.915
 9465WAT     H128637   2.817   7.565   4.907
 9465WAT     H228638   2.772   7.432   4.824
 9466WAT      O28639   2.891   6.851   4.611
 9466WAT     H128640   2.837   6.770   4.587
 9466WAT     H228641   2.830   6.927   4.633
 9467WAT      O28642   2.420   8.933   2.931
 9467WAT     H128643   2.411   8.934   3.031
 9467WAT     H228644   2.358   8.866   2.892
 9468WAT      O28645   2.959   0.823   8.434
 9468WAT     H128646   3.008   0.909   8.447
 9468WAT     H228647   2.869   0.829   8.477
 9469WAT      O28648   1.746   4.676   4.486
 9469WAT     H128649   1.737   4.697   4.583
 9469WAT     H228650   1.700   4.745   4.431
 9470WAT      O28651   3.739   7.377   7.235
 9470WAT     H128652   3.738   7.280   7.257
 9470WAT     H228653   3.783   7.390   7.146
 9471WAT      O28654   2.138   7.141   0.600
 9471WAT     H128655   2.206   7.131   0.527
 9471WAT     H228656   2.078   7.218   0.580
 9472WAT      O28657   6.982   8.268   0.688
 9472WAT     H128658   6.903   8.210   0.666
 9472WAT     H228659   7.037   8.223   0.758
 9473WAT      O28660   8.554   6.002   8.642
 9473WAT     H128661   8.608   5.941   8.700
 9473WAT     H228662   8.573   5.983   8.546
 9474WAT      O28663   4.291   0.904   0.634
 9474WAT     H128664   4.296   0.979   0.700
 9474WAT     H228665   4.373   0.847   0.642
 9475WAT      O28666   2.800   5.682   2.640
 9475WAT     H128667   2.768   5.672   2.546
 9475WAT     H228668   2.900   5.687   2.640
 9476WAT      O28669   2.280   0.093   9.597
 9476WAT     H128670   2.203   0.029   9.594
 9476WAT     H228671   2.268   0.163   9.527
 9477WAT      O28672   6.314   8.449   5.809
 9477WAT     H128673   6.282   8.488   5.722
 9477WAT     H228674   6.240   8.395   5.851
 9478WAT      O28675   5.282   1.313   9.574
 9478WAT     H128676   5.349   1.367   9.523
 9478WAT     H228677   5.207   1.287   9.513
 9479WAT      O28678   3.568   2.400   3.546
 9479WAT     H128679   3.617   2.339   3.484
 9479WAT     H228680   3.509   2.347   3.606
 9480WAT      O28681   5.401   1.495   3.571
 9480WAT     H128682   5.456   1.415   3.594
 9480WAT     H228683   5.401   1.558   3.649
 9481WAT      O28684   4.422   5.936   9.135
 9481WAT     H128685   4.324   5.934   9.112
 9481WAT     H228686   4.441   5.868   9.205
 9482WAT      O28687   5.110   2.721   0.766
 9482WAT     H128688   5.167   2.653   0.811
 9482WAT     H228689   5.048   2.762   0.833
 9483WAT      O28690   3.276   9.367   5.765
 9483WAT     H128691   3.269   9.465   5.786
 9483WAT     H228692   3.185   9.328   5.755
 9484WAT      O28693   4.629   4.942   0.832
 9484WAT     H128694   4.602   5.021   0.777
 9484WAT     H228695   4.578   4.861   0.801
 9485WAT      O28696   2.054   6.432   0.428
 9485WAT     H128697   1.970   6.480   0.405
 9485WAT     H228698   2.128   6.498   0.441
 9486WAT      O28699   1.668   1.946   2.063
 9486WAT     H128700   1.584   1.893   2.078
 9486WAT     H228701   1.736   1.922   2.133
 9487WAT      O28702   2.688   4.703   5.941
 9487WAT     H128703   2.768   4.647   5.921
 9487WAT     H228704   2.693   4.788   5.888
 9488WAT      O28705   4.984   2.873   4.500
 9488WAT     H128706   5.036   2.956   4.522
 9488WAT     H228707   4.927   2.889   4.420
 9489WAT      O28708   7.144   1.821   6.085
 9489WAT     H128709   7.141   1.792   5.989
 9489WAT     H228710   7.186   1.750   6.141
 9490WAT      O28711   8.839   3.882   2.556
 9490WAT     H128712   8.927   3.878   2.603
 9490WAT     H228713   8.847   3.835   2.468
 9491WAT      O28714   0.685   9.348   5.040
 9491WAT     H128715   0.759   9.289   5.072
 9491WAT     H228716   0.704   9.442   5.064
 9492WAT      O28717   3.446   6.269   4.369
 9492WAT     H128718   3.348   6.254   4.380
 9492WAT     H228719   3.474   6.243   4.277
 9493WAT      O28720   2.732   1.695   1.626
 9493WAT     H128721   2.651   1.637   1.636
 9493WAT     H228722   2.773   1.711   1.716
 9494WAT      O28723   4.311   9.588   7.942
 9494WAT     H128724   4.383   9.653   7.965
 9494WAT     H228725   4.341   9.496   7.966
 9495WAT      O28726   5.086   2.301   1.299
 9495WAT     H128727   5.181   2.273   1.282
 9495WAT     H228728   5.076   2.327   1.395
 9496WAT      O28729   7.257   3.159   6.321
 9496WAT     H128730   7.224   3.188   6.231
 9496WAT     H228731   7.238   3.230   6.389
 9497WAT      O28732   7.973   0.729   6.930
 9497WAT     H128733   7.998   0.756   7.023
 9497WAT     H228734   7.925   0.641   6.932
 9498WAT      O28735   2.171   3.138   0.969
 9498WAT     H128736   2.245   3.095   1.020
 9498WAT     H228737   2.169   3.101   0.876
 9499WAT      O28738   1.886   3.099   4.738
 9499WAT     H128739   1.900   3.067   4.645
 9499WAT     H228740   1.863   3.196   4.737
 9500WAT      O28741   1.466   9.315   4.568
 9500WAT     H128742   1.448   9.399   4.518
 9500WAT     H228743   1.523   9.254   4.512
 9501WAT      O28744   8.275   5.785   0.039
 9501WAT     H128745   8.258   5.884   0.041
 9501WAT     H228746   8.309   5.759  -0.051
 9502WAT      O28747   4.243   6.042   1.977
 9502WAT     H128748   4.342   6.040   1.966
 9502WAT     H228749   4.217   5.987   2.057
 9503WAT      O28750   7.998   4.708   7.821
 9503WAT     H128751   7.918   4.736   7.875
 9503WAT     H228752   8.080   4.748   7.861
 9504WAT      O28753   6.024   7.242   1.573
 9504WAT     H128754   5.993   7.334   1.548
 9504WAT     H228755   5.979   7.213   1.657
 9505WAT      O28756   7.622   0.878   0.259
 9505WAT     H128757   7.685   0.944   0.218
 9505WAT     H228758   7.649   0.860   0.354
 9506WAT      O28759   9.025   9.750   9.230
 9506WAT     H128760   9.116   9.716   9.208
 9506WAT     H228761   8.982   9.691   9.298
 9507WAT      O28762   9.518   6.862   0.515
 9507WAT     H128763   9.610   6.839   0.483
 9507WAT     H228764   9.451   6.838   0.445
 9508WAT      O28765   4.705   2.097   9.727
 9508WAT     H128766   4.675   2.192   9.731
 9508WAT     H228767   4.642   2.040   9.779
 9509WAT      O28768   2.386   5.487   0.762
 9509WAT     H128769   2.462   5.548   0.741
 9509WAT     H228770   2.301   5.527   0.728
 9510WAT      O28771   0.285   6.765   6.155
 9510WAT     H128772   0.357   6.825   6.118
 9510WAT     H228773   0.259   6.797   6.245
 9511WAT      O28774   7.836   1.047   5.629
 9511WAT     H128775   7.787   1.129   5.599
 9511WAT     H228776   7.793   1.012   5.712
 9512WAT      O28777   7.207   0.118   5.338
 9512WAT     H128778   7.156   0.101   5.254
 9512WAT     H228779   7.197   0.214   5.366
 9513WAT      O28780   4.309   1.664   5.384
 9513WAT     H128781   4.274   1.736   5.445
 9513WAT     H228782   4.374   1.607   5.434
 9514WAT      O28783   8.971   3.782   4.926
 9514WAT     H128784   8.880   3.760   4.890
 9514WAT     H228785   9.030   3.702   4.916
 9515WAT      O28786   2.975   3.517   5.644
 9515WAT     H128787   3.046   3.518   5.715
 9515WAT     H228788   2.965   3.608   5.606
 9516WAT      O28789   1.825   7.121   1.905
 9516WAT     H128790   1.744   7.109   1.848
 9516WAT     H228791   1.805   7.095   1.999
 9517WAT      O28792   0.095   0.096   9.612
 9517WAT     H128793   0.145   0.010   9.620
 9517WAT     H228794   0.104   0.147   9.698
 9518WAT      O28795   3.566   9.384   6.955
 9518WAT     H128796   3.648   9.331   6.935
 9518WAT     H228797   3.492   9.322   6.982
 9519WAT      O28798   6.174   3.628   1.842
 9519WAT     H128799   6.085   3.637   1.797
 9519WAT     H228800   6.166   3.566   1.919
 9520WAT      O28801   4.418   0.956   5.342
 9520WAT     H128802   4.418   0.883   5.410
 9520WAT     H228803   4.466   1.036   5.379
 9521WAT      O28804   8.466   6.998   7.145
 9521WAT     H128805   8.461   6.948   7.231
 9521WAT     H228806   8.510   7.087   7.160
 9522WAT      O28807   3.386   1.215   3.826
 9522WAT     H128808   3.298   1.181   3.857
 9522WAT     H228809   3.410   1.298   3.878
 9523WAT      O28810   6.139   2.225   8.695
 9523WAT     H128811   6.177   2.211   8.786
 9523WAT     H228812   6.083   2.146   8.669
 9524WAT      O28813   1.888   9.028   1.402
 9524WAT     H128814   1.845   8.951   1.356
 9524WAT     H228815   1.921   9.000   1.493
 9525WAT      O28816   0.612   6.281   1.981
 9525WAT     H128817   0.579   6.375   1.968
 9525WAT     H228818   0.625   6.238   1.891
 9526WAT      O28819   0.026   9.394   6.869
 9526WAT     H128820   0.122   9.374   6.892
 9526WAT     H228821  -0.009   9.465   6.930
 9527WAT      O28822   4.984   3.599   4.452
 9527WAT     H128823   4.954   3.694   4.460
 9527WAT     H228824   4.912   3.545   4.407
 9528WAT      O28825   4.626   6.895   9.718
 9528WAT     H128826   4.541   6.901   9.665
 9528WAT     H228827   4.621   6.818   9.781
 9529WAT      O28828   1.310   9.451   1.838
 9529WAT     H128829   1.240   9.516   1.810
 9529WAT     H228830   1.389   9.458   1.776
 9530WAT      O28831   1.058   4.628   0.324
 9530WAT     H128832   0.962   4.657   0.322
 9530WAT     H228833   1.065   4.541   0.373
 9531WAT      O28834   9.537   3.661   2.234
 9531WAT     H128835   9.461   3.724   2.252
 9531WAT     H228836   9.587   3.690   2.153
 9532WAT      O28837   7.654   2.454   2.994
 9532WAT     H128838   7.702   2.535   2.960
 9532WAT     H228839   7.721   2.385   3.020
 9533WAT      O28840   6.176   7.063   6.170
 9533WAT     H128841   6.182   6.968   6.202
 9533WAT     H228842   6.171   7.125   6.249
 9534WAT      O28843   2.318   3.520   5.903
 9534WAT     H128844   2.355   3.558   5.988
 9534WAT     H228845   2.222   3.496   5.916
 9535WAT      O28846   6.879   5.702   9.606
 9535WAT     H128847   6.789   5.730   9.638
 9535WAT     H228848   6.882   5.602   9.599
 9536WAT      O28849   9.807   3.767   8.008
 9536WAT     H128850   9.850   3.818   8.082
 9536WAT     H228851   9.866   3.768   7.927
 9537WAT      O28852   5.468   2.335   4.462
 9537WAT     H128853   5.526   2.371   4.535
 9537WAT     H228854   5.493   2.378   4.375
 9538WAT      O28855   4.360   5.374   2.639
 9538WAT     H128856   4.455   5.404   2.628
 9538WAT     H228857   4.353   5.277   2.618
 9539WAT      O28858   2.356   8.468   5.272
 9539WAT     H128859   2.384   8.500   5.363
 9539WAT     H228860   2.365   8.369   5.267
 9540WAT      O28861   4.931   6.698   0.522
 9540WAT     H128862   4.975   6.625   0.573
 9540WAT     H228863   4.874   6.753   0.583
 9541WAT      O28864   7.018   5.616   0.598
 9541WAT     H128865   6.954   5.676   0.647
 9541WAT     H228866   7.051   5.662   0.516
 9542WAT      O28867   4.513   2.394   1.057
 9542WAT     H128868   4.502   2.471   0.994
 9542WAT     H228869   4.588   2.336   1.025
 9543WAT      O28870   9.653   5.188   0.269
 9543WAT     H128871   9.627   5.187   0.366
 9543WAT     H228872   9.663   5.095   0.236
 9544WAT      O28873   0.212   1.266   2.934
 9544WAT     H128874   0.180   1.172   2.921
 9544WAT     H228875   0.207   1.290   3.031
 9545WAT      O28876   8.733   2.270   0.561
 9545WAT     H128877   8.737   2.280   0.462
 9545WAT     H228878   8.637   2.268   0.590
 9546WAT      O28879   4.729   0.708   7.349
 9546WAT     H128880   4.689   0.762   7.422
 9546WAT     H228881   4.753   0.617   7.383
 9547WAT      O28882   7.509   5.135   7.092
 9547WAT     H128883   7.598   5.155   7.051
 9547WAT     H228884   7.501   5.185   7.178
 9548WAT      O28885   4.613   4.302   4.364
 9548WAT     H128886   4.599   4.401   4.353
 9548WAT     H228887   4.524   4.257   4.369
 9549WAT      O28888   8.026   5.087   4.460
 9549WAT     H128889   7.942   5.039   4.434
 9549WAT     H228890   8.029   5.176   4.416
 9550WAT      O28891   0.003   3.567   6.220
 9550WAT     H128892   0.024   3.473   6.247
 9550WAT     H228893   0.033   3.630   6.292
 9551WAT      O28894   7.869   5.358   3.041
 9551WAT     H128895   7.940   5.292   3.017
 9551WAT     H228896   7.819   5.384   2.959
 9552WAT      O28897   4.021   7.134   1.964
 9552WAT     H128898   4.026   7.042   1.926
 9552WAT     H228899   4.098   7.188   1.931
 9553WAT      O28900   8.537   1.359   2.613
 9553WAT     H128901   8.547   1.382   2.710
 9553WAT     H228902   8.527   1.260   2.603
 9554WAT      O28903   2.578   5.270   2.734
 9554WAT     H128904   2.660   5.319   2.763
 9554WAT     H228905   2.585   5.174   2.760
 9555WAT      O28906   5.377   9.825   5.619
 9555WAT     H128907   5.325   9.907   5.642
 9555WAT     H228908   5.331   9.744   5.655
 9556WAT      O28909   6.030   1.455   4.433
 9556WAT     H128910   6.117   1.503   4.418
 9556WAT     H228911   6.013   1.393   4.356
 9557WAT      O28912   3.029   8.336   6.328
 9557WAT     H128913   2.948   8.387   6.298
 9557WAT     H228914   3.107   8.362   6.271
 9558WAT      O28915   1.418   9.076   2.554
 9558WAT     H128916   1.372   9.049   2.639
 9558WAT     H228917   1.390   9.169   2.530
 9559WAT      O28918   5.806   6.986   7.348
 9559WAT     H128919   5.904   6.992   7.329
 9559WAT     H228920   5.763   6.919   7.288
 9560WAT      O28921   1.994   3.900   7.100
 9560WAT     H128922   2.079   3.941   7.133
 9560WAT     H228923   2.012   3.806   7.071
 9561WAT      O28924   1.274   3.112   7.728
 9561WAT     H128925   1.366   3.131   7.692
 9561WAT     H228926   1.279   3.104   7.828
 9562WAT      O28927   6.638   8.326   6.073
 9562WAT     H128928   6.619   8.416   6.113
 9562WAT     H228929   6.718   8.286   6.118
 9563WAT      O28930   4.048   5.350   1.673
 9563WAT     H128931   4.025   5.353   1.576
 9563WAT     H228932   4.143   5.377   1.686
 9564WAT      O28933   6.296   7.699   7.062
 9564WAT     H128934   6.363   7.773   7.070
 9564WAT     H228935   6.204   7.738   7.065
 9565WAT      O28936   4.339   6.951   8.708
 9565WAT     H128937   4.358   7.025   8.773
 9565WAT     H228938   4.424   6.903   8.686
 9566WAT      O28939   7.686   6.237   1.431
 9566WAT     H128940   7.696   6.304   1.356
 9566WAT     H228941   7.745   6.264   1.507
 9567WAT      O28942   1.255   5.079   1.300
 9567WAT     H128943   1.234   5.163   1.250
 9567WAT     H228944   1.337   5.093   1.356
 9568WAT      O28945   8.027   4.710   3.434
 9568WAT     H128946   8.112   4.745   3.394
 9568WAT     H228947   7.974   4.787   3.471
 9569WAT      O28948   8.677   9.177   8.343
 9569WAT     H128949   8.730   9.101   8.381
 9569WAT     H228950   8.580   9.152   8.342
 9570WAT      O28951   8.391   5.275   1.923
 9570WAT     H128952   8.298   5.251   1.952
 9570WAT     H228953   8.443   5.306   2.002
 9571WAT      O28954   5.235   8.134   8.352
 9571WAT     H128955   5.316   8.162   8.300
 9571WAT     H228956   5.263   8.082   8.433
 9572WAT      O28957   8.562   2.459   3.432
 9572WAT     H128958   8.536   2.401   3.355
 9572WAT     H228959   8.551   2.555   3.407
 9573WAT      O28960   1.247   0.177   2.761
 9573WAT     H128961   1.198   0.161   2.847
 9573WAT     H228962   1.199   0.247   2.708
 9574WAT      O28963   1.947   6.219   9.745
 9574WAT     H128964   1.899   6.203   9.658
 9574WAT     H228965   2.036   6.259   9.727
 9575WAT      O28966   6.614   0.666   2.656
 9575WAT     H128967   6.585   0.761   2.644
 9575WAT     H228968   6.703   0.653   2.614
 9576WAT      O28969   6.893   6.554   2.264
 9576WAT     H128970   6.938   6.537   2.177
 9576WAT     H228971   6.797   6.578   2.248
 9577WAT      O28972   0.656   5.814   5.566
 9577WAT     H128973   0.678   5.727   5.523
 9577WAT     H228974   0.738   5.852   5.608
 9578WAT      O28975   1.377   2.991   1.843
 9578WAT     H128976   1.388   3.053   1.921
 9578WAT     H228977   1.296   3.017   1.791
 9579WAT      O28978   0.259   0.215   3.933
 9579WAT     H128979   0.315   0.172   3.863
 9579WAT     H228980   0.294   0.190   4.024
 9580WAT      O28981   6.985   6.752   4.220
 9580WAT     H128982   6.896   6.786   4.250
 9580WAT     H228983   7.013   6.675   4.278
 9581WAT      O28984   1.237   7.517   9.097
 9581WAT     H128985   1.143   7.491   9.073
 9581WAT     H228986   1.249   7.511   9.196
 9582WAT      O28987   0.075   1.912   6.524
 9582WAT     H128988  -0.019   1.889   6.550
 9582WAT     H228989   0.104   1.995   6.571
 9583WAT      O28990   7.155   3.365   4.576
 9583WAT     H128991   7.185   3.301   4.506
 9583WAT     H228992   7.056   3.357   4.589
 9584WAT      O28993   6.398   0.049   5.636
 9584WAT     H128994   6.330  -0.013   5.598
 9584WAT     H228995   6.362   0.143   5.634
 9585WAT      O28996   7.520   1.597   1.473
 9585WAT     H128997   7.446   1.535   1.501
 9585WAT     H228998   7.503   1.628   1.379
 9586WAT      O28999   7.532   5.673   3.891
 9586WAT     H129000   7.521   5.589   3.839
 9586WAT     H229001   7.526   5.752   3.829
 9587WAT      O29002   6.432   7.329   0.977
 9587WAT     H129003   6.504   7.396   0.994
 9587WAT     H229004   6.473   7.239   0.961
 9588WAT      O29005   1.182   4.074   5.489
 9588WAT     H129006   1.262   4.032   5.447
 9588WAT     H229007   1.113   4.004   5.508
 9589WAT      O29008   9.676   2.769   5.303
 9589WAT     H129009   9.585   2.746   5.269
 9589WAT     H229010   9.714   2.843   5.248
 9590WAT      O29011   2.202   5.458   8.068
 9590WAT     H129012   2.173   5.363   8.083
 9590WAT     H229013   2.137   5.520   8.111
 9591WAT      O29014   7.546   1.201   3.835
 9591WAT     H129015   7.493   1.233   3.914
 9591WAT     H229016   7.622   1.145   3.867
 9592WAT      O29017   6.226   0.276   7.225
 9592WAT     H129018   6.143   0.292   7.173
 9592WAT     H229019   6.239   0.350   7.291
 9593WAT      O29020   6.099   8.689   1.287
 9593WAT     H129021   6.119   8.760   1.354
 9593WAT     H229022   6.004   8.659   1.298
 9594WAT      O29023   9.400   1.159   7.806
 9594WAT     H129024   9.450   1.116   7.882
 9594WAT     H229025   9.318   1.203   7.842
 9595WAT      O29026   6.452   1.394   3.996
 9595WAT     H129027   6.392   1.387   4.076
 9595WAT     H229028   6.482   1.303   3.969
 9596WAT      O29029   2.753   9.743   8.521
 9596WAT     H129030   2.691   9.725   8.445
 9596WAT     H229031   2.708   9.800   8.590
 9597WAT      O29032   1.086   6.488   0.223
 9597WAT     H129033   1.153   6.415   0.208
 9597WAT     H229034   1.078   6.543   0.141
 9598WAT      O29035   3.371   1.015   6.843
 9598WAT     H129036   3.395   0.957   6.922
 9598WAT     H229037   3.454   1.057   6.806
 9599WAT      O29038   0.436   1.864   9.564
 9599WAT     H129039   0.491   1.945   9.543
 9599WAT     H229040   0.497   1.786   9.578
 9600WAT      O29041   0.853   2.045   2.339
 9600WAT     H129042   0.833   2.047   2.437
 9600WAT     H229043   0.851   2.138   2.303
 9601WAT      O29044   3.235   9.576   2.917
 9601WAT     H129045   3.208   9.646   2.983
 9601WAT     H229046   3.223   9.611   2.824
 9602WAT      O29047   6.038   2.543   8.603
 9602WAT     H129048   6.117   2.536   8.665
 9602WAT     H229049   6.023   2.455   8.559
 9603WAT      O29050   9.400   1.278   6.955
 9603WAT     H129051   9.395   1.183   6.927
 9603WAT     H229052   9.426   1.335   6.877
 9604WAT      O29053   2.943   7.596   0.792
 9604WAT     H129054   2.988   7.629   0.875
 9604WAT     H229055   2.932   7.673   0.728
 9605WAT      O29056   0.294   3.127   0.077
 9605WAT     H129057   0.279   3.110  -0.020
 9605WAT     H229058   0.269   3.222   0.099
 9606WAT      O29059   1.396   5.546   7.856
 9606WAT     H129060   1.319   5.487   7.879
 9606WAT     H229061   1.466   5.539   7.927
 9607WAT      O29062   1.777   7.391   4.581
 9607WAT     H129063   1.785   7.306   4.529
 9607WAT     H229064   1.852   7.452   4.558
 9608WAT      O29065   7.166   0.943   3.529
 9608WAT     H129066   7.190   0.847   3.511
 9608WAT     H229067   7.221   0.978   3.604
 9609WAT      O29068   2.212   3.161   1.623
 9609WAT     H129069   2.119   3.129   1.637
 9609WAT     H229070   2.221   3.255   1.656
 9610WAT      O29071   6.913   4.444   8.736
 9610WAT     H129072   6.924   4.439   8.835
 9610WAT     H229073   6.973   4.377   8.692
 9611WAT      O29074   7.385   9.476   1.024
 9611WAT     H129075   7.330   9.470   1.107
 9611WAT     H229076   7.450   9.551   1.032
 9612WAT      O29077   0.898   6.530   4.583
 9612WAT     H129078   0.838   6.515   4.504
 9612WAT     H229079   0.993   6.533   4.553
 9613WAT      O29080   4.465   0.517   0.416
 9613WAT     H129081   4.498   0.491   0.326
 9613WAT     H229082   4.365   0.519   0.416
 9614WAT      O29083   0.060   4.604   6.538
 9614WAT     H129084   0.105   4.624   6.625
 9614WAT     H229085   0.006   4.520   6.546
 9615WAT      O29086   4.513   0.641   9.127
 9615WAT     H129087   4.533   0.694   9.044
 9615WAT     H229088   4.432   0.585   9.112
 9616WAT      O29089   5.188   8.207   4.265
 9616WAT     H129090   5.288   8.208   4.273
 9616WAT     H229091   5.163   8.163   4.178
 9617WAT      O29092   5.667   0.259   0.376
 9617WAT     H129093   5.656   0.341   0.433
 9617WAT     H229094   5.577   0.232   0.341
 9618WAT      O29095   2.871   4.963   3.191
 9618WAT     H129096   2.846   4.895   3.261
 9618WAT     H229097   2.952   5.013   3.221
 9619WAT      O29098   8.979   6.734   5.143
 9619WAT     H129099   9.064   6.753   5.094
 9619WAT     H229100   8.964   6.804   5.213
 9620WAT      O29101   4.370   3.946   3.464
 9620WAT     H129102   4.291   3.886   3.474
 9620WAT     H229103   4.355   4.030   3.515
 9621WAT      O29104   7.102   2.401   2.121
 9621WAT     H129105   7.104   2.469   2.194
 9621WAT     H229106   7.022   2.342   2.132
 9622WAT      O29107   8.063   8.440   5.346
 9622WAT     H129108   8.032   8.346   5.358
 9622WAT     H229109   7.990   8.495   5.306
 9623WAT      O29110   7.031   0.926   8.173
 9623WAT     H129111   6.965   0.958   8.241
 9623WAT     H229112   7.075   1.005   8.129
 9624WAT      O29113   9.355   0.995   5.452
 9624WAT     H129114   9.333   1.092   5.458
 9624WAT     H229115   9.449   0.983   5.420
 9625WAT      O29116   6.001   8.411   2.202
 9625WAT     H129117   5.967   8.426   2.109
 9625WAT     H229118   5.925   8.386   2.262
 9626WAT      O29119   0.525   9.457   1.868
 9626WAT     H129120   0.563   9.541   1.828
 9626WAT     H229121   0.580   9.378   1.839
 9627WAT      O29122   2.858   3.157   1.396
 9627WAT     H129123   2.846   3.256   1.396
 9627WAT     H229124   2.943   3.134   1.444
 9628WAT      O29125   1.884   4.964   9.104
 9628WAT     H129126   1.793   4.970   9.065
 9628WAT     H229127   1.887   4.891   9.172
 9629WAT      O29128   5.937   0.490   9.554
 9629WAT     H129129   5.888   0.555   9.496
 9629WAT     H229130   6.018   0.533   9.592
 9630WAT      O29131   4.159   5.350   5.173
 9630WAT     H129132   4.192   5.324   5.082
 9630WAT     H229133   4.137   5.447   5.173
 9631WAT      O29134   4.276   8.321   1.177
 9631WAT     H129135   4.284   8.401   1.117
 9631WAT     H229136   4.189   8.274   1.160
 9632WAT      O29137   5.263   1.637   6.370
 9632WAT     H129138   5.186   1.653   6.432
 9632WAT     H229139   5.229   1.603   6.283
 9633WAT      O29140   1.707   0.090   7.592
 9633WAT     H129141   1.692   0.016   7.658
 9633WAT     H229142   1.699   0.054   7.500
 9634WAT      O29143   4.587   9.280   1.208
 9634WAT     H129144   4.662   9.340   1.233
 9634WAT     H229145   4.516   9.333   1.161
 9635WAT      O29146   8.516   5.042   6.423
 9635WAT     H129147   8.461   5.093   6.355
 9635WAT     H229148   8.466   5.039   6.509
 9636WAT      O29149   9.373   7.941   4.021
 9636WAT     H129150   9.288   7.987   4.048
 9636WAT     H229151   9.374   7.848   4.058
 9637WAT      O29152   7.126   5.681   0.986
 9637WAT     H129153   7.035   5.654   0.957
 9637WAT     H229154   7.169   5.737   0.915
 9638WAT      O29155   4.404   9.044   1.499
 9638WAT     H129156   4.308   9.021   1.484
 9638WAT     H229157   4.460   9.003   1.427
 9639WAT      O29158   9.381   5.282   1.092
 9639WAT     H129159   9.304   5.292   1.029
 9639WAT     H229160   9.370   5.198   1.144
 9640WAT      O29161   4.391   8.641   7.569
 9640WAT     H129162   4.317   8.575   7.560
 9640WAT     H229163   4.360   8.730   7.535
 9641WAT      O29164   7.907   4.569   6.452
 9641WAT     H129165   7.935   4.523   6.536
 9641WAT     H229166   7.986   4.614   6.410
 9642WAT      O29167   7.020   3.274   4.288
 9642WAT     H129168   6.985   3.342   4.222
 9642WAT     H229169   6.966   3.280   4.372
 9643WAT      O29170   8.493   6.653   7.558
 9643WAT     H129171   8.544   6.675   7.641
 9643WAT     H229172   8.446   6.566   7.570
 9644WAT      O29173   0.826   8.678   0.523
 9644WAT     H129174   0.925   8.678   0.540
 9644WAT     H229175   0.807   8.636   0.435
 9645WAT      O29176   3.650   7.155   1.784
 9645WAT     H129177   3.609   7.230   1.731
 9645WAT     H229178   3.579   7.108   1.836
 9646WAT      O29179   5.964   5.750   0.623
 9646WAT     H129180   6.019   5.670   0.599
 9646WAT     H229181   5.987   5.826   0.563
 9647WAT      O29182   5.225   8.190   6.226
 9647WAT     H129183   5.220   8.154   6.132
 9647WAT     H229184   5.136   8.228   6.251
 9648WAT      O29185   3.907   2.047   5.102
 9648WAT     H129186   3.820   2.082   5.069
 9648WAT     H229187   3.926   2.084   5.193
 9649WAT      O29188   7.169   5.644   7.600
 9649WAT     H129189   7.145   5.547   7.606
 9649WAT     H229190   7.245   5.655   7.536
 9650WAT      O29191   1.727   7.242   5.319
 9650WAT     H129192   1.640   7.249   5.271
 9650WAT     H229193   1.786   7.177   5.272
 9651WAT      O29194   9.407   7.807   1.424
 9651WAT     H129195   9.442   7.717   1.399
 9651WAT     H229196   9.477   7.856   1.477
 9652WAT      O29197   7.610   3.780   3.600
 9652WAT     H129198   7.675   3.729   3.656
 9652WAT     H229199   7.549   3.717   3.553
 9653WAT      O29200   9.296   5.741   5.379
 9653WAT     H129201   9.313   5.820   5.320
 9653WAT     H229202   9.292   5.658   5.324
 9654WAT      O29203   2.621   3.372   0.542
 9654WAT     H129204   2.685   3.429   0.593
 9654WAT     H229205   2.567   3.429   0.480
 9655WAT      O29206   0.922   3.726   4.240
 9655WAT     H129207   0.989   3.796   4.216
 9655WAT     H229208   0.892   3.679   4.156
 9656WAT      O29209   0.901   5.531   4.867
 9656WAT     H129210   0.851   5.446   4.850
 9656WAT     H229211   0.994   5.510   4.895
 9657WAT      O29212   9.267   3.504   0.560
 9657WAT     H129213   9.316   3.586   0.589
 9657WAT     H229214   9.238   3.452   0.640
 9658WAT      O29215   3.834   1.269   5.170
 9658WAT     H129216   3.808   1.266   5.266
 9658WAT     H229217   3.807   1.358   5.131
 9659WAT      O29218   2.871   5.772   8.097
 9659WAT     H129219   2.791   5.770   8.156
 9659WAT     H229220   2.950   5.735   8.146
 9660WAT      O29221   1.385   7.315   0.247
 9660WAT     H129222   1.407   7.373   0.326
 9660WAT     H229223   1.370   7.373   0.167
 9661WAT      O29224   0.708   5.025   0.974
 9661WAT     H129225   0.749   5.100   0.920
 9661WAT     H229226   0.766   5.006   1.053
 9662WAT      O29227   0.580   3.113   5.521
 9662WAT     H129228   0.559   3.076   5.431
 9662WAT     H229229   0.554   3.046   5.591
 9663WAT      O29230   8.668   2.088   8.394
 9663WAT     H129231   8.728   2.166   8.411
 9663WAT     H229232   8.642   2.047   8.481
 9664WAT      O29233   8.941   3.999   3.187
 9664WAT     H129234   8.891   4.051   3.118
 9664WAT     H229235   8.896   3.910   3.201
 9665WAT      O29236   7.148   0.572   4.505
 9665WAT     H129237   7.235   0.613   4.481
 9665WAT     H229238   7.075   0.641   4.500
 9666WAT      O29239   2.729   9.314   1.244
 9666WAT     H129240   2.646   9.259   1.234
 9666WAT     H229241   2.800   9.278   1.183
 9667WAT      O29242   6.814   6.072   0.474
 9667WAT     H129243   6.859   6.027   0.397
 9667WAT     H229244   6.883   6.110   0.536
 9668WAT      O29245   5.662   0.553   8.262
 9668WAT     H129246   5.714   0.617   8.205
 9668WAT     H229247   5.716   0.531   8.344
 9669WAT      O29248   2.506   9.189   2.613
 9669WAT     H129249   2.586   9.130   2.599
 9669WAT     H229250   2.430   9.154   2.559
 9670WAT      O29251   6.814   4.919   1.457
 9670WAT     H129252   6.779   4.877   1.373
 9670WAT     H229253   6.890   4.980   1.434
 9671WAT      O29254   5.781   3.071   1.559
 9671WAT     H129255   5.848   3.145   1.563
 9671WAT     H229256   5.696   3.102   1.601
 9672WAT      O29257   2.435   2.549   8.577
 9672WAT     H129258   2.448   2.603   8.661
 9672WAT     H229259   2.431   2.610   8.498
 9673WAT      O29260   7.305   7.477   8.706
 9673WAT     H129261   7.296   7.490   8.607
 9673WAT     H229262   7.234   7.414   8.738
 9674WAT      O29263   8.999   3.727   3.436
 9674WAT     H129264   8.917   3.776   3.404
 9674WAT     H229265   8.989   3.630   3.415
 9675WAT      O29266   2.384   8.895   6.039
 9675WAT     H129267   2.291   8.871   6.067
 9675WAT     H229268   2.383   8.984   5.994
 9676WAT      O29269   2.713   0.627   1.135
 9676WAT     H129270   2.719   0.659   1.041
 9676WAT     H229271   2.648   0.685   1.185
 9677WAT      O29272   8.910   1.011   7.592
 9677WAT     H129273   8.916   0.912   7.576
 9677WAT     H229274   9.001   1.051   7.586
 9678WAT      O29275   4.875   4.826   2.010
 9678WAT     H129276   4.884   4.799   2.106
 9678WAT     H229277   4.901   4.923   2.001
 9679WAT      O29278   7.176   5.140   7.156
 9679WAT     H129279   7.256   5.174   7.107
 9679WAT     H229280   7.158   5.045   7.130
 9680WAT      O29281   4.703   9.240   6.222
 9680WAT     H129282   4.701   9.146   6.190
 9680WAT     H229283   4.790   9.283   6.198
 9681WAT      O29284   4.524   6.212   6.842
 9681WAT     H129285   4.567   6.204   6.931
 9681WAT     H229286   4.502   6.121   6.806
 9682WAT      O29287   8.927   2.871   2.797
 9682WAT     H129288   8.996   2.853   2.727
 9682WAT     H229289   8.849   2.810   2.784
 9683WAT      O29290   1.544   1.034   5.459
 9683WAT     H129291   1.620   1.017   5.397
 9683WAT     H229292   1.462   0.988   5.424
 9684WAT      O29293   7.089   7.229   6.395
 9684WAT     H129294   7.023   7.267   6.461
 9684WAT     H229295   7.095   7.288   6.315
 9685WAT      O29296   3.494   3.300   6.707
 9685WAT     H129297   3.445   3.346   6.781
 9685WAT     H229298   3.485   3.353   6.623
 9686WAT      O29299   1.688   5.785   3.924
 9686WAT     H129300   1.643   5.843   3.992
 9686WAT     H229301   1.653   5.808   3.833
 9687WAT      O29302   5.167   1.013   2.299
 9687WAT     H129303   5.092   1.079   2.294
 9687WAT     H229304   5.135   0.929   2.344
 9688WAT      O29305   9.184   9.627   1.494
 9688WAT     H129306   9.172   9.721   1.525
 9688WAT     H229307   9.234   9.574   1.563
 9689WAT      O29308   5.870   6.325   8.807
 9689WAT     H129309   5.947   6.354   8.751
 9689WAT     H229310   5.821   6.251   8.761
 9690WAT      O29311   8.006   5.617   6.514
 9690WAT     H129312   8.048   5.694   6.465
 9690WAT     H229313   7.962   5.651   6.597
 9691WAT      O29314   2.064   3.338   6.883
 9691WAT     H129315   2.046   3.424   6.835
 9691WAT     H229316   2.015   3.264   6.837
 9692WAT      O29317   7.994   9.225   3.419
 9692WAT     H129318   7.976   9.136   3.460
 9692WAT     H229319   7.988   9.218   3.319
 9693WAT      O29320   7.515   9.231   1.197
 9693WAT     H129321   7.456   9.301   1.238
 9693WAT     H229322   7.560   9.268   1.116
 9694WAT      O29323   8.752   1.610   2.745
 9694WAT     H129324   8.745   1.664   2.829
 9694WAT     H229325   8.843   1.569   2.740
 9695WAT      O29326   6.692   7.588   6.448
 9695WAT     H129327   6.717   7.654   6.377
 9695WAT     H229328   6.598   7.559   6.435
 9696WAT      O29329   7.074   9.650   0.574
 9696WAT     H129330   6.996   9.591   0.554
 9696WAT     H229331   7.070   9.680   0.670
 9697WAT      O29332   2.566   0.706   3.214
 9697WAT     H129333   2.622   0.782   3.179
 9697WAT     H229334   2.591   0.622   3.167
 9698WAT      O29335   4.450   1.615   3.721
 9698WAT     H129336   4.453   1.704   3.765
 9698WAT     H229337   4.503   1.618   3.636
 9699WAT      O29338   7.390   8.659   8.509
 9699WAT     H129339   7.453   8.704   8.446
 9699WAT     H229340   7.331   8.728   8.551
 9700WAT      O29341   6.282   6.843   4.379
 9700WAT     H129342   6.265   6.764   4.438
 9700WAT     H229343   6.240   6.827   4.290
 9701WAT      O29344   0.625   6.456   8.391
 9701WAT     H129345   0.648   6.537   8.445
 9701WAT     H229346   0.655   6.468   8.297
 9702WAT      O29347   8.538   3.174   7.420
 9702WAT     H129348   8.498   3.236   7.353
 9702WAT     H229349   8.468   3.110   7.453
 9703WAT      O29350   9.540   5.398   6.206
 9703WAT     H129351   9.548   5.431   6.300
 9703WAT     H229352   9.627   5.413   6.159
 9704WAT      O29353   1.527   3.767   3.777
 9704WAT     H129354   1.449   3.818   3.743
 9704WAT     H229355   1.495   3.682   3.820
 9705WAT      O29356   5.744   0.223   6.535
 9705WAT     H129357   5.802   0.229   6.453
 9705WAT     H229358   5.800   0.244   6.615
 9706WAT      O29359   7.051   9.101   5.181
 9706WAT     H129360   7.133   9.050   5.209
 9706WAT     H229361   7.058   9.195   5.213
 9707WAT      O29362   1.222   4.552   8.440
 9707WAT     H129363   1.238   4.496   8.522
 9707WAT     H229364   1.281   4.521   8.366
 9708WAT      O29365   8.830   5.437   2.552
 9708WAT     H129366   8.792   5.356   2.597
 9708WAT     H229367   8.767   5.468   2.481
 9709WAT      O29368   2.073   3.871   9.740
 9709WAT     H129369   2.107   3.835   9.827
 9709WAT     H229370   2.005   3.942   9.758
 9710WAT      O29371   1.866   9.639   1.954
 9710WAT     H129372   1.830   9.634   2.047
 9710WAT     H229373   1.794   9.669   1.891
 9711WAT      O29374   0.990   1.463   0.039
 9711WAT     H129375   0.985   1.540   0.102
 9711WAT     H229376   1.077   1.416   0.050
 9712WAT      O29377   4.813   1.492   1.914
 9712WAT     H129378   4.728   1.493   1.862
 9712WAT     H229379   4.850   1.399   1.915
 9713WAT      O29380   4.978   3.138   4.837
 9713WAT     H129381   5.020   3.047   4.832
 9713WAT     H229382   5.048   3.206   4.861
 9714WAT      O29383   0.958   5.669   9.053
 9714WAT     H129384   0.867   5.699   9.080
 9714WAT     H229385   1.020   5.748   9.052
 9715WAT      O29386   8.211   3.283   1.981
 9715WAT     H129387   8.193   3.258   2.076
 9715WAT     H229388   8.223   3.200   1.926
 9716WAT      O29389   3.664   2.585   8.281
 9716WAT     H129390   3.646   2.487   8.271
 9716WAT     H229391   3.679   2.605   8.378
 9717WAT      O29392   7.024   1.425   3.988
 9717WAT     H129393   6.948   1.404   4.051
 9717WAT     H229394   6.989   1.478   3.910
 9718WAT      O29395   6.911   8.019   7.198
 9718WAT     H129396   6.814   7.991   7.198
 9718WAT     H229397   6.917   8.116   7.219
 9719WAT      O29398   4.347   1.203   1.647
 9719WAT     H129399   4.367   1.252   1.563
 9719WAT     H229400   4.383   1.254   1.725
 9720WAT      O29401   4.811   8.508   5.995
 9720WAT     H129402   4.876   8.537   6.065
 9720WAT     H229403   4.721   8.547   6.016
 9721WAT      O29404   4.441   3.737   3.294
 9721WAT     H129405   4.428   3.764   3.198
 9721WAT     H229406   4.448   3.819   3.351
 9722WAT      O29407   0.079   9.420   2.893
 9722WAT     H129408   0.176   9.422   2.869
 9722WAT     H229409   0.025   9.399   2.812
 9723WAT      O29410   0.749   7.569   6.816
 9723WAT     H129411   0.807   7.610   6.887
 9723WAT     H229412   0.708   7.485   6.850
 9724WAT      O29413   3.130   3.746   7.200
 9724WAT     H129414   3.129   3.846   7.204
 9724WAT     H229415   3.218   3.713   7.234
 9725WAT      O29416   2.637   6.111   7.338
 9725WAT     H129417   2.720   6.055   7.337
 9725WAT     H229418   2.574   6.075   7.407
 9726WAT      O29419   6.762   7.968   9.757
 9726WAT     H129420   6.749   8.052   9.704
 9726WAT     H229421   6.769   7.990   9.854
 9727WAT      O29422   9.376   2.264   9.846
 9727WAT     H129423   9.460   2.254   9.899
 9727WAT     H229424   9.376   2.199   9.771
 9728WAT      O29425   6.216   4.889   5.034
 9728WAT     H129426   6.233   4.931   4.945
 9728WAT     H229427   6.295   4.835   5.062
 9729WAT      O29428   2.696   8.728   2.654
 9729WAT     H129429   2.617   8.676   2.620
 9729WAT     H229430   2.737   8.678   2.730
 9730WAT      O29431   8.140   0.926   3.745
 9730WAT     H129432   8.116   0.830   3.734
 9730WAT     H229433   8.186   0.958   3.662
 9731WAT      O29434   8.089   1.622   5.993
 9731WAT     H129435   8.033   1.663   5.921
 9731WAT     H229436   8.180   1.665   5.993
 9732WAT      O29437   2.426   1.955   0.963
 9732WAT     H129438   2.473   1.946   1.051
 9732WAT     H229439   2.411   2.052   0.943
 9733WAT      O29440   2.914   0.785   3.587
 9733WAT     H129441   2.923   0.808   3.490
 9733WAT     H229442   2.891   0.868   3.639
 9734WAT      O29443   8.041   3.396   6.204
 9734WAT     H129444   7.993   3.421   6.288
 9734WAT     H229445   8.096   3.474   6.173
 9735WAT      O29446   7.433   9.440   9.799
 9735WAT     H129447   7.363   9.432   9.728
 9735WAT     H229448   7.402   9.501   9.872
 9736WAT      O29449   9.682   3.520   7.993
 9736WAT     H129450   9.642   3.470   8.071
 9736WAT     H229451   9.704   3.613   8.021
 9737WAT      O29452   8.833   7.188   5.394
 9737WAT     H129453   8.824   7.249   5.473
 9737WAT     H229454   8.821   7.240   5.310
 9738WAT      O29455   3.480   2.649   0.741
 9738WAT     H129456   3.511   2.714   0.810
 9738WAT     H229457   3.409   2.691   0.685
 9739WAT      O29458   3.922   3.625   9.421
 9739WAT     H129459   3.982   3.697   9.385
 9739WAT     H229460   3.923   3.547   9.358
 9740WAT      O29461   8.934   2.237   5.162
 9740WAT     H129462   8.946   2.259   5.065
 9740WAT     H229463   8.893   2.315   5.209
 9741WAT      O29464   3.535   9.011   5.900
 9741WAT     H129465   3.512   8.919   5.932
 9741WAT     H229466   3.484   9.078   5.953
 9742WAT      O29467   4.915   8.833   1.246
 9742WAT     H129468   4.861   8.797   1.170
 9742WAT     H229469   5.001   8.781   1.252
 9743WAT      O29470   5.707   0.553   7.821
 9743WAT     H129471   5.655   0.599   7.893
 9743WAT     H229472   5.722   0.457   7.847
 9744WAT      O29473   6.073   1.923   8.414
 9744WAT     H129474   6.013   1.908   8.335
 9744WAT     H229475   6.018   1.924   8.497
 9745WAT      O29476   1.332   6.888   0.750
 9745WAT     H129477   1.424   6.859   0.723
 9745WAT     H229478   1.275   6.900   0.669
 9746WAT      O29479   7.082   5.441   5.976
 9746WAT     H129480   7.023   5.361   5.983
 9746WAT     H229481   7.107   5.473   6.067
 9747WAT      O29482   7.281   2.836   2.004
 9747WAT     H129483   7.214   2.769   2.034
 9747WAT     H229484   7.261   2.925   2.046
 9748WAT      O29485   5.218   5.423   3.561
 9748WAT     H129486   5.143   5.487   3.576
 9748WAT     H229487   5.296   5.449   3.617
 9749WAT      O29488   3.689   0.604   1.809
 9749WAT     H129489   3.753   0.607   1.732
 9749WAT     H229490   3.606   0.655   1.785
 9750WAT      O29491   5.116   0.925   6.506
 9750WAT     H129492   5.184   0.918   6.578
 9750WAT     H229493   5.044   0.989   6.534
 9751WAT      O29494   5.688   1.464   0.207
 9751WAT     H129495   5.751   1.388   0.225
 9751WAT     H229496   5.653   1.456   0.114
 9752WAT      O29497   8.579   3.623   5.325
 9752WAT     H129498   8.635   3.608   5.244
 9752WAT     H229499   8.509   3.551   5.332
 9753WAT      O29500   9.866   7.146   2.698
 9753WAT     H129501   9.866   7.158   2.797
 9753WAT     H229502   9.948   7.097   2.670
 9754WAT      O29503   4.311   1.661   1.347
 9754WAT     H129504   4.368   1.724   1.399
 9754WAT     H229505   4.345   1.654   1.253
 9755WAT      O29506   2.460   4.415   0.981
 9755WAT     H129507   2.361   4.423   0.992
 9755WAT     H229508   2.504   4.499   1.015
 9756WAT      O29509   6.676   4.936   4.898
 9756WAT     H129510   6.764   4.981   4.877
 9756WAT     H229511   6.615   5.002   4.942
 9757WAT      O29512   4.991   5.485   1.999
 9757WAT     H129513   4.921   5.464   2.068
 9757WAT     H229514   4.948   5.530   1.921
 9758WAT      O29515   6.641   7.665   4.439
 9758WAT     H129516   6.588   7.596   4.488
 9758WAT     H229517   6.624   7.656   4.341
 9759WAT      O29518   2.231   2.465   8.965
 9759WAT     H129519   2.307   2.528   8.951
 9759WAT     H229520   2.203   2.469   9.061
 9760WAT      O29521   8.942   2.073   9.217
 9760WAT     H129522   9.030   2.121   9.212
 9760WAT     H229523   8.886   2.098   9.138
 9761WAT      O29524   8.432   5.990   4.914
 9761WAT     H129525   8.394   5.964   4.825
 9761WAT     H229526   8.359   6.021   4.974
 9762WAT      O29527   0.679   3.569   0.649
 9762WAT     H129528   0.754   3.602   0.706
 9762WAT     H229529   0.699   3.476   0.619
 9763WAT      O29530   1.704   7.196   6.549
 9763WAT     H129531   1.800   7.221   6.545
 9763WAT     H229532   1.648   7.278   6.557
 9764WAT      O29533   9.517   0.958   4.855
 9764WAT     H129534   9.447   0.887   4.849
 9764WAT     H229535   9.496   1.031   4.790
 9765WAT      O29536   1.572   3.078   3.086
 9765WAT     H129537   1.622   2.993   3.102
 9765WAT     H229538   1.621   3.154   3.127
 9766WAT      O29539   2.275   8.710   7.574
 9766WAT     H129540   2.262   8.730   7.671
 9766WAT     H229541   2.187   8.710   7.528
 9767WAT      O29542   7.814   3.578   9.552
 9767WAT     H129543   7.738   3.596   9.615
 9767WAT     H229544   7.789   3.505   9.490
 9768WAT      O29545   0.324   1.551   8.919
 9768WAT     H129546   0.323   1.584   8.825
 9768WAT     H229547   0.233   1.558   8.959
 9769WAT      O29548   5.113   6.732   4.502
 9769WAT     H129549   5.203   6.704   4.535
 9769WAT     H229550   5.049   6.655   4.511
 9770WAT      O29551   8.744   4.798   9.638
 9770WAT     H129552   8.669   4.811   9.703
 9770WAT     H229553   8.750   4.877   9.578
 9771WAT      O29554   7.910   1.728   8.834
 9771WAT     H129555   7.927   1.826   8.819
 9771WAT     H229556   7.992   1.676   8.812
 9772WAT      O29557   4.545   6.160   0.425
 9772WAT     H129558   4.490   6.208   0.356
 9772WAT     H229559   4.626   6.121   0.381
 9773WAT      O29560   9.582   5.252   4.284
 9773WAT     H129561   9.627   5.166   4.259
 9773WAT     H229562   9.578   5.259   4.384
 9774WAT      O29563   9.669   0.043   6.874
 9774WAT     H129564   9.619  -0.039   6.848
 9774WAT     H229565   9.757   0.018   6.914
 9775WAT      O29566   6.917   6.008   8.443
 9775WAT     H129567   6.949   6.099   8.467
 9775WAT     H229568   6.826   6.014   8.401
 9776WAT      O29569   6.092   1.946   5.643
 9776WAT     H129570   6.189   1.966   5.636
 9776WAT     H229571   6.039   2.031   5.635
 9777WAT      O29572   1.919   3.703   6.032
 9777WAT     H129573   1.861   3.769   5.983
 9777WAT     H229574   1.869   3.668   6.111
 9778WAT      O29575   1.739   3.601   1.376
 9778WAT     H129576   1.742   3.672   1.306
 9778WAT     H229577   1.714   3.514   1.334
 9779WAT      O29578   9.668   2.519   5.510
 9779WAT     H129579   9.698   2.518   5.415
 9779WAT     H229580   9.709   2.596   5.558
 9780WAT      O29581   9.815   0.425   2.043
 9780WAT     H129582   9.866   0.482   1.978
 9780WAT     H229583   9.858   0.432   2.133
 9781WAT      O29584   6.370   3.984   1.569
 9781WAT     H129585   6.454   4.038   1.576
 9781WAT     H229586   6.325   3.980   1.658
 9782WAT      O29587   1.334   3.888   2.419
 9782WAT     H129588   1.287   3.973   2.396
 9782WAT     H229589   1.432   3.907   2.430
 9783WAT      O29590   3.037   2.110   0.776
 9783WAT     H129591   3.057   2.079   0.683
 9783WAT     H229592   3.072   2.203   0.788
 9784WAT      O29593   8.469   4.405   1.143
 9784WAT     H129594   8.436   4.357   1.062
 9784WAT     H229595   8.536   4.475   1.116
 9785WAT      O29596   4.997   3.089   6.961
 9785WAT     H129597   4.912   3.138   6.980
 9785WAT     H229598   5.014   3.089   6.862
 9786WAT      O29599   0.697   0.856   5.621
 9786WAT     H129600   0.688   0.772   5.568
 9786WAT     H229601   0.647   0.848   5.707
 9787WAT      O29602   1.170   4.659   4.731
 9787WAT     H129603   1.244   4.596   4.756
 9787WAT     H229604   1.101   4.609   4.679
 9788WAT      O29605   5.657   7.232   3.032
 9788WAT     H129606   5.585   7.289   2.991
 9788WAT     H229607   5.739   7.288   3.045
 9789WAT      O29608   9.626   8.990   6.118
 9789WAT     H129609   9.710   8.980   6.065
 9789WAT     H229610   9.648   9.006   6.214
 9790WAT      O29611   1.944   2.423   0.991
 9790WAT     H129612   2.035   2.460   0.975
 9790WAT     H229613   1.876   2.494   0.976
 9791WAT      O29614   0.623   4.725   5.819
 9791WAT     H129615   0.587   4.799   5.875
 9791WAT     H229616   0.616   4.639   5.869
 9792WAT      O29617   8.879   0.540   1.098
 9792WAT     H129618   8.936   0.489   1.163
 9792WAT     H229619   8.875   0.490   1.011
 9793WAT      O29620   0.295   9.591   0.143
 9793WAT     H129621   0.265   9.546   0.059
 9793WAT     H229622   0.220   9.646   0.179
 9794WAT      O29623   3.528   7.201   6.389
 9794WAT     H129624   3.556   7.275   6.328
 9794WAT     H229625   3.546   7.113   6.345
 9795WAT      O29626   1.059   7.427   7.218
 9795WAT     H129627   1.062   7.516   7.173
 9795WAT     H229628   1.058   7.354   7.149
 9796WAT      O29629   0.471   5.067   7.430
 9796WAT     H129630   0.569   5.074   7.410
 9796WAT     H229631   0.430   4.999   7.369
 9797WAT      O29632   5.851   4.638   0.173
 9797WAT     H129633   5.825   4.619   0.267
 9797WAT     H229634   5.768   4.654   0.118
 9798WAT      O29635   2.995   1.303   0.043
 9798WAT     H129636   3.006   1.210   0.007
 9798WAT     H229637   3.015   1.369  -0.029
 9799WAT      O29638   4.478   2.101   1.278
 9799WAT     H129639   4.526   2.180   1.315
 9799WAT     H229640   4.392   2.088   1.328
 9800WAT      O29641   8.895   2.263   4.588
 9800WAT     H129642   8.927   2.352   4.557
 9800WAT     H229643   8.934   2.191   4.530
 9801WAT      O29644   6.929   5.047   6.659
 9801WAT     H129645   6.855   5.031   6.724
 9801WAT     H229646   6.899   5.111   6.588
 9802WAT      O29647   5.012   5.411   9.383
 9802WAT     H129648   4.982   5.458   9.467
 9802WAT     H229649   5.103   5.442   9.358
 9803WAT      O29650   0.494   2.643   5.833
 9803WAT     H129651   0.395   2.638   5.848
 9803WAT     H229652   0.518   2.593   5.749
 9804WAT      O29653   1.636   6.234   4.598
 9804WAT     H129654   1.708   6.263   4.536
 9804WAT     H229655   1.673   6.228   4.691
 9805WAT      O29656   1.819   6.598   6.115
 9805WAT     H129657   1.839   6.570   6.021
 9805WAT     H229658   1.865   6.535   6.178
 9806WAT      O29659   2.772   9.272   2.295
 9806WAT     H129660   2.756   9.242   2.389
 9806WAT     H229661   2.834   9.351   2.295
 9807WAT      O29662   1.142   0.741   6.964
 9807WAT     H129663   1.150   0.830   7.008
 9807WAT     H229664   1.233   0.706   6.942
 9808WAT      O29665   7.785   0.876   3.028
 9808WAT     H129666   7.831   0.933   2.960
 9808WAT     H229667   7.687   0.897   3.029
 9809WAT      O29668   9.100   9.288   2.763
 9809WAT     H129669   9.110   9.380   2.725
 9809WAT     H229670   9.029   9.289   2.834
 9810WAT      O29671   7.056   0.674   5.893
 9810WAT     H129672   7.146   0.677   5.936
 9810WAT     H229673   7.015   0.765   5.895
 9811WAT      O29674   1.760   2.659   0.950
 9811WAT     H129675   1.817   2.736   0.922
 9811WAT     H229676   1.678   2.692   0.996
 9812WAT      O29677   2.809   8.987   4.415
 9812WAT     H129678   2.803   8.891   4.388
 9812WAT     H229679   2.846   9.041   4.339
 9813WAT      O29680   7.827   3.821   4.027
 9813WAT     H129681   7.743   3.771   4.003
 9813WAT     H229682   7.851   3.882   3.952
 9814WAT      O29683   3.863   6.928   3.445
 9814WAT     H129684   3.950   6.972   3.428
 9814WAT     H229685   3.802   6.941   3.366
 9815WAT      O29686   5.918   4.336   3.488
 9815WAT     H129687   6.015   4.323   3.509
 9815WAT     H229688   5.864   4.270   3.540
 9816WAT      O29689   4.226   7.863   6.294
 9816WAT     H129690   4.200   7.820   6.380
 9816WAT     H229691   4.144   7.899   6.248
 9817WAT      O29692   0.446   5.292   9.071
 9817WAT     H129693   0.416   5.229   9.143
 9817WAT     H229694   0.373   5.303   9.004
 9818WAT      O29695   0.837   7.352   8.592
 9818WAT     H129696   0.827   7.332   8.689
 9818WAT     H229697   0.777   7.291   8.539
 9819WAT      O29698   5.749   6.672   0.414
 9819WAT     H129699   5.743   6.771   0.401
 9819WAT     H229700   5.840   6.649   0.449
 9820WAT      O29701   1.339   1.703   3.138
 9820WAT     H129702   1.413   1.738   3.081
 9820WAT     H229703   1.349   1.739   3.231
 9821WAT      O29704   2.742   8.402   9.142
 9821WAT     H129705   2.806   8.399   9.219
 9821WAT     H229706   2.758   8.324   9.082
 9822WAT      O29707   8.657   1.576   2.295
 9822WAT     H129708   8.632   1.557   2.391
 9822WAT     H229709   8.626   1.668   2.271
 9823WAT      O29710   6.941   0.913   3.170
 9823WAT     H129711   6.917   0.982   3.101
 9823WAT     H229712   7.001   0.954   3.239
 9824WAT      O29713   2.424   5.928   1.733
 9824WAT     H129714   2.391   6.017   1.703
 9824WAT     H229715   2.374   5.899   1.814
 9825WAT      O29716   6.520   9.205   7.470
 9825WAT     H129717   6.552   9.238   7.559
 9825WAT     H229718   6.530   9.105   7.466
 9826WAT      O29719   4.524   0.455   4.172
 9826WAT     H129720   4.618   0.437   4.142
 9826WAT     H229721   4.525   0.513   4.253
 9827WAT      O29722   8.150   5.234   6.536
 9827WAT     H129723   8.168   5.167   6.463
 9827WAT     H229724   8.058   5.220   6.572
 9828WAT      O29725   3.008   8.516   8.021
 9828WAT     H129726   2.922   8.477   8.054
 9828WAT     H229727   3.005   8.523   7.921
 9829WAT      O29728   1.816   7.236   5.568
 9829WAT     H129729   1.801   7.220   5.470
 9829WAT     H229730   1.867   7.159   5.606
 9830WAT      O29731   9.609   2.518   0.645
 9830WAT     H129732   9.549   2.446   0.681
 9830WAT     H229733   9.619   2.507   0.546
 9831WAT      O29734   0.598   3.291   1.667
 9831WAT     H129735   0.576   3.197   1.694
 9831WAT     H229736   0.554   3.311   1.580
 9832WAT      O29737   3.086   2.671   0.548
 9832WAT     H129738   3.051   2.584   0.581
 9832WAT     H229739   3.055   2.686   0.454
 9833WAT      O29740   2.301   8.769   4.479
 9833WAT     H129741   2.364   8.846   4.487
 9833WAT     H229742   2.293   8.723   4.567
 9834WAT      O29743   7.897   2.592   8.656
 9834WAT     H129744   7.837   2.584   8.576
 9834WAT     H229745   7.843   2.583   8.740
 9835WAT      O29746   0.129   7.354   4.268
 9835WAT     H129747   0.155   7.448   4.245
 9835WAT     H229748   0.147   7.294   4.191
 9836WAT      O29749   4.222   0.696   6.669
 9836WAT     H129750   4.226   0.711   6.571
 9836WAT     H229751   4.128   0.709   6.701
 9837WAT      O29752   3.168   1.405   9.161
 9837WAT     H129753   3.123   1.316   9.156
 9837WAT     H229754   3.267   1.391   9.170
 9838WAT      O29755   3.490   0.591   3.114
 9838WAT     H129756   3.473   0.673   3.168
 9838WAT     H229757   3.577   0.550   3.142
 9839WAT      O29758   9.847   5.816   7.223
 9839WAT     H129759   9.825   5.792   7.317
 9839WAT     H229760   9.787   5.890   7.193
 9840WAT      O29761   1.558   2.655   2.827
 9840WAT     H129762   1.541   2.702   2.740
 9840WAT     H229763   1.528   2.713   2.903
 9841WAT      O29764   6.414   6.720   9.606
 9841WAT     H129765   6.360   6.780   9.548
 9841WAT     H229766   6.355   6.653   9.651
 9842WAT      O29767   5.226   4.134   7.733
 9842WAT     H129768   5.266   4.179   7.653
 9842WAT     H229769   5.126   4.141   7.728
 9843WAT      O29770   1.075   5.237   3.754
 9843WAT     H129771   1.166   5.275   3.769
 9843WAT     H229772   1.005   5.302   3.784
 9844WAT      O29773   4.589   1.269   7.778
 9844WAT     H129774   4.507   1.219   7.749
 9844WAT     H229775   4.670   1.213   7.763
 9845WAT      O29776   5.110   0.700   9.637
 9845WAT     H129777   5.058   0.667   9.558
 9845WAT     H229778   5.067   0.667   9.721
 9846WAT      O29779   1.250   4.739   1.188
 9846WAT     H129780   1.289   4.647   1.183
 9846WAT     H229781   1.320   4.803   1.221
 9847WAT      O29782   4.666   6.022   1.670
 9847WAT     H129783   4.577   5.993   1.635
 9847WAT     H229784   4.701   5.953   1.733
 9848WAT      O29785   4.476   1.583   9.586
 9848WAT     H129786   4.469   1.613   9.681
 9848WAT     H229787   4.424   1.645   9.528
 9849WAT      O29788   6.791   9.737   0.848
 9849WAT     H129789   6.820   9.788   0.768
 9849WAT     H229790   6.871   9.699   0.895
 9850WAT      O29791   2.797   7.418   4.616
 9850WAT     H129792   2.755   7.327   4.626
 9850WAT     H229793   2.812   7.437   4.518
 9851WAT      O29794   8.056   5.345   3.303
 9851WAT     H129795   7.957   5.343   3.288
 9851WAT     H229796   8.090   5.252   3.313
 9852WAT      O29797   3.658   1.456   5.707
 9852WAT     H129798   3.575   1.401   5.717
 9852WAT     H229799   3.633   1.550   5.685
 9853WAT      O29800   6.285   1.298   9.185
 9853WAT     H129801   6.215   1.358   9.224
 9853WAT     H229802   6.262   1.202   9.204
 9854WAT      O29803   8.224   3.060   3.838
 9854WAT     H129804   8.275   2.989   3.886
 9854WAT     H229805   8.146   3.020   3.790
 9855WAT      O29806   4.105   4.712   6.012
 9855WAT     H129807   4.060   4.799   5.994
 9855WAT     H229808   4.065   4.670   6.094
 9856WAT      O29809   8.295   0.669   4.594
 9856WAT     H129810   8.365   0.679   4.664
 9856WAT     H229811   8.299   0.747   4.531
 9857WAT      O29812   7.249   5.147   8.063
 9857WAT     H129813   7.236   5.223   7.999
 9857WAT     H229814   7.172   5.083   8.055
 9858WAT      O29815   3.689   7.680   5.092
 9858WAT     H129816   3.769   7.690   5.034
 9858WAT     H229817   3.664   7.769   5.131
 9859WAT      O29818   2.326   6.699   8.164
 9859WAT     H129819   2.343   6.618   8.109
 9859WAT     H229820   2.242   6.686   8.217
 9860WAT      O29821   7.249   6.611   2.945
 9860WAT     H129822   7.320   6.565   2.999
 9860WAT     H229823   7.290   6.647   2.861
 9861WAT      O29824   7.911   0.133   5.376
 9861WAT     H129825   7.961   0.188   5.444
 9861WAT     H229826   7.816   0.164   5.373
 9862WAT      O29827   4.618   0.291   5.159
 9862WAT     H129828   4.562   0.279   5.077
 9862WAT     H229829   4.572   0.250   5.237
 9863WAT      O29830   6.640   4.426   7.440
 9863WAT     H129831   6.699   4.348   7.458
 9863WAT     H229832   6.588   4.409   7.356
 9864WAT      O29833   4.847   7.926   7.759
 9864WAT     H129834   4.901   7.896   7.837
 9864WAT     H229835   4.758   7.960   7.791
 9865WAT      O29836   6.770   5.262   8.190
 9865WAT     H129837   6.825   5.242   8.271
 9865WAT     H229838   6.674   5.241   8.209
 9866WAT      O29839   1.938   4.673   6.496
 9866WAT     H129840   1.914   4.770   6.500
 9866WAT     H229841   1.859   4.617   6.522
 9867WAT      O29842   1.190   0.366   6.315
 9867WAT     H129843   1.205   0.312   6.232
 9867WAT     H229844   1.275   0.412   6.339
 9868WAT      O29845   6.732   2.043   3.733
 9868WAT     H129846   6.664   2.021   3.663
 9868WAT     H229847   6.689   2.095   3.806
 9869WAT      O29848   2.398   1.052   9.616
 9869WAT     H129849   2.427   1.085   9.706
 9869WAT     H229850   2.464   1.082   9.547
 9870WAT      O29851   6.162   0.302   3.865
 9870WAT     H129852   6.227   0.230   3.890
 9870WAT     H229853   6.156   0.369   3.939
 9871WAT      O29854   9.887   1.311   9.737
 9871WAT     H129855   9.791   1.295   9.711
 9871WAT     H229856   9.940   1.228   9.721
 9872WAT      O29857   1.430   9.221   0.759
 9872WAT     H129858   1.528   9.226   0.742
 9872WAT     H229859   1.400   9.304   0.807
 9873WAT      O29860   8.471   0.325   8.112
 9873WAT     H129861   8.385   0.370   8.132
 9873WAT     H229862   8.461   0.226   8.124
 9874WAT      O29863   9.818   2.272   0.308
 9874WAT     H129864   9.852   2.183   0.338
 9874WAT     H229865   9.895   2.336   0.300
 9875WAT      O29866   8.435   5.866   1.110
 9875WAT     H129867   8.529   5.883   1.136
 9875WAT     H229868   8.414   5.915   1.025
 9876WAT      O29869   1.428   6.155   2.812
 9876WAT     H129870   1.411   6.200   2.900
 9876WAT     H229871   1.514   6.105   2.816
 9877WAT      O29872   5.268   1.302   8.880
 9877WAT     H129873   5.228   1.390   8.857
 9877WAT     H229874   5.235   1.232   8.816
 9878WAT      O29875   6.134   1.275   6.424
 9878WAT     H129876   6.073   1.352   6.408
 9878WAT     H229877   6.214   1.283   6.364
 9879WAT      O29878   0.082   8.321   6.163
 9879WAT     H129879   0.022   8.264   6.218
 9879WAT     H229880   0.031   8.400   6.129
 9880WAT      O29881   4.645   2.784   5.325
 9880WAT     H129882   4.685   2.869   5.289
 9880WAT     H229883   4.691   2.760   5.410
 9881WAT      O29884   8.265   8.762   8.615
 9881WAT     H129885   8.319   8.842   8.641
 9881WAT     H229886   8.196   8.789   8.548
 9882WAT      O29887   6.187   2.644   5.250
 9882WAT     H129888   6.251   2.591   5.306
 9882WAT     H229889   6.197   2.619   5.154
 9883WAT      O29890   3.192   9.186   7.218
 9883WAT     H129891   3.094   9.194   7.204
 9883WAT     H229892   3.226   9.268   7.264
 9884WAT      O29893   8.061   7.008   8.802
 9884WAT     H129894   7.963   7.028   8.796
 9884WAT     H229895   8.084   6.985   8.897
 9885WAT      O29896   9.352   1.280   2.560
 9885WAT     H129897   9.374   1.331   2.477
 9885WAT     H229898   9.324   1.344   2.632
 9886WAT      O29899   6.682   1.787   3.917
 9886WAT     H129900   6.680   1.689   3.897
 9886WAT     H229901   6.682   1.838   3.831
 9887WAT      O29902   8.000   4.730   9.404
 9887WAT     H129903   7.995   4.636   9.369
 9887WAT     H229904   7.972   4.794   9.332
 9888WAT      O29905   7.373   8.617   6.046
 9888WAT     H129906   7.453   8.633   6.103
 9888WAT     H229907   7.296   8.670   6.082
 9889WAT      O29908   1.908   8.061   4.267
 9889WAT     H129909   1.878   8.004   4.191
 9889WAT     H229910   1.870   8.025   4.353
 9890WAT      O29911   1.853   6.814   2.643
 9890WAT     H129912   1.949   6.789   2.653
 9890WAT     H229913   1.833   6.831   2.547
 9891WAT      O29914   0.088   9.352   0.103
 9891WAT     H129915   0.060   9.376   0.010
 9891WAT     H229916   0.075   9.430   0.163
 9892WAT      O29917   0.119   3.736   6.417
 9892WAT     H129918   0.108   3.715   6.514
 9892WAT     H229919   0.195   3.683   6.380
 9893WAT      O29920   9.349   0.506   5.946
 9893WAT     H129921   9.305   0.515   5.856
 9893WAT     H229922   9.441   0.469   5.934
 9894WAT      O29923   4.369   9.752   0.448
 9894WAT     H129924   4.393   9.684   0.379
 9894WAT     H229925   4.311   9.710   0.518
 9895WAT      O29926   6.956   5.927   0.292
 9895WAT     H129927   6.945   5.997   0.222
 9895WAT     H229928   6.945   5.837   0.250
 9896WAT      O29929   2.145   5.481   9.164
 9896WAT     H129930   2.085   5.501   9.086
 9896WAT     H229931   2.090   5.449   9.241
 9897WAT      O29932   6.290   7.501   4.158
 9897WAT     H129933   6.248   7.531   4.244
 9897WAT     H229934   6.389   7.509   4.164
 9898WAT      O29935   2.720   8.135   2.153
 9898WAT     H129936   2.768   8.210   2.109
 9898WAT     H229937   2.749   8.048   2.111
 9899WAT      O29938   3.708   1.832   3.411
 9899WAT     H129939   3.777   1.766   3.382
 9899WAT     H229940   3.620   1.810   3.368
 9900WAT      O29941   8.055   4.215   9.188
 9900WAT     H129942   8.090   4.220   9.282
 9900WAT     H229943   8.092   4.292   9.135
 9901WAT      O29944   8.802   6.871   8.729
 9901WAT     H129945   8.850   6.938   8.785
 9901WAT     H229946   8.797   6.784   8.777
 9902WAT      O29947   8.085   2.708   8.432
 9902WAT     H129948   8.044   2.769   8.364
 9902WAT     H229949   8.019   2.692   8.506
 9903WAT      O29950   5.737   5.098   1.895
 9903WAT     H129951   5.698   5.096   1.803
 9903WAT     H229952   5.757   5.193   1.921
 9904WAT      O29953   8.241   0.189   6.566
 9904WAT     H129954   8.161   0.220   6.514
 9904WAT     H229955   8.320   0.246   6.543
 9905WAT      O29956   5.290   4.046   9.291
 9905WAT     H129957   5.348   3.966   9.309
 9905WAT     H229958   5.309   4.117   9.359
 9906WAT      O29959   1.367   4.627   1.728
 9906WAT     H129960   1.335   4.609   1.635
 9906WAT     H229961   1.292   4.613   1.792
 9907WAT      O29962   1.214   3.444   8.038
 9907WAT     H129963   1.306   3.407   8.053
 9907WAT     H229964   1.148   3.393   8.093
 9908WAT      O29965   4.164   3.323   3.223
 9908WAT     H129966   4.214   3.405   3.194
 9908WAT     H229967   4.116   3.284   3.144
 9909WAT      O29968   3.079   4.136   3.747
 9909WAT     H129969   2.992   4.182   3.762
 9909WAT     H229970   3.072   4.041   3.777
 9910WAT      O29971   8.825   0.904   5.505
 9910WAT     H129972   8.738   0.912   5.554
 9910WAT     H229973   8.894   0.960   5.550
 9911WAT      O29974   9.297   8.512   4.071
 9911WAT     H129975   9.341   8.437   4.021
 9911WAT     H229976   9.212   8.480   4.111
 9912WAT      O29977   0.991   3.931   5.609
 9912WAT     H129978   1.023   3.991   5.682
 9912WAT     H229979   0.893   3.915   5.621
 9913WAT      O29980   0.239   6.134   6.412
 9913WAT     H129981   0.290   6.061   6.459
 9913WAT     H229982   0.261   6.222   6.453
 9914WAT      O29983   0.231   9.131   0.095
 9914WAT     H129984   0.196   9.100   0.006
 9914WAT     H229985   0.194   9.221   0.116
 9915WAT      O29986   4.579   0.505   1.774
 9915WAT     H129987   4.614   0.468   1.859
 9915WAT     H229988   4.494   0.555   1.792
 9916WAT      O29989   8.121   7.616   4.551
 9916WAT     H129990   8.084   7.669   4.475
 9916WAT     H229991   8.093   7.520   4.542
 9917WAT      O29992   7.525   8.399   1.892
 9917WAT     H129993   7.485   8.332   1.955
 9917WAT     H229994   7.452   8.448   1.846
 9918WAT      O29995   8.060   2.249   9.178
 9918WAT     H129996   8.097   2.217   9.265
 9918WAT     H229997   8.095   2.192   9.104
 9919WAT      O29998   3.882   0.902   1.875
 9919WAT     H129999   3.960   0.847   1.905
 9919WAT     H230000   3.914   0.992   1.844
 9920WAT      O30001   9.487   4.637   8.729
 9920WAT     H130002   9.456   4.704   8.661
 9920WAT     H230003   9.448   4.660   8.818
 9921WAT      O30004   0.915   1.590   8.830
 9921WAT     H130005   0.902   1.601   8.928
 9921WAT     H230006   0.994   1.644   8.800
 9922WAT      O30007   2.645   7.504   7.978
 9922WAT     H130008   2.721   7.490   8.041
 9922WAT     H230009   2.630   7.421   7.924
 9923WAT      O30010   3.051   3.410   8.240
 9923WAT     H130011   3.084   3.504   8.242
 9923WAT     H230012   3.091   3.359   8.317
 9924WAT      O30013   6.897   3.804   4.023
 9924WAT     H130014   6.914   3.730   3.958
 9924WAT     H230015   6.855   3.881   3.975
 9925WAT      O30016   8.689   2.047   0.005
 9925WAT     H130017   8.657   1.971   0.061
 9925WAT     H230018   8.761   2.097   0.054
 9926WAT      O30019   9.463   8.917   8.675
 9926WAT     H130020   9.486   9.014   8.689
 9926WAT     H230021   9.520   8.879   8.602
 9927WAT      O30022   4.548   0.040   0.993
 9927WAT     H130023   4.643   0.048   0.963
 9927WAT     H230024   4.546  -0.000   1.085
 9928WAT      O30025   7.752   7.648   3.550
 9928WAT     H130026   7.701   7.585   3.609
 9928WAT     H230027   7.802   7.713   3.606
 9929WAT      O30028   1.765   3.834   2.071
 9929WAT     H130029   1.679   3.867   2.110
 9929WAT     H230030   1.796   3.897   2.000
 9930WAT      O30031   8.269   9.496   6.848
 9930WAT     H130032   8.331   9.455   6.915
 9930WAT     H230033   8.210   9.425   6.808
 9931WAT      O30034   6.002   7.996   7.854
 9931WAT     H130035   5.906   7.999   7.828
 9931WAT     H230036   6.009   7.987   7.954
 9932WAT      O30037   7.986   0.939   7.747
 9932WAT     H130038   7.893   0.959   7.780
 9932WAT     H230039   8.043   0.910   7.824
 9933WAT      O30040   6.900   4.858   9.483
 9933WAT     H130041   6.948   4.848   9.396
 9933WAT     H230042   6.803   4.875   9.466
 9934WAT      O30043   4.857   1.764   1.892
 9934WAT     H130044   4.822   1.673   1.913
 9934WAT     H230045   4.822   1.829   1.960
 9935WAT      O30046   2.074   6.167   9.429
 9935WAT     H130047   2.128   6.217   9.361
 9935WAT     H230048   2.134   6.129   9.499
 9936WAT      O30049   3.678   0.883   8.294
 9936WAT     H130050   3.770   0.853   8.319
 9936WAT     H230051   3.614   0.859   8.367
 9937WAT      O30052   0.177   2.379   5.689
 9937WAT     H130053   0.224   2.291   5.695
 9937WAT     H230054   0.231   2.449   5.735
 9938WAT      O30055   4.684   3.084   7.256
 9938WAT     H130056   4.622   3.091   7.177
 9938WAT     H230057   4.731   3.171   7.268
 9939WAT      O30058   5.710   8.946   0.442
 9939WAT     H130059   5.752   9.015   0.382
 9939WAT     H230060   5.756   8.947   0.531
 9940WAT      O30061   2.205   1.275   5.774
 9940WAT     H130062   2.185   1.199   5.713
 9940WAT     H230063   2.161   1.358   5.740
 9941WAT      O30064   3.108   7.196   1.553
 9941WAT     H130065   3.142   7.232   1.639
 9941WAT     H230066   3.092   7.098   1.561
 9942WAT      O30067   1.142   8.551   3.175
 9942WAT     H130068   1.160   8.461   3.214
 9942WAT     H230069   1.097   8.541   3.086
 9943WAT      O30070   5.188   2.296   5.080
 9943WAT     H130071   5.139   2.209   5.081
 9943WAT     H230072   5.123   2.371   5.087
 9944WAT      O30073   1.913   5.176   9.291
 9944WAT     H130074   1.853   5.112   9.339
 9944WAT     H230075   1.936   5.139   9.201
 9945WAT      O30076   4.748   9.777   6.431
 9945WAT     H130077   4.684   9.846   6.465
 9945WAT     H230078   4.707   9.730   6.352
 9946WAT      O30079   6.628   6.094   8.342
 9946WAT     H130080   6.595   6.005   8.311
 9946WAT     H230081   6.572   6.127   8.417
 9947WAT      O30082   1.405   3.406   5.876
 9947WAT     H130083   1.495   3.428   5.915
 9947WAT     H230084   1.336   3.411   5.948
 9948WAT      O30085   5.111   4.402   4.268
 9948WAT     H130086   5.184   4.467   4.290
 9948WAT     H230087   5.110   4.384   4.170
 9949WAT      O30088   8.454   2.616   4.157
 9949WAT     H130089   8.423   2.626   4.062
 9949WAT     H230090   8.554   2.603   4.158
 9950WAT      O30091   7.320   2.987   1.202
 9950WAT     H130092   7.289   3.081   1.216
 9950WAT     H230093   7.241   2.926   1.206
 9951WAT      O30094   6.294   5.309   8.482
 9951WAT     H130095   6.300   5.398   8.527
 9951WAT     H230096   6.318   5.237   8.546
 9952WAT      O30097   2.595   6.337   2.051
 9952WAT     H130098   2.599   6.322   1.952
 9952WAT     H230099   2.687   6.331   2.089
 9953WAT      O30100   7.707   0.727   7.661
 9953WAT     H130101   7.624   0.677   7.685
 9953WAT     H230102   7.742   0.774   7.742
 9954WAT      O30103   8.744   5.408   5.629
 9954WAT     H130104   8.711   5.500   5.648
 9954WAT     H230105   8.671   5.342   5.646
 9955WAT      O30106   1.115   9.596   2.127
 9955WAT     H130107   1.084   9.677   2.177
 9955WAT     H230108   1.092   9.605   2.031
 9956WAT      O30109   9.318   8.009   7.408
 9956WAT     H130110   9.324   8.084   7.342
 9956WAT     H230111   9.300   7.923   7.360
 9957WAT      O30112   4.905   8.661   4.051
 9957WAT     H130113   4.985   8.646   4.110
 9957WAT     H230114   4.825   8.617   4.092
 9958WAT      O30115   4.857   5.173   7.714
 9958WAT     H130116   4.757   5.181   7.715
 9958WAT     H230117   4.889   5.173   7.619
 9959WAT      O30118   8.738   9.313   6.660
 9959WAT     H130119   8.697   9.404   6.671
 9959WAT     H230120   8.837   9.322   6.654
 9960WAT      O30121   7.498   2.773   0.786
 9960WAT     H130122   7.469   2.831   0.710
 9960WAT     H230123   7.562   2.823   0.844
 9961WAT      O30124   5.109   7.639   3.248
 9961WAT     H130125   5.038   7.572   3.270
 9961WAT     H230126   5.198   7.603   3.275
 9962WAT      O30127   6.825   4.475   0.528
 9962WAT     H130128   6.855   4.380   0.535
 9962WAT     H230129   6.809   4.498   0.432
 9963WAT      O30130   6.437   4.480   0.001
 9963WAT     H130131   6.458   4.496   0.097
 9963WAT     H230132   6.369   4.547  -0.030
 9964WAT      O30133   8.039   0.560   7.863
 9964WAT     H130134   7.986   0.542   7.945
 9964WAT     H230135   7.986   0.617   7.800
 9965WAT      O30136   0.548   2.620   3.515
 9965WAT     H130137   0.510   2.552   3.452
 9965WAT     H230138   0.503   2.708   3.500
 9966WAT      O30139   3.077   2.516   1.949
 9966WAT     H130140   3.134   2.441   1.913
 9966WAT     H230141   2.982   2.500   1.924
 9967WAT      O30142   1.072   5.421   6.583
 9967WAT     H130143   1.068   5.381   6.675
 9967WAT     H230144   1.152   5.385   6.535
 9968WAT      O30145   0.522   9.230   5.476
 9968WAT     H130146   0.597   9.272   5.425
 9968WAT     H230147   0.476   9.161   5.420
 9969WAT      O30148   1.973   9.603   3.898
 9969WAT     H130149   1.910   9.609   3.976
 9969WAT     H230150   2.067   9.604   3.931
 9970WAT      O30151   2.264   6.700   9.202
 9970WAT     H130152   2.244   6.719   9.298
 9970WAT     H230153   2.207   6.624   9.170
 9971WAT      O30154   5.650   6.553   8.638
 9971WAT     H130155   5.693   6.611   8.707
 9971WAT     H230156   5.571   6.507   8.678
 9972WAT      O30157   6.441   3.143   7.001
 9972WAT     H130158   6.526   3.194   7.014
 9972WAT     H230159   6.374   3.172   7.069
 9973WAT      O30160   9.805   0.303   6.423
 9973WAT     H130161   9.844   0.347   6.503
 9973WAT     H230162   9.815   0.203   6.432
 9974WAT      O30163   3.140   3.894   4.784
 9974WAT     H130164   3.083   3.946   4.721
 9974WAT     H230165   3.212   3.847   4.734
 9975WAT      O30166   2.400   0.250   1.479
 9975WAT     H130167   2.449   0.237   1.393
 9975WAT     H230168   2.459   0.223   1.555
 9976WAT      O30169   0.674   7.474   7.962
 9976WAT     H130170   0.671   7.443   8.057
 9976WAT     H230171   0.740   7.419   7.911
 9977WAT      O30172   9.700   4.009   7.890
 9977WAT     H130173   9.778   4.050   7.842
 9977WAT     H230174   9.731   3.928   7.939
 9978WAT      O30175   1.966   5.436   2.175
 9978WAT     H130176   1.995   5.386   2.093
 9978WAT     H230177   2.041   5.495   2.206
 9979WAT      O30178   5.389   9.804   3.812
 9979WAT     H130179   5.308   9.864   3.812
 9979WAT     H230180   5.359   9.708   3.808
 9980WAT      O30181   5.627   0.495   6.970
 9980WAT     H130182   5.546   0.537   6.927
 9980WAT     H230183   5.708   0.517   6.917
 9981WAT      O30184   5.106   2.688   0.244
 9981WAT     H130185   5.135   2.780   0.271
 9981WAT     H230186   5.117   2.677   0.145
 9982WAT      O30187   9.404   4.261   0.556
 9982WAT     H130188   9.315   4.307   0.565
 9982WAT     H230189   9.401   4.198   0.479
 9983WAT      O30190   6.554   9.137   3.428
 9983WAT     H130191   6.631   9.195   3.398
 9983WAT     H230192   6.520   9.171   3.515
 9984WAT      O30193   6.935   6.339   1.524
 9984WAT     H130194   6.984   6.370   1.443
 9984WAT     H230195   6.992   6.273   1.574
 9985WAT      O30196   0.269   6.524   9.357
 9985WAT     H130197   0.319   6.483   9.433
 9985WAT     H230198   0.171   6.513   9.371
 9986WAT      O30199   4.816   4.290   0.465
 9986WAT     H130200   4.878   4.233   0.520
 9986WAT     H230201   4.834   4.386   0.485
 9987WAT      O30202   3.984   1.056   9.591
 9987WAT     H130203   3.895   1.064   9.635
 9987WAT     H230204   3.977   0.996   9.511
 9988WAT      O30205   7.992   3.496   9.281
 9988WAT     H130206   8.054   3.428   9.318
 9988WAT     H230207   8.021   3.587   9.310
 9989WAT      O30208   9.392   5.687   0.058
 9989WAT     H130209   9.457   5.652   0.125
 9989WAT     H230210   9.390   5.627  -0.022
 9990WAT      O30211   6.295   8.166   0.238
 9990WAT     H130212   6.231   8.093   0.214
 9990WAT     H230213   6.382   8.125   0.267
 9991WAT      O30214   1.449   6.352   6.419
 9991WAT     H130215   1.528   6.415   6.416
 9991WAT     H230216   1.379   6.383   6.354
 9992WAT      O30217   0.690   9.045   3.258
 9992WAT     H130218   0.713   8.987   3.336
 9992WAT     H230219   0.773   9.065   3.206
 9993WAT      O30220   9.458   7.163   0.093
 9993WAT     H130221   9.497   7.096   0.029
 9993WAT     H230222   9.513   7.165   0.176
 9994WAT      O30223   5.572   5.206   9.683
 9994WAT     H130224   5.667   5.224   9.710
 9994WAT     H230225   5.566   5.112   9.647
 9995WAT      O30226   8.230   1.642   3.222
 9995WAT     H130227   8.248   1.597   3.135
 9995WAT     H230228   8.204   1.737   3.206
 9996WAT      O30229   4.994   4.583   7.143
 9996WAT     H130230   5.088   4.568   7.111
 9996WAT     H230231   4.995   4.597   7.242
 9997WAT      O30232   9.045   2.172   2.041
 9997WAT     H130233   9.039   2.174   1.941
 9997WAT     H230234   9.005   2.087   2.075
 9998WAT      O30235   7.461   5.505   4.915
 9998WAT     H130236   7.412   5.441   4.857
 9998WAT     H230237   7.481   5.463   5.004
 9999WAT      O30238   2.102   3.208   4.471
 9999WAT     H130239   2.042   3.129   4.455
 9999WAT     H230240   2.048   3.286   4.500
10000WAT      O30241   4.044   4.478   8.466
10000WAT     H130242   4.118   4.545   8.473
10000WAT     H230243   3.956   4.526   8.463
10001WAT      O30244   0.132   9.704   5.601
10001WAT     H130245   0.069   9.733   5.529
10001WAT     H230246   0.111   9.752   5.686
10002WAT      O30247   0.827   6.361   7.874
10002WAT     H130248   0.776   6.444   7.849
10002WAT     H230249   0.849   6.364   7.972
10003WAT      O30250   6.919   0.934   5.765
10003WAT     H130251   6.956   0.912   5.675
10003WAT     H230252   6.820   0.942   5.759
10004WAT      O30253   9.644   0.602   8.593
10004WAT     H130254   9.733   0.647   8.578
10004WAT     H230255   9.574   0.649   8.539
10005WAT      O30256   4.860   8.514   4.844
10005WAT     H130257   4.949   8.538   4.883
10005WAT     H230258   4.833   8.582   4.777
10006WAT      O30259   0.636   9.360   0.033
10006WAT     H130260   0.719   9.307   0.020
10006WAT     H230261   0.562   9.322  -0.024
10007WAT      O30262   4.596   8.941   1.316
10007WAT     H130263   4.672   8.979   1.368
10007WAT     H230264   4.612   8.956   1.218
10008WAT      O30265   3.995   4.412   8.907
10008WAT     H130266   4.030   4.420   9.000
10008WAT     H230267   3.975   4.315   8.887
10009WAT      O30268   1.869   2.537   2.667
10009WAT     H130269   1.877   2.632   2.636
10009WAT     H230270   1.956   2.490   2.655
10010WAT      O30271   9.227   1.875   5.061
10010WAT     H130272   9.198   1.788   5.101
10010WAT     H230273   9.213   1.871   4.962
10011WAT      O30274   1.937   0.919   3.012
10011WAT     H130275   1.917   0.867   3.095
10011WAT     H230276   1.858   0.914   2.950
10012WAT      O30277   0.748   0.004   4.038
10012WAT     H130278   0.806  -0.077   4.037
10012WAT     H230279   0.801   0.083   4.008
10013WAT      O30280   6.145   4.888   3.260
10013WAT     H130281   6.148   4.957   3.333
10013WAT     H230282   6.218   4.907   3.194
10014WAT      O30283   3.132   7.915   2.949
10014WAT     H130284   3.156   8.006   2.915
10014WAT     H230285   3.094   7.923   3.041
10015WAT      O30286   1.412   9.338   6.696
10015WAT     H130287   1.365   9.256   6.730
10015WAT     H230288   1.346   9.413   6.688
10016WAT      O30289   5.563   6.437   6.010
10016WAT     H130290   5.557   6.433   5.911
10016WAT     H230291   5.514   6.518   6.044
10017WAT      O30292   7.207   4.486   5.967
10017WAT     H130293   7.278   4.552   5.994
10017WAT     H230294   7.124   4.536   5.943
10018WAT      O30295   1.609   0.864   1.905
10018WAT     H130296   1.583   0.836   1.812
10018WAT     H230297   1.705   0.892   1.905
10019WAT      O30298   3.178   0.589   6.531
10019WAT     H130299   3.094   0.585   6.585
10019WAT     H230300   3.228   0.672   6.553
10020WAT      O30301   8.376   9.275   4.600
10020WAT     H130302   8.284   9.236   4.594
10020WAT     H230303   8.398   9.293   4.696
10021WAT      O30304   9.062   5.203   7.893
10021WAT     H130305   9.119   5.207   7.812
10021WAT     H230306   9.027   5.110   7.905
10022WAT      O30307   6.867   0.040   0.604
10022WAT     H130308   6.842   0.136   0.592
10022WAT     H230309   6.956   0.023   0.562
10023WAT      O30310   5.749   2.194   1.694
10023WAT     H130311   5.740   2.293   1.688
10023WAT     H230312   5.784   2.158   1.608
10024WAT      O30313   0.291   9.622   1.276
10024WAT     H130314   0.234   9.699   1.249
10024WAT     H230315   0.337   9.585   1.195
10025WAT      O30316   6.471   6.091   8.621
10025WAT     H130317   6.434   6.033   8.694
10025WAT     H230318   6.464   6.187   8.647
10026WAT      O30319   3.313   4.751   3.502
10026WAT     H130320   3.217   4.779   3.508
10026WAT     H230321   3.347   4.725   3.592
10027WAT      O30322   1.058   9.778   7.252
10027WAT     H130323   1.127   9.760   7.182
10027WAT     H230324   1.093   9.752   7.342
10028WAT      O30325   1.907   5.109   6.687
10028WAT     H130326   1.883   5.030   6.744
10028WAT     H230327   1.966   5.171   6.738
10029WAT      O30328   6.037   2.586   2.629
10029WAT     H130329   6.048   2.604   2.531
10029WAT     H230330   6.127   2.571   2.670
10030WAT      O30331   6.211   4.043   1.342
10030WAT     H130332   6.254   4.030   1.431
10030WAT     H230333   6.256   3.985   1.274
10031WAT      O30334   2.861   3.038   6.705
10031WAT     H130335   2.775   3.071   6.667
10031WAT     H230336   2.894   3.101   6.775
10032WAT      O30337   7.264   8.989   5.301
10032WAT     H130338   7.325   9.069   5.300
10032WAT     H230339   7.318   8.906   5.289
10033WAT      O30340   7.420   3.839   2.979
10033WAT     H130341   7.387   3.780   2.905
10033WAT     H230342   7.489   3.791   3.032
10034WAT      O30343   8.143   3.515   3.068
10034WAT     H130344   8.073   3.453   3.103
10034WAT     H230345   8.138   3.602   3.117
10035WAT      O30346   5.960   6.462   5.358
10035WAT     H130347   5.952   6.544   5.415
10035WAT     H230348   5.964   6.381   5.417
10036WAT      O30349   4.114   5.894   5.145
10036WAT     H130350   4.156   5.895   5.236
10036WAT     H230351   4.186   5.896   5.075
10037WAT      O30352  -0.004   7.551   4.448
10037WAT     H130353   0.061   7.555   4.524
10037WAT     H230354   0.017   7.471   4.392
10038WAT      O30355   3.778   7.117   7.317
10038WAT     H130356   3.747   7.023   7.334
10038WAT     H230357   3.860   7.115   7.259
10039WAT      O30358   3.846   5.741   7.022
10039WAT     H130359   3.751   5.757   7.047
10039WAT     H230360   3.905   5.804   7.073
10040WAT      O30361   3.017   3.764   4.338
10040WAT     H130362   3.100   3.810   4.307
10040WAT     H230363   3.037   3.667   4.354
10041WAT      O30364   3.096   2.153   4.423
10041WAT     H130365   3.045   2.239   4.426
10041WAT     H230366   3.107   2.124   4.328
10042WAT      O30367   2.167   6.880   2.624
10042WAT     H130368   2.132   6.804   2.678
10042WAT     H230369   2.244   6.849   2.569
10043WAT      O30370   3.474   8.292   5.309
10043WAT     H130371   3.450   8.201   5.344
10043WAT     H230372   3.431   8.362   5.367
10044WAT      O30373   4.305   0.189   3.947
10044WAT     H130374   4.402   0.214   3.944
10044WAT     H230375   4.255   0.242   3.878
10045WAT      O30376   6.152   7.068   4.913
10045WAT     H130377   6.125   7.076   5.009
10045WAT     H230378   6.154   7.160   4.872
10046WAT      O30379   2.391   7.388   0.633
10046WAT     H130380   2.482   7.367   0.668
10046WAT     H230381   2.350   7.305   0.594
10047WAT      O30382   2.866   0.968   2.253
10047WAT     H130383   2.914   0.936   2.335
10047WAT     H230384   2.848   1.066   2.261
10048WAT      O30385   2.227   7.491   8.716
10048WAT     H130386   2.274   7.424   8.774
10048WAT     H230387   2.128   7.485   8.732
10049WAT      O30388   3.840   6.573   5.037
10049WAT     H130389   3.814   6.498   4.976
10049WAT     H230390   3.940   6.585   5.033
10050WAT      O30391   4.287   2.032   5.044
10050WAT     H130392   4.271   2.114   5.099
10050WAT     H230393   4.382   2.031   5.013
10051WAT      O30394   6.984   6.832   6.390
10051WAT     H130395   6.962   6.812   6.295
10051WAT     H230396   6.982   6.748   6.444
10052WAT      O30397   8.872   9.836   4.356
10052WAT     H130398   8.779   9.830   4.392
10052WAT     H230399   8.871   9.817   4.257
10053WAT      O30400   1.569   3.545   2.312
10053WAT     H130401   1.479   3.572   2.278
10053WAT     H230402   1.602   3.467   2.259
10054WAT      O30403   7.744   8.515   6.545
10054WAT     H130404   7.654   8.473   6.534
10054WAT     H230405   7.777   8.500   6.638
10055WAT      O30406   0.399   6.775   2.764
10055WAT     H130407   0.490   6.758   2.728
10055WAT     H230408   0.334   6.711   2.722
10056WAT      O30409   9.577   9.351   8.276
10056WAT     H130410   9.658   9.397   8.241
10056WAT     H230411   9.496   9.407   8.257
10057WAT      O30412   5.353   7.417   6.584
10057WAT     H130413   5.304   7.450   6.503
10057WAT     H230414   5.407   7.492   6.623
10058WAT      O30415   5.265   3.283   8.620
10058WAT     H130416   5.336   3.353   8.629
10058WAT     H230417   5.217   3.296   8.533
10059WAT      O30418   9.208   1.766   2.692
10059WAT     H130419   9.299   1.778   2.652
10059WAT     H230420   9.147   1.839   2.660
10060WAT      O30421   3.221   2.935   8.125
10060WAT     H130422   3.301   2.988   8.098
10060WAT     H230423   3.216   2.851   8.071
10061WAT      O30424   8.997   8.394   6.647
10061WAT     H130425   8.958   8.485   6.653
10061WAT     H230426   8.924   8.326   6.651
10062WAT      O30427   0.159   6.228   5.246
10062WAT     H130428   0.214   6.199   5.324
10062WAT     H230429   0.110   6.312   5.270
10063WAT      O30430   8.132   9.290   9.032
10063WAT     H130431   8.132   9.389   9.021
10063WAT     H230432   8.218   9.253   8.996
10064WAT      O30433   2.917   0.790   0.878
10064WAT     H130434   2.932   0.859   0.808
10064WAT     H230435   2.823   0.796   0.912
10065WAT      O30436   0.043   7.130   2.962
10065WAT     H130437   0.113   7.189   2.923
10065WAT     H230438   0.021   7.161   3.054
10066WAT      O30439   1.340   3.121   1.453
10066WAT     H130440   1.345   3.022   1.451
10066WAT     H230441   1.325   3.153   1.546
10067WAT      O30442   7.695   3.138   4.675
10067WAT     H130443   7.680   3.189   4.759
10067WAT     H230444   7.792   3.117   4.665
10068WAT      O30445   3.144   1.608   7.472
10068WAT     H130446   3.190   1.611   7.561
10068WAT     H230447   3.052   1.571   7.484
10069WAT      O30448   1.771   9.801   3.050
10069WAT     H130449   1.840   9.871   3.069
10069WAT     H230450   1.789   9.721   3.107
10070WAT      O30451   1.020   9.823   4.738
10070WAT     H130452   1.014   9.738   4.791
10070WAT     H230453   1.088   9.813   4.667
10071WAT      O30454   1.955   9.540   7.810
10071WAT     H130455   1.989   9.622   7.764
10071WAT     H230456   1.984   9.541   7.906
10072WAT      O30457   8.948   7.398   0.400
10072WAT     H130458   8.996   7.371   0.316
10072WAT     H230459   8.892   7.321   0.432
10073WAT      O30460   9.475   5.671   8.395
10073WAT     H130461   9.522   5.725   8.464
10073WAT     H230462   9.398   5.622   8.437
10074WAT      O30463   4.328   4.980   9.562
10074WAT     H130464   4.402   4.922   9.527
10074WAT     H230465   4.247   4.968   9.504
10075WAT      O30466   6.823   1.025   8.335
10075WAT     H130467   6.764   1.091   8.288
10075WAT     H230468   6.771   0.941   8.352
10076WAT      O30469   7.465   6.492   1.061
10076WAT     H130470   7.542   6.529   1.114
10076WAT     H230471   7.450   6.397   1.087
10077WAT      O30472   1.906   2.464   3.757
10077WAT     H130473   1.979   2.525   3.786
10077WAT     H230474   1.843   2.449   3.834
10078WAT      O30475   7.718   2.987   2.016
10078WAT     H130476   7.691   3.064   1.958
10078WAT     H230477   7.695   3.008   2.111
10079WAT      O30478   8.981   8.544   2.735
10079WAT     H130479   8.927   8.601   2.673
10079WAT     H230480   8.965   8.447   2.715
10080WAT      O30481   8.424   8.260   1.609
10080WAT     H130482   8.470   8.294   1.691
10080WAT     H230483   8.489   8.256   1.534
10081WAT      O30484   3.158   1.108   6.732
10081WAT     H130485   3.234   1.064   6.781
10081WAT     H230486   3.079   1.048   6.733
10082WAT      O30487   0.571   4.871   5.310
10082WAT     H130488   0.646   4.839   5.367
10082WAT     H230489   0.560   4.811   5.231
10083WAT      O30490   8.868   0.850   3.564
10083WAT     H130491   8.854   0.948   3.577
10083WAT     H230492   8.846   0.826   3.469
10084WAT      O30493   4.824   1.677   6.015
10084WAT     H130494   4.771   1.755   5.983
10084WAT     H230495   4.910   1.672   5.964
10085WAT      O30496   6.037   8.784   6.655
10085WAT     H130497   6.058   8.811   6.561
10085WAT     H230498   6.102   8.826   6.718
10086WAT      O30499   3.803   2.438   1.512
10086WAT     H130500   3.863   2.499   1.461
10086WAT     H230501   3.850   2.351   1.528
10087WAT      O30502   4.238   5.411   5.990
10087WAT     H130503   4.235   5.403   6.089
10087WAT     H230504   4.151   5.446   5.956
10088WAT      O30505   3.419   2.730   3.032
10088WAT     H130506   3.418   2.830   3.032
10088WAT     H230507   3.328   2.696   3.007
10089WAT      O30508   9.722   0.249   1.324
10089WAT     H130509   9.757   0.315   1.257
10089WAT     H230510   9.798   0.217   1.381
10090WAT      O30511   3.628   2.303   0.421
10090WAT     H130512   3.709   2.361   0.424
10090WAT     H230513   3.622   2.249   0.505
10091WAT      O30514   7.589   3.004   9.447
10091WAT     H130515   7.659   3.076   9.450
10091WAT     H230516   7.499   3.045   9.434
10092WAT      O30517   3.674   8.193   2.930
10092WAT     H130518   3.675   8.194   3.030
10092WAT     H230519   3.628   8.110   2.898
10093WAT      O30520   0.621   1.094   1.816
10093WAT     H130521   0.534   1.121   1.774
10093WAT     H230522   0.604   1.018   1.879
10094WAT      O30523   0.824   9.774   6.580
10094WAT     H130524   0.841   9.739   6.673
10094WAT     H230525   0.831   9.874   6.581
10095WAT      O30526   4.769   5.828   2.428
10095WAT     H130527   4.715   5.745   2.420
10095WAT     H230528   4.756   5.884   2.346
10096WAT      O30529   4.850   4.557   3.773
10096WAT     H130530   4.889   4.557   3.865
10096WAT     H230531   4.839   4.651   3.741
10097WAT      O30532   7.918   4.889   0.560
10097WAT     H130533   7.847   4.820   0.558
10097WAT     H230534   7.877   4.980   0.567
10098WAT      O30535   2.866   8.465   5.529
10098WAT     H130536   2.921   8.547   5.510
10098WAT     H230537   2.818   8.437   5.446
10099WAT      O30538   0.932   0.774   2.175
10099WAT     H130539   0.969   0.824   2.097
10099WAT     H230540   0.928   0.676   2.154
10100WAT      O30541   4.318   7.276   8.214
10100WAT     H130542   4.253   7.301   8.285
10100WAT     H230543   4.288   7.191   8.170
10101WAT      O30544   6.335   1.800   2.963
10101WAT     H130545   6.397   1.879   2.971
10101WAT     H230546   6.344   1.760   2.872
10102WAT      O30547   1.509   6.583   5.374
10102WAT     H130548   1.541   6.656   5.434
10102WAT     H230549   1.588   6.530   5.341
10103WAT      O30550   4.831   4.701   9.714
10103WAT     H130551   4.817   4.763   9.636
10103WAT     H230552   4.914   4.728   9.763
10104WAT      O30553   1.113   3.643   9.253
10104WAT     H130554   1.203   3.620   9.290
10104WAT     H230555   1.117   3.643   9.153
10105WAT      O30556   1.671   9.153   8.893
10105WAT     H130557   1.610   9.075   8.906
10105WAT     H230558   1.698   9.159   8.797
10106WAT      O30559   7.668   4.661   0.103
10106WAT     H130560   7.630   4.570   0.082
10106WAT     H230561   7.593   4.725   0.121
10107WAT      O30562   1.125   8.304   3.957
10107WAT     H130563   1.080   8.369   4.019
10107WAT     H230564   1.224   8.305   3.973
10108WAT      O30565   2.974   7.328   5.044
10108WAT     H130566   2.965   7.235   5.007
10108WAT     H230567   2.902   7.386   5.005
10109WAT      O30568   4.252   4.880   7.570
10109WAT     H130569   4.332   4.876   7.631
10109WAT     H230570   4.278   4.847   7.479
10110WAT      O30571   9.298   7.146   4.012
10110WAT     H130572   9.294   7.052   3.977
10110WAT     H230573   9.235   7.155   4.090
10111WAT      O30574   0.778   3.671   2.247
10111WAT     H130575   0.773   3.652   2.345
10111WAT     H230576   0.688   3.703   2.215
10112WAT      O30577   1.677   5.033   7.311
10112WAT     H130578   1.592   4.981   7.303
10112WAT     H230579   1.663   5.111   7.373
10113WAT      O30580   5.177   2.576   2.635
10113WAT     H130581   5.109   2.639   2.675
10113WAT     H230582   5.267   2.596   2.672
10114WAT      O30583   2.955   9.622   7.267
10114WAT     H130584   2.908   9.588   7.186
10114WAT     H230585   3.049   9.645   7.244
10115WAT      O30586   2.973   9.332   0.424
10115WAT     H130587   3.030   9.314   0.504
10115WAT     H230588   2.894   9.270   0.424
10116WAT      O30589   6.405   1.249   2.149
10116WAT     H130590   6.464   1.326   2.174
10116WAT     H230591   6.458   1.182   2.097
10117WAT      O30592   0.315   0.186   8.704
10117WAT     H130593   0.250   0.252   8.742
10117WAT     H230594   0.367   0.228   8.630
10118WAT      O30595   5.710   8.921   9.225
10118WAT     H130596   5.784   8.871   9.180
10118WAT     H230597   5.623   8.897   9.183
10119WAT      O30598   2.731   3.324   9.560
10119WAT     H130599   2.829   3.318   9.578
10119WAT     H230600   2.690   3.234   9.572
10120WAT      O30601   9.744   6.412   8.355
10120WAT     H130602   9.681   6.344   8.392
10120WAT     H230603   9.788   6.376   8.273
10121WAT      O30604   7.405   3.538   6.118
10121WAT     H130605   7.405   3.638   6.117
10121WAT     H230606   7.499   3.504   6.112
10122WAT      O30607   6.239   1.174   4.999
10122WAT     H130608   6.244   1.082   5.037
10122WAT     H230609   6.321   1.225   5.023
10123WAT      O30610   2.310   3.342   7.010
10123WAT     H130611   2.353   3.340   6.920
10123WAT     H230612   2.211   3.342   7.001
10124WAT      O30613   2.012   5.122   0.132
10124WAT     H130614   1.975   5.053   0.070
10124WAT     H230615   1.937   5.173   0.174
10125WAT      O30616   2.666   5.550   3.622
10125WAT     H130617   2.696   5.473   3.566
10125WAT     H230618   2.568   5.543   3.639
10126WAT      O30619   5.729   3.394   8.506
10126WAT     H130620   5.764   3.461   8.441
10126WAT     H230621   5.792   3.385   8.583
10127WAT      O30622   7.668   4.689   6.350
10127WAT     H130623   7.736   4.640   6.404
10127WAT     H230624   7.710   4.723   6.266
10128WAT      O30625   5.318   2.169   4.819
10128WAT     H130626   5.417   2.179   4.828
10128WAT     H230627   5.273   2.234   4.879
10129WAT      O30628   4.546   6.444   3.104
10129WAT     H130629   4.628   6.492   3.133
10129WAT     H230630   4.521   6.472   3.011
10130WAT      O30631   7.999   0.174   3.846
10130WAT     H130632   8.067   0.245   3.863
10130WAT     H230633   7.937   0.167   3.924
10131WAT      O30634   0.210   7.818   4.403
10131WAT     H130635   0.173   7.899   4.358
10131WAT     H230636   0.158   7.800   4.487
10132WAT      O30637   5.537   0.270   0.091
10132WAT     H130638   5.470   0.278   0.164
10132WAT     H230639   5.561   0.361   0.058
10133WAT      O30640   0.810   5.190   2.985
10133WAT     H130641   0.880   5.231   3.043
10133WAT     H230642   0.757   5.262   2.940
10134WAT      O30643   0.820   4.698   8.850
10134WAT     H130644   0.782   4.636   8.782
10134WAT     H230645   0.857   4.779   8.805
10135WAT      O30646   8.441   8.979   8.643
10135WAT     H130647   8.384   9.060   8.637
10135WAT     H230648   8.498   8.985   8.725
10136WAT      O30649   1.015   5.388   8.701
10136WAT     H130650   1.067   5.308   8.731
10136WAT     H230651   1.077   5.453   8.657
10137WAT      O30652   7.382   9.127   8.065
10137WAT     H130653   7.333   9.104   7.981
10137WAT     H230654   7.476   9.094   8.059
10138WAT      O30655   9.024   8.417   1.194
10138WAT     H130656   9.011   8.485   1.267
10138WAT     H230657   8.939   8.366   1.181
10139WAT      O30658   3.436   2.733   1.414
10139WAT     H130659   3.392   2.644   1.404
10139WAT     H230660   3.528   2.720   1.451
10140WAT      O30661   6.685   7.176   6.078
10140WAT     H130662   6.772   7.135   6.105
10140WAT     H230663   6.610   7.126   6.121
10141WAT      O30664   3.538   0.525   4.037
10141WAT     H130665   3.547   0.438   3.988
10141WAT     H230666   3.442   0.541   4.058
10142WAT      O30667   1.361   1.140   8.237
10142WAT     H130668   1.327   1.111   8.327
10142WAT     H230669   1.429   1.075   8.204
10143WAT      O30670   6.629   4.405   8.348
10143WAT     H130671   6.705   4.444   8.295
10143WAT     H230672   6.543   4.443   8.316
10144WAT      O30673   9.189   5.288   4.165
10144WAT     H130674   9.207   5.355   4.092
10144WAT     H230675   9.222   5.324   4.252
10145WAT      O30676   3.746   9.698   6.266
10145WAT     H130677   3.791   9.654   6.343
10145WAT     H230678   3.798   9.680   6.182
10146WAT      O30679   9.726   9.528   5.866
10146WAT     H130680   9.749   9.577   5.949
10146WAT     H230681   9.810   9.493   5.824
10147WAT      O30682   3.136   9.759   0.066
10147WAT     H130683   3.225   9.733   0.029
10147WAT     H230684   3.067   9.693   0.037
10148WAT      O30685   5.815   1.890   1.842
10148WAT     H130686   5.893   1.900   1.904
10148WAT     H230687   5.734   1.930   1.884
10149WAT      O30688   4.051   5.994   8.381
10149WAT     H130689   4.095   6.070   8.428
10149WAT     H230690   4.106   5.911   8.395
10150WAT      O30691   0.602   8.879   5.254
10150WAT     H130692   0.641   8.895   5.163
10150WAT     H230693   0.521   8.935   5.266
10151WAT      O30694   4.179   5.510   7.205
10151WAT     H130695   4.206   5.468   7.118
10151WAT     H230696   4.208   5.606   7.206
10152WAT      O30697   8.103   8.867   6.950
10152WAT     H130698   8.153   8.809   6.885
10152WAT     H230699   8.132   8.845   7.043
10153WAT      O30700   9.648   8.268   2.046
10153WAT     H130701   9.741   8.289   2.016
10153WAT     H230702   9.618   8.336   2.113
10154WAT      O30703   2.666   4.035   0.699
10154WAT     H130704   2.635   3.942   0.685
10154WAT     H230705   2.609   4.080   0.768
10155WAT      O30706   7.245   8.167   1.003
10155WAT     H130707   7.211   8.108   0.930
10155WAT     H230708   7.171   8.185   1.068
10156WAT      O30709   2.507   0.709   6.119
10156WAT     H130710   2.533   0.803   6.138
10156WAT     H230711   2.477   0.665   6.203
10157WAT      O30712   8.259   8.635   1.744
10157WAT     H130713   8.285   8.563   1.679
10157WAT     H230714   8.193   8.696   1.700
10158WAT      O30715   6.986   1.435   4.643
10158WAT     H130716   6.889   1.419   4.658
10158WAT     H230717   7.029   1.353   4.607
10159WAT      O30718   4.927   6.836   3.509
10159WAT     H130719   4.901   6.927   3.477
10159WAT     H230720   4.913   6.831   3.608
10160WAT      O30721   1.049   6.896   8.560
10160WAT     H130722   1.083   6.971   8.618
10160WAT     H230723   0.984   6.932   8.494
10161WAT      O30724   5.261   3.720   6.311
10161WAT     H130725   5.234   3.688   6.220
10161WAT     H230726   5.291   3.815   6.306
10162WAT      O30727   0.688   7.609   0.322
10162WAT     H130728   0.639   7.579   0.240
10162WAT     H230729   0.780   7.639   0.297
10163WAT      O30730   7.557   9.799   7.868
10163WAT     H130731   7.527   9.819   7.775
10163WAT     H230732   7.626   9.866   7.897
10164WAT      O30733   4.112   3.643   3.970
10164WAT     H130734   4.033   3.639   4.030
10164WAT     H230735   4.183   3.701   4.011
10165WAT      O30736   8.957   6.122   8.629
10165WAT     H130737   8.911   6.111   8.717
10165WAT     H230738   9.050   6.153   8.643
10166WAT      O30739   3.634   6.753   9.054
10166WAT     H130740   3.673   6.703   9.132
10166WAT     H230741   3.536   6.737   9.050
10167WAT      O30742   9.278   0.713   2.167
10167WAT     H130743   9.348   0.667   2.223
10167WAT     H230744   9.211   0.645   2.137
10168WAT      O30745   3.977   0.882   2.537
10168WAT     H130746   3.925   0.922   2.462
10168WAT     H230747   4.037   0.951   2.577
10169WAT      O30748   2.090   0.082   2.150
10169WAT     H130749   2.112   0.009   2.085
10169WAT     H230750   2.104   0.049   2.243
10170WAT      O30751   6.198   5.116   6.231
10170WAT     H130752   6.118   5.156   6.276
10170WAT     H230753   6.270   5.184   6.224
10171WAT      O30754   0.968   5.779   2.631
10171WAT     H130755   0.963   5.679   2.638
10171WAT     H230756   1.050   5.811   2.679
10172WAT      O30757   8.798   2.859   8.587
10172WAT     H130758   8.811   2.836   8.683
10172WAT     H230759   8.727   2.928   8.578
10173WAT      O30760   1.328   5.006   2.709
10173WAT     H130761   1.379   5.085   2.674
10173WAT     H230762   1.329   5.009   2.809
10174WAT      O30763   9.359   5.395   5.667
10174WAT     H130764   9.291   5.456   5.625
10174WAT     H230765   9.313   5.314   5.703
10175WAT      O30766   7.779   1.286   9.689
10175WAT     H130767   7.714   1.336   9.747
10175WAT     H230768   7.742   1.196   9.667
10176WAT      O30769   8.670   8.958   0.207
10176WAT     H130770   8.679   8.913   0.296
10176WAT     H230771   8.573   8.973   0.187
10177WAT      O30772   6.791   5.453   8.703
10177WAT     H130773   6.841   5.445   8.789
10177WAT     H230774   6.753   5.545   8.695
10178WAT      O30775   2.966   5.600   3.943
10178WAT     H130776   3.016   5.553   3.870
10178WAT     H230777   2.919   5.532   4.000
10179WAT      O30778   2.730   2.581   0.663
10179WAT     H130779   2.663   2.601   0.734
10179WAT     H230780   2.735   2.658   0.599
10180WAT      O30781   0.702   2.122   9.190
10180WAT     H130782   0.795   2.151   9.169
10180WAT     H230783   0.684   2.034   9.146
10181WAT      O30784   7.751   8.401   9.792
10181WAT     H130785   7.705   8.413   9.704
10181WAT     H230786   7.694   8.346   9.852
10182WAT      O30787   4.859   0.992   5.333
10182WAT     H130788   4.776   1.021   5.380
10182WAT     H230789   4.926   1.067   5.334
10183WAT      O30790   1.013   6.800   5.801
10183WAT     H130791   0.924   6.845   5.799
10183WAT     H230792   1.039   6.784   5.896
10184WAT      O30793   6.976   3.580   0.483
10184WAT     H130794   7.042   3.524   0.533
10184WAT     H230795   6.978   3.555   0.386
10185WAT      O30796   2.834   6.362   2.178
10185WAT     H130797   2.926   6.397   2.162
10185WAT     H230798   2.838   6.282   2.239
10186WAT      O30799   3.895   6.958   4.516
10186WAT     H130800   3.829   7.003   4.455
10186WAT     H230801   3.874   6.983   4.611
10187WAT      O30802   7.396   1.801   8.094
10187WAT     H130803   7.328   1.791   8.167
10187WAT     H230804   7.432   1.894   8.094
10188WAT      O30805   4.959   0.278   6.642
10188WAT     H130806   4.898   0.218   6.591
10188WAT     H230807   5.046   0.286   6.593
10189WAT      O30808   3.293   0.297   1.796
10189WAT     H130809   3.206   0.249   1.803
10189WAT     H230810   3.307   0.353   1.878
10190WAT      O30811   0.738   1.331   1.227
10190WAT     H130812   0.766   1.242   1.190
10190WAT     H230813   0.725   1.323   1.326
10191WAT      O30814   9.573   9.179   2.255
10191WAT     H130815   9.518   9.172   2.172
10191WAT     H230816   9.605   9.273   2.267
10192WAT      O30817   7.383   8.288   2.577
10192WAT     H130818   7.333   8.372   2.554
10192WAT     H230819   7.347   8.212   2.524
10193WAT      O30820   5.480   1.454   9.471
10193WAT     H130821   5.502   1.545   9.435
10193WAT     H230822   5.565   1.406   9.494
10194WAT      O30823   0.571   2.087   9.788
10194WAT     H130824   0.521   2.049   9.866
10194WAT     H230825   0.644   2.024   9.762
10195WAT      O30826   7.993   5.190   5.604
10195WAT     H130827   8.093   5.199   5.601
10195WAT     H230828   7.951   5.279   5.586
10196WAT      O30829   1.410   7.688   5.126
10196WAT     H130830   1.423   7.621   5.054
10196WAT     H230831   1.441   7.650   5.213
10197WAT      O30832   8.866   7.356   5.174
10197WAT     H130833   8.863   7.456   5.167
10197WAT     H230834   8.929   7.320   5.106
10198WAT      O30835   4.270   6.971   5.205
10198WAT     H130836   4.341   6.929   5.262
10198WAT     H230837   4.223   6.900   5.152
10199WAT      O30838   3.780   0.985   6.981
10199WAT     H130839   3.822   0.970   6.892
10199WAT     H230840   3.770   0.898   7.030
10200WAT      O30841   0.429   2.907   2.646
10200WAT     H130842   0.488   2.855   2.584
10200WAT     H230843   0.473   2.994   2.668
10201WAT      O30844   6.099   6.737   1.487
10201WAT     H130845   6.133   6.736   1.393
10201WAT     H230846   6.036   6.660   1.500
10202WAT      O30847   2.795   1.595   6.393
10202WAT     H130848   2.763   1.689   6.400
10202WAT     H230849   2.788   1.564   6.298
10203WAT      O30850   4.039   0.652   0.944
10203WAT     H130851   4.100   0.681   0.871
10203WAT     H230852   3.944   0.673   0.919
10204WAT      O30853   1.425   2.598   5.525
10204WAT     H130854   1.470   2.617   5.437
10204WAT     H230855   1.328   2.577   5.508
10205WAT      O30856   4.390   2.374   9.631
10205WAT     H130857   4.373   2.455   9.575
10205WAT     H230858   4.486   2.373   9.659
10206WAT      O30859   3.737   8.151   9.561
10206WAT     H130860   3.728   8.190   9.470
10206WAT     H230861   3.664   8.187   9.620
10207WAT      O30862   4.829   5.715   2.129
10207WAT     H130863   4.907   5.713   2.191
10207WAT     H230864   4.758   5.653   2.163
10208WAT      O30865   1.003   1.882   4.341
10208WAT     H130866   1.043   1.893   4.250
10208WAT     H230867   0.928   1.947   4.354
10209WAT      O30868   2.068   6.654   9.618
10209WAT     H130869   2.061   6.750   9.647
10209WAT     H230870   2.083   6.596   9.698
10210WAT      O30871   6.571   9.079   9.456
10210WAT     H130872   6.518   9.028   9.389
10210WAT     H230873   6.652   9.027   9.481
10211WAT      O30874   2.082   2.072   4.905
10211WAT     H130875   2.033   2.022   4.976
10211WAT     H230876   2.178   2.044   4.905
10212WAT      O30877   7.669   3.533   4.194
10212WAT     H130878   7.676   3.532   4.094
10212WAT     H230879   7.574   3.548   4.221
10213WAT      O30880   8.141   1.766   5.705
10213WAT     H130881   8.170   1.834   5.638
10213WAT     H230882   8.076   1.702   5.663
10214WAT      O30883   8.442   9.185   0.462
10214WAT     H130884   8.362   9.228   0.420
10214WAT     H230885   8.455   9.221   0.554
10215WAT      O30886   9.230   6.228   5.345
10215WAT     H130887   9.266   6.310   5.298
10215WAT     H230888   9.206   6.252   5.439
10216WAT      O30889   5.286   0.893   6.721
10216WAT     H130890   5.378   0.870   6.689
10216WAT     H230891   5.238   0.810   6.748
10217WAT      O30892   3.378   7.197   9.135
10217WAT     H130893   3.469   7.163   9.158
10217WAT     H230894   3.349   7.263   9.205
10218WAT      O30895   2.897   1.861   0.152
10218WAT     H130896   2.834   1.900   0.085
10218WAT     H230897   2.948   1.935   0.196
10219WAT      O30898   6.345   7.914   4.335
10219WAT     H130899   6.436   7.955   4.345
10219WAT     H230900   6.276   7.977   4.371
10220WAT      O30901   9.416   5.501   3.109
10220WAT     H130902   9.513   5.509   3.132
10220WAT     H230903   9.386   5.584   3.062
10221WAT      O30904   6.093   4.404   3.778
10221WAT     H130905   6.134   4.487   3.814
10221WAT     H230906   6.152   4.366   3.706
10222WAT      O30907   7.663   1.144   0.595
10222WAT     H130908   7.607   1.210   0.546
10222WAT     H230909   7.668   1.169   0.692
10223WAT      O30910   7.155   1.430   1.981
10223WAT     H130911   7.169   1.357   1.914
10223WAT     H230912   7.082   1.491   1.949
10224WAT      O30913   0.811   9.287   8.115
10224WAT     H130914   0.891   9.262   8.062
10224WAT     H230915   0.840   9.326   8.203
10225WAT      O30916   0.576   0.495   8.104
10225WAT     H130917   0.603   0.428   8.173
10225WAT     H230918   0.647   0.565   8.097
10226WAT      O30919   7.203   9.069   3.518
10226WAT     H130920   7.193   9.009   3.439
10226WAT     H230921   7.236   9.017   3.596
10227WAT      O30922   6.176   8.111   6.148
10227WAT     H130923   6.094   8.135   6.199
10227WAT     H230924   6.246   8.078   6.212
10228WAT      O30925   8.566   6.067   0.733
10228WAT     H130926   8.527   6.039   0.821
10228WAT     H230927   8.534   6.006   0.661
10229WAT      O30928   9.052   6.989   2.441
10229WAT     H130929   9.109   7.012   2.362
10229WAT     H230930   8.965   7.039   2.435
10230WAT      O30931   4.122   1.122   8.118
10230WAT     H130932   4.031   1.131   8.158
10230WAT     H230933   4.174   1.052   8.168
10231WAT      O30934   7.452   9.150   0.021
10231WAT     H130935   7.353   9.140   0.014
10231WAT     H230936   7.487   9.200  -0.059
10232WAT      O30937   1.843   3.310   0.264
10232WAT     H130938   1.836   3.216   0.296
10232WAT     H230939   1.791   3.320   0.179
10233WAT      O30940   6.890   8.846   6.458
10233WAT     H130941   6.918   8.767   6.404
10233WAT     H230942   6.901   8.930   6.405
10234WAT      O30943   4.326   6.822   1.838
10234WAT     H130944   4.239   6.870   1.826
10234WAT     H230945   4.401   6.885   1.822
10235WAT      O30946   1.145   0.544   9.363
10235WAT     H130947   1.207   0.586   9.297
10235WAT     H230948   1.083   0.481   9.315
10236WAT      O30949   8.400   5.359   0.312
10236WAT     H130950   8.444   5.431   0.260
10236WAT     H230951   8.436   5.270   0.283
10237WAT      O30952   2.365   7.909   9.887
10237WAT     H130953   2.422   7.987   9.863
10237WAT     H230954   2.423   7.830   9.907
10238WAT      O30955   9.795   7.795   4.702
10238WAT     H130956   9.829   7.711   4.745
10238WAT     H230957   9.719   7.831   4.755
10239WAT      O30958   5.313   2.530   9.080
10239WAT     H130959   5.271   2.542   9.170
10239WAT     H230960   5.412   2.527   9.090
10240WAT      O30961   6.704   8.264   3.205
10240WAT     H130962   6.741   8.173   3.188
10240WAT     H230963   6.686   8.309   3.118
10241WAT      O30964   1.322   1.366   2.832
10241WAT     H130965   1.377   1.379   2.915
10241WAT     H230966   1.373   1.307   2.769
10242WAT      O30967   1.964   2.475   6.652
10242WAT     H130968   1.959   2.421   6.568
10242WAT     H230969   2.039   2.441   6.709
10243WAT      O30970   5.984   0.364   6.640
10243WAT     H130971   5.979   0.429   6.564
10243WAT     H230972   6.078   0.333   6.651
10244WAT      O30973   5.070   4.602   1.936
10244WAT     H130974   5.114   4.691   1.945
10244WAT     H230975   4.972   4.611   1.957
10245WAT      O30976   8.701   0.944   0.427
10245WAT     H130977   8.752   0.931   0.342
10245WAT     H230978   8.604   0.953   0.408
10246WAT      O30979   7.753   0.498   9.301
10246WAT     H130980   7.665   0.501   9.349
10246WAT     H230981   7.827   0.518   9.366
10247WAT      O30982   8.589   6.288   3.792
10247WAT     H130983   8.645   6.360   3.833
10247WAT     H230984   8.497   6.290   3.833
10248WAT      O30985   6.933   7.296   7.990
10248WAT     H130986   6.880   7.265   8.069
10248WAT     H230987   6.871   7.321   7.916
10249WAT      O30988   7.082   3.155   6.958
10249WAT     H130989   7.125   3.128   7.044
10249WAT     H230990   7.152   3.169   6.888
10250WAT      O30991   2.185   8.908   8.135
10250WAT     H130992   2.198   8.876   8.229
10250WAT     H230993   2.109   8.859   8.093
10251WAT      O30994   7.537   5.694   9.796
10251WAT     H130995   7.612   5.643   9.754
10251WAT     H230996   7.507   5.767   9.734
10252WAT      O30997   2.243   4.643   1.806
10252WAT     H130998   2.325   4.678   1.849
10252WAT     H230999   2.163   4.695   1.837
10253WAT      O31000   2.471   7.241   3.580
10253WAT     H131001   2.422   7.303   3.519
10253WAT     H231002   2.420   7.230   3.665
10254WAT      O31003   0.411   0.031   7.351
10254WAT     H131004   0.344   0.026   7.425
10254WAT     H231005   0.446   0.125   7.344
10255WAT      O31006   1.166   0.648   0.200
10255WAT     H131007   1.159   0.746   0.218
10255WAT     H231008   1.256   0.615   0.227
10256WAT      O31009   2.737   7.330   0.475
10256WAT     H131010   2.687   7.352   0.391
10256WAT     H231011   2.758   7.415   0.524
10257WAT      O31012   8.009   3.258   8.692
10257WAT     H131013   7.939   3.243   8.621
10257WAT     H231014   8.014   3.355   8.714
10258WAT      O31015   4.593   1.358   6.925
10258WAT     H131016   4.535   1.319   6.854
10258WAT     H231017   4.688   1.333   6.908
10259WAT      O31018   3.198   7.346   0.072
10259WAT     H131019   3.102   7.321   0.061
10259WAT     H231020   3.205   7.422   0.137
10260WAT      O31021   9.023   4.005   4.670
10260WAT     H131022   9.094   4.076   4.665
10260WAT     H231023   8.991   3.998   4.765
10261WAT      O31024   5.383   6.114   7.326
10261WAT     H131025   5.307   6.085   7.384
10261WAT     H231026   5.361   6.204   7.286
10262WAT      O31027   5.471   3.687   5.440
10262WAT     H131028   5.471   3.593   5.408
10262WAT     H231029   5.534   3.697   5.517
10263WAT      O31030   9.124   0.826   1.844
10263WAT     H131031   9.034   0.841   1.803
10263WAT     H231032   9.119   0.845   1.942
10264WAT      O31033   7.943   7.353   1.355
10264WAT     H131034   8.040   7.351   1.333
10264WAT     H231035   7.906   7.261   1.352
10265WAT      O31036   6.614   5.401   4.884
10265WAT     H131037   6.567   5.315   4.902
10265WAT     H231038   6.606   5.461   4.964
10266WAT      O31039   1.109   5.553   3.482
10266WAT     H131040   1.126   5.632   3.424
10266WAT     H231041   1.187   5.539   3.543
10267WAT      O31042   3.276   1.907   2.424
10267WAT     H131043   3.369   1.876   2.407
10267WAT     H231044   3.234   1.851   2.495
10268WAT      O31045   8.548   9.095   1.017
10268WAT     H131046   8.479   9.166   1.000
10268WAT     H231047   8.503   9.014   1.054
10269WAT      O31048   0.870   2.460   6.968
10269WAT     H131049   0.923   2.531   6.922
10269WAT     H231050   0.896   2.370   6.933
10270WAT      O31051   3.536   4.864   8.497
10270WAT     H131052   3.469   4.936   8.516
10270WAT     H231053   3.626   4.893   8.528
10271WAT      O31054   5.524   0.067   3.014
10271WAT     H131055   5.503   0.089   2.919
10271WAT     H231056   5.619   0.036   3.021
10272WAT      O31057   2.153   5.123   5.042
10272WAT     H131058   2.120   5.197   5.101
10272WAT     H231059   2.228   5.075   5.087
10273WAT      O31060   9.254   4.938   8.972
10273WAT     H131061   9.311   4.978   8.900
10273WAT     H231062   9.260   4.994   9.054
10274WAT      O31063   2.900   9.823   9.065
10274WAT     H131064   2.829   9.759   9.096
10274WAT     H231065   2.945   9.785   8.985
10275WAT      O31066   2.380   1.746   3.554
10275WAT     H131067   2.457   1.748   3.619
10275WAT     H231068   2.385   1.826   3.494
10276WAT      O31069   5.186   7.124   1.252
10276WAT     H131070   5.245   7.174   1.189
10276WAT     H231071   5.092   7.127   1.219
10277WAT      O31072   4.102   3.392   9.394
10277WAT     H131073   4.202   3.393   9.386
10277WAT     H231074   4.062   3.413   9.305
10278WAT      O31075   5.436   9.743   6.412
10278WAT     H131076   5.527   9.761   6.450
10278WAT     H231077   5.443   9.670   6.344
10279WAT      O31078   4.862   9.305   1.325
10279WAT     H131079   4.860   9.348   1.415
10279WAT     H231080   4.953   9.318   1.285
10280WAT      O31081   3.623   3.374   9.360
10280WAT     H131082   3.593   3.303   9.296
10280WAT     H231083   3.549   3.393   9.425
10281WAT      O31084   6.235   0.976   3.183
10281WAT     H131085   6.291   1.041   3.132
10281WAT     H231086   6.294   0.907   3.225
10282WAT      O31087   7.145   2.734   2.992
10282WAT     H131088   7.191   2.646   3.002
10282WAT     H231089   7.072   2.726   2.923
10283WAT      O31090   1.599   6.822   4.381
10283WAT     H131091   1.611   6.880   4.462
10283WAT     H231092   1.571   6.879   4.303
10284WAT      O31093   1.682   7.299   8.966
10284WAT     H131094   1.631   7.297   8.880
10284WAT     H231095   1.646   7.228   9.027
10285WAT      O31096   7.030   5.852   1.177
10285WAT     H131097   7.077   5.824   1.093
10285WAT     H231098   7.033   5.778   1.244
10286WAT      O31099   9.175   3.666   3.757
10286WAT     H131100   9.184   3.661   3.856
10286WAT     H231101   9.100   3.606   3.727
10287WAT      O31102   3.853   6.540   8.690
10287WAT     H131103   3.758   6.565   8.712
10287WAT     H231104   3.896   6.614   8.640
10288WAT      O31105   3.647   2.845   9.373
10288WAT     H131106   3.602   2.851   9.284
10288WAT     H231107   3.655   2.749   9.400
10289WAT      O31108   0.726   8.575   5.819
10289WAT     H131109   0.695   8.617   5.905
10289WAT     H231110   0.822   8.548   5.829
10290WAT      O31111   9.166   5.736   8.336
10290WAT     H131112   9.156   5.722   8.435
10290WAT     H231113   9.077   5.758   8.296
10291WAT      O31114   1.830   3.979   7.305
10291WAT     H131115   1.793   4.063   7.266
10291WAT     H231116   1.895   3.939   7.240
10292WAT      O31117   4.443   5.180   5.259
10292WAT     H131118   4.471   5.142   5.171
10292WAT     H231119   4.349   5.212   5.253
10293WAT      O31120   2.465   0.604   6.431
10293WAT     H131121   2.502   0.520   6.393
10293WAT     H231122   2.487   0.609   6.529
10294WAT      O31123   9.728   5.345   9.126
10294WAT     H131124   9.741   5.250   9.100
10294WAT     H231125   9.716   5.351   9.225
10295WAT      O31126   6.977   3.294   1.851
10295WAT     H131127   6.890   3.252   1.876
10295WAT     H231128   7.030   3.231   1.794
10296WAT      O31129   8.722   2.480   4.390
10296WAT     H131130   8.648   2.418   4.417
10296WAT     H231131   8.789   2.486   4.464
10297WAT      O31132   8.858   7.455   0.814
10297WAT     H131133   8.875   7.356   0.809
10297WAT     H231134   8.942   7.501   0.843
10298WAT      O31135   3.826   5.772   5.413
10298WAT     H131136   3.750   5.747   5.473
10298WAT     H231137   3.908   5.722   5.440
10299WAT      O31138   2.242   0.786   9.874
10299WAT     H131139   2.311   0.769   9.804
10299WAT     H231140   2.184   0.706   9.885
10300WAT      O31141   1.470   7.360   3.563
10300WAT     H131142   1.419   7.367   3.649
10300WAT     H231143   1.406   7.340   3.488
10301WAT      O31144   8.132   0.692   6.709
10301WAT     H131145   8.119   0.593   6.713
10301WAT     H231146   8.095   0.734   6.793
10302WAT      O31147   9.064   4.955   4.668
10302WAT     H131148   9.023   5.002   4.591
10302WAT     H231149   9.050   5.008   4.752
10303WAT      O31150   8.786   7.283   3.278
10303WAT     H131151   8.700   7.326   3.248
10303WAT     H231152   8.806   7.205   3.219
10304WAT      O31153   4.401   0.689   5.459
10304WAT     H131154   4.347   0.702   5.376
10304WAT     H231155   4.459   0.608   5.448
10305WAT      O31156   8.677   7.411   6.680
10305WAT     H131157   8.578   7.400   6.684
10305WAT     H231158   8.709   7.453   6.765
10306WAT      O31159   5.021   1.169   0.852
10306WAT     H131160   5.098   1.114   0.883
10306WAT     H231161   4.987   1.132   0.765
10307WAT      O31162   8.023   1.009   9.465
10307WAT     H131163   8.113   0.966   9.465
10307WAT     H231164   7.985   1.008   9.557
10308WAT      O31165   8.853   5.932   9.593
10308WAT     H131166   8.815   6.023   9.573
10308WAT     H231167   8.812   5.864   9.532
10309WAT      O31168   9.630   2.987   2.427
10309WAT     H131169   9.705   3.008   2.490
10309WAT     H231170   9.661   2.919   2.361
10310WAT      O31171   4.561   4.302   0.563
10310WAT     H131172   4.504   4.242   0.507
10310WAT     H231173   4.656   4.296   0.533
10311WAT      O31174   4.826   6.876   3.803
10311WAT     H131175   4.808   6.778   3.792
10311WAT     H231176   4.749   6.928   3.767
10312WAT      O31177   3.948   4.913   1.831
10312WAT     H131178   4.009   4.862   1.891
10312WAT     H231179   4.002   4.978   1.777
10313WAT      O31180   3.756   9.391   4.768
10313WAT     H131181   3.799   9.315   4.817
10313WAT     H231182   3.793   9.396   4.675
10314WAT      O31183   6.920   9.490   7.753
10314WAT     H131184   6.944   9.564   7.690
10314WAT     H231185   6.872   9.418   7.703
10315WAT      O31186   5.446   8.604   1.174
10315WAT     H131187   5.490   8.520   1.207
10315WAT     H231188   5.348   8.590   1.169
10316WAT      O31189   4.569   1.161   2.802
10316WAT     H131190   4.648   1.193   2.854
10316WAT     H231191   4.600   1.121   2.716
10317WAT      O31192   5.620   9.477   4.578
10317WAT     H131193   5.647   9.572   4.563
10317WAT     H231194   5.575   9.469   4.667
10318WAT      O31195   7.297   9.371   8.993
10318WAT     H131196   7.219   9.412   9.040
10318WAT     H231197   7.297   9.272   9.007
10319WAT      O31198   6.768   1.213   5.778
10319WAT     H131199   6.714   1.136   5.744
10319WAT     H231200   6.707   1.287   5.805
10320WAT      O31201   9.317   0.771   7.254
10320WAT     H131202   9.310   0.858   7.302
10320WAT     H231203   9.226   0.741   7.226
10321WAT      O31204   2.199   4.394   0.926
10321WAT     H131205   2.100   4.386   0.915
10321WAT     H231206   2.241   4.419   0.839
10322WAT      O31207   8.726   5.185   2.638
10322WAT     H131208   8.638   5.196   2.685
10322WAT     H231209   8.729   5.097   2.591
10323WAT      O31210   1.037   7.086   3.972
10323WAT     H131211   0.996   7.010   4.023
10323WAT     H231212   1.054   7.058   3.878
10324WAT      O31213   8.349   5.478   7.477
10324WAT     H131214   8.339   5.535   7.395
10324WAT     H231215   8.282   5.505   7.545
10325WAT      O31216   0.821   4.222   4.714
10325WAT     H131217   0.917   4.232   4.741
10325WAT     H231218   0.762   4.233   4.794
10326WAT      O31219   9.478   6.483   5.012
10326WAT     H131220   9.467   6.384   5.003
10326WAT     H231221   9.500   6.522   4.923
10327WAT      O31222   8.460   0.692   2.663
10327WAT     H131223   8.425   0.625   2.728
10327WAT     H231224   8.441   0.661   2.570
10328WAT      O31225   1.089   6.930   7.514
10328WAT     H131226   1.019   7.001   7.514
10328WAT     H231227   1.050   6.844   7.481
10329WAT      O31228   9.556   3.122   2.211
10329WAT     H131229   9.464   3.102   2.177
10329WAT     H231230   9.575   3.064   2.291
10330WAT      O31231   4.060   9.654   1.728
10330WAT     H131232   4.109   9.741   1.736
10330WAT     H231233   4.008   9.653   1.642
10331WAT      O31234   6.198   3.708   1.161
10331WAT     H131235   6.150   3.796   1.164
10331WAT     H231236   6.133   3.635   1.142
10332WAT      O31237   5.949   7.050   7.003
10332WAT     H131238   6.042   7.013   7.001
10332WAT     H231239   5.883   6.975   7.015
10333WAT      O31240   6.045   8.011   1.127
10333WAT     H131241   6.078   8.001   1.033
10333WAT     H231242   5.986   7.934   1.150
10334WAT      O31243   8.220   0.677   7.693
10334WAT     H131244   8.163   0.654   7.772
10334WAT     H231245   8.162   0.718   7.622
10335WAT      O31246   4.900   9.831   4.253
10335WAT     H131247   4.939   9.751   4.297
10335WAT     H231248   4.800   9.830   4.265
10336WAT      O31249   2.848   4.323   6.042
10336WAT     H131250   2.796   4.373   5.972
10336WAT     H231251   2.794   4.245   6.073
10337WAT      O31252   8.331   4.330   7.051
10337WAT     H131253   8.322   4.413   7.106
10337WAT     H231254   8.412   4.279   7.081
10338WAT      O31255   1.850   4.749   2.591
10338WAT     H131256   1.773   4.729   2.530
10338WAT     H231257   1.935   4.748   2.540
10339WAT      O31258   7.327   6.367   8.051
10339WAT     H131259   7.346   6.278   8.011
10339WAT     H231260   7.358   6.439   7.988
10340WAT      O31261   9.459   8.332   2.349
10340WAT     H131262   9.379   8.381   2.385
10340WAT     H231263   9.497   8.383   2.272
10341WAT      O31264   6.246   8.038   8.553
10341WAT     H131265   6.161   7.992   8.578
10341WAT     H231266   6.227   8.111   8.487
10342WAT      O31267   4.100   1.632   6.814
10342WAT     H131268   4.171   1.573   6.854
10342WAT     H231269   4.144   1.707   6.765
10343WAT      O31270   2.651   4.999   2.763
10343WAT     H131271   2.742   4.967   2.790
10343WAT     H231272   2.581   4.943   2.807
10344WAT      O31273   6.047   9.185   3.204
10344WAT     H131274   6.144   9.206   3.216
10344WAT     H231275   6.010   9.146   3.289
10345WAT      O31276   2.652   3.596   2.832
10345WAT     H131277   2.560   3.577   2.796
10345WAT     H231278   2.644   3.655   2.912
10346WAT      O31279   4.293   3.333   1.327
10346WAT     H131280   4.201   3.333   1.287
10346WAT     H231281   4.360   3.312   1.255
10347WAT      O31282   6.469   4.555   0.903
10347WAT     H131283   6.387   4.502   0.923
10347WAT     H231284   6.550   4.502   0.925
10348WAT      O31285   3.101   9.456   0.204
10348WAT     H131286   3.040   9.492   0.134
10348WAT     H231287   3.047   9.408   0.274
10349WAT      O31288   6.810   7.197   8.557
10349WAT     H131289   6.786   7.272   8.620
10349WAT     H231290   6.909   7.182   8.560
10350WAT      O31291   8.537   0.929   5.641
10350WAT     H131292   8.469   1.002   5.644
10350WAT     H231293   8.492   0.842   5.620
10351WAT      O31294   6.787   7.920   2.709
10351WAT     H131295   6.831   7.957   2.790
10351WAT     H231296   6.852   7.919   2.633
10352WAT      O31297   7.634   1.020   6.883
10352WAT     H131298   7.555   1.074   6.856
10352WAT     H231299   7.689   1.072   6.949
10353WAT      O31300   4.078   2.073   8.657
10353WAT     H131301   4.034   2.056   8.569
10353WAT     H231302   4.010   2.069   8.730
10354WAT      O31303   1.282   8.853   4.450
10354WAT     H131304   1.196   8.891   4.484
10354WAT     H231305   1.357   8.880   4.511
10355WAT      O31306   1.867   8.014   6.646
10355WAT     H131307   1.892   7.973   6.558
10355WAT     H231308   1.795   7.959   6.689
10356WAT      O31309   7.107   2.907   6.005
10356WAT     H131310   7.200   2.898   6.041
10356WAT     H231311   7.041   2.890   6.079
10357WAT      O31312   4.112   5.834   6.541
10357WAT     H131313   4.027   5.886   6.544
10357WAT     H231314   4.149   5.836   6.448
10358WAT      O31315   5.038   3.559   1.673
10358WAT     H131316   4.947   3.544   1.712
10358WAT     H231317   5.097   3.600   1.743
10359WAT      O31318   7.400   4.090   6.136
10359WAT     H131319   7.386   4.077   6.234
10359WAT     H231320   7.318   4.133   6.097
10360WAT      O31321   5.342   8.526   1.608
10360WAT     H131322   5.330   8.499   1.704
10360WAT     H231323   5.318   8.450   1.549
10361WAT      O31324   8.909   1.801   9.400
10361WAT     H131325   8.914   1.891   9.356
10361WAT     H231326   8.909   1.730   9.329
10362WAT      O31327   1.520   4.076   0.697
10362WAT     H131328   1.560   4.119   0.778
10362WAT     H231329   1.478   3.989   0.722
10363WAT      O31330   3.379   5.539   1.005
10363WAT     H131331   3.461   5.570   1.054
10363WAT     H231332   3.305   5.605   1.019
10364WAT      O31333   5.066   9.008   1.962
10364WAT     H131334   5.122   9.070   2.017
10364WAT     H231335   5.116   8.983   1.879
10365WAT      O31336   3.579   0.486   5.052
10365WAT     H131337   3.555   0.397   5.013
10365WAT     H231338   3.678   0.495   5.057
10366WAT      O31339   5.605   2.943   1.300
10366WAT     H131340   5.670   3.006   1.257
10366WAT     H231341   5.654   2.881   1.361
10367WAT      O31342   8.721   0.866   4.732
10367WAT     H131343   8.752   0.883   4.825
10367WAT     H231344   8.630   0.825   4.734
10368WAT      O31345   8.977   0.374   1.289
10368WAT     H131346   9.024   0.448   1.336
10368WAT     H231347   9.043   0.313   1.246
10369WAT      O31348   4.833   2.073   3.882
10369WAT     H131349   4.894   2.082   3.961
10369WAT     H231350   4.878   2.114   3.802
10370WAT      O31351   0.793   4.356   2.573
10370WAT     H131352   0.874   4.397   2.532
10370WAT     H231353   0.811   4.338   2.670
10371WAT      O31354   2.122   2.353   1.734
10371WAT     H131355   2.201   2.365   1.795
10371WAT     H231356   2.147   2.380   1.641
10372WAT      O31357   4.602   5.389   1.925
10372WAT     H131358   4.513   5.433   1.915
10372WAT     H231359   4.662   5.419   1.851
10373WAT      O31360   0.867   6.762   6.620
10373WAT     H131361   0.853   6.827   6.695
10373WAT     H231362   0.965   6.747   6.608
10374WAT      O31363   5.307   3.258   9.264
10374WAT     H131364   5.397   3.251   9.220
10374WAT     H231365   5.241   3.203   9.213
10375WAT      O31366   5.501   0.721   2.206
10375WAT     H131367   5.566   0.782   2.251
10375WAT     H231368   5.549   0.640   2.172
10376WAT      O31369   3.800   3.998   1.005
10376WAT     H131370   3.831   3.904   1.016
10376WAT     H231371   3.848   4.057   1.070
10377WAT      O31372   5.703   2.094   6.054
10377WAT     H131373   5.731   2.011   6.102
10377WAT     H231374   5.663   2.069   5.966
10378WAT      O31375   6.569   0.604   7.575
10378WAT     H131376   6.514   0.684   7.550
10378WAT     H231377   6.660   0.634   7.602
10379WAT      O31378   4.518   3.171   2.055
10379WAT     H131379   4.574   3.203   1.979
10379WAT     H231380   4.567   3.188   2.141
10380WAT      O31381   3.924   3.278   9.853
10380WAT     H131382   3.850   3.217   9.825
10380WAT     H231383   3.914   3.301   9.950
10381WAT      O31384   3.127   6.309   9.031
10381WAT     H131385   3.113   6.217   8.994
10381WAT     H231386   3.042   6.341   9.073
10382WAT      O31387   1.828   6.498   5.498
10382WAT     H131388   1.796   6.457   5.583
10382WAT     H231389   1.868   6.588   5.516
10383WAT      O31390   2.951   2.518   5.816
10383WAT     H131391   2.961   2.613   5.845
10383WAT     H231392   3.031   2.466   5.845
10384WAT      O31393   0.110   8.168   2.285
10384WAT     H131394   0.181   8.219   2.236
10384WAT     H231395   0.047   8.126   2.218
10385WAT      O31396   6.237   9.563   7.457
10385WAT     H131397   6.294   9.497   7.409
10385WAT     H231398   6.146   9.564   7.417
10386WAT      O31399   8.965   6.672   0.006
10386WAT     H131400   9.062   6.658  -0.012
10386WAT     H231401   8.953   6.738   0.080
10387WAT      O31402   5.957   3.533   5.338
10387WAT     H131403   5.875   3.477   5.347
10387WAT     H231404   6.017   3.517   5.416
10388WAT      O31405   9.438   5.629   9.405
10388WAT     H131406   9.524   5.588   9.433
10388WAT     H231407   9.437   5.725   9.431
10389WAT      O31408   2.037   4.978   2.047
10389WAT     H131409   1.987   5.063   2.064
10389WAT     H231410   2.125   4.980   2.094
10390WAT      O31411   8.499   0.519   3.478
10390WAT     H131412   8.472   0.570   3.397
10390WAT     H231413   8.466   0.425   3.471
10391WAT      O31414   7.349   9.369   2.392
10391WAT     H131415   7.372   9.450   2.447
10391WAT     H231416   7.265   9.387   2.340
10392WAT      O31417   8.562   7.261   7.671
10392WAT     H131418   8.522   7.353   7.674
10392WAT     H231419   8.619   7.253   7.588
10393WAT      O31420   4.629   6.636   6.242
10393WAT     H131421   4.539   6.680   6.249
10393WAT     H231422   4.623   6.543   6.279
10394WAT      O31423   4.938   2.734   4.058
10394WAT     H131424   4.969   2.727   3.963
10394WAT     H231425   4.846   2.773   4.060
10395WAT      O31426   9.714   6.594   9.739
10395WAT     H131427   9.633   6.562   9.691
10395WAT     H231428   9.771   6.515   9.764
10396WAT      O31429   9.504   9.536   3.948
10396WAT     H131430   9.601   9.532   3.973
10396WAT     H231431   9.456   9.459   3.990
10397WAT      O31432   4.987   8.436   1.549
10397WAT     H131433   4.940   8.523   1.532
10397WAT     H231434   5.083   8.445   1.523
10398WAT      O31435   0.554   6.567   5.586
10398WAT     H131436   0.535   6.609   5.675
10398WAT     H231437   0.557   6.467   5.596
10399WAT      O31438   8.857   6.825   0.804
10399WAT     H131439   8.949   6.831   0.843
10399WAT     H231440   8.819   6.735   0.822
10400WAT      O31441   8.363   1.990   4.494
10400WAT     H131442   8.293   1.920   4.484
10400WAT     H231443   8.412   2.001   4.407
10401WAT      O31444   4.603   1.988   0.802
10401WAT     H131445   4.618   2.018   0.896
10401WAT     H231446   4.622   2.064   0.740
10402WAT      O31447   3.680   1.909   7.664
10402WAT     H131448   3.689   1.927   7.762
10402WAT     H231449   3.617   1.833   7.649
10403WAT      O31450   9.660   5.245   1.337
10403WAT     H131451   9.651   5.166   1.276
10403WAT     H231452   9.744   5.295   1.314
10404WAT      O31453   0.911   6.072   2.418
10404WAT     H131454   0.895   5.974   2.405
10404WAT     H231455   0.990   6.100   2.365
10405WAT      O31456   4.997   4.769   2.677
10405WAT     H131457   4.996   4.694   2.611
10405WAT     H231458   4.985   4.733   2.769
10406WAT      O31459   3.251   4.340   0.679
10406WAT     H131460   3.179   4.408   0.663
10406WAT     H231461   3.216   4.267   0.738
10407WAT      O31462   1.239   2.234   1.670
10407WAT     H131463   1.286   2.160   1.621
10407WAT     H231464   1.184   2.194   1.744
10408WAT      O31465   4.535   1.836   5.583
10408WAT     H131466   4.440   1.865   5.578
10408WAT     H231467   4.561   1.793   5.497
10409WAT      O31468   4.085   8.460   8.330
10409WAT     H131469   4.173   8.496   8.358
10409WAT     H231470   4.059   8.500   8.242
10410WAT      O31471   0.733   2.582   1.895
10410WAT     H131472   0.704   2.647   1.965
10410WAT     H231473   0.706   2.490   1.921
10411WAT      O31474   3.025   8.447   1.840
10411WAT     H131475   3.042   8.349   1.832
10411WAT     H231476   3.035   8.490   1.750
10412WAT      O31477   3.627   8.942   1.142
10412WAT     H131478   3.654   9.012   1.208
10412WAT     H231479   3.680   8.859   1.158
10413WAT      O31480   2.834   5.022   4.701
10413WAT     H131481   2.910   4.966   4.668
10413WAT     H231482   2.841   5.033   4.800
10414WAT      O31483   5.357   1.280   8.053
10414WAT     H131484   5.345   1.364   8.105
10414WAT     H231485   5.300   1.283   7.970
10415WAT      O31486   8.487   9.364   3.139
10415WAT     H131487   8.472   9.417   3.056
10415WAT     H231488   8.512   9.270   3.115
10416WAT      O31489   4.791   8.998   1.706
10416WAT     H131490   4.802   9.018   1.609
10416WAT     H231491   4.824   9.076   1.760
10417WAT      O31492   7.752   8.811   0.582
10417WAT     H131493   7.723   8.906   0.572
10417WAT     H231494   7.677   8.757   0.621
10418WAT      O31495   7.160   8.164   8.304
10418WAT     H131496   7.204   8.147   8.393
10418WAT     H231497   7.184   8.091   8.241
10419WAT      O31498   6.710   8.749   8.283
10419WAT     H131499   6.777   8.751   8.208
10419WAT     H231500   6.681   8.655   8.298
10420WAT      O31501   8.322   0.472   6.435
10420WAT     H131502   8.337   0.549   6.373
10420WAT     H231503   8.400   0.409   6.430
10421WAT      O31504   5.443   3.139   7.163
10421WAT     H131505   5.454   3.213   7.096
10421WAT     H231506   5.492   3.162   7.246
10422WAT      O31507   7.738   0.655   4.316
10422WAT     H131508   7.714   0.575   4.371
10422WAT     H231509   7.833   0.648   4.286
10423WAT      O31510   7.522   7.409   7.742
10423WAT     H131511   7.461   7.452   7.674
10423WAT     H231512   7.500   7.312   7.749
10424WAT      O31513   3.190   7.991   6.087
10424WAT     H131514   3.212   7.903   6.129
10424WAT     H231515   3.110   8.030   6.131
10425WAT      O31516   8.542   5.039   3.385
10425WAT     H131517   8.597   4.994   3.315
10425WAT     H231518   8.473   4.974   3.419
10426WAT      O31519   4.066   0.639   9.698
10426WAT     H131520   4.030   0.600   9.783
10426WAT     H231521   4.164   0.655   9.708
10427WAT      O31522   8.357   6.845   3.686
10427WAT     H131523   8.309   6.765   3.649
10427WAT     H231524   8.332   6.926   3.632
10428WAT      O31525   8.348   8.944   2.489
10428WAT     H131526   8.360   9.037   2.454
10428WAT     H231527   8.386   8.878   2.424
10429WAT      O31528   8.898   6.389   1.146
10429WAT     H131529   8.975   6.390   1.209
10429WAT     H231530   8.816   6.422   1.192
10430WAT      O31531   1.254   2.357   7.299
10430WAT     H131532   1.200   2.400   7.226
10430WAT     H231533   1.233   2.402   7.386
10431WAT      O31534   0.189   8.163   7.243
10431WAT     H131535   0.259   8.102   7.279
10431WAT     H231536   0.155   8.128   7.155
10432WAT      O31537   5.971   0.979   5.343
10432WAT     H131538   5.968   1.003   5.246
10432WAT     H231539   5.892   0.923   5.366
10433WAT      O31540   5.138   7.203   6.934
10433WAT     H131541   5.147   7.302   6.942
10433WAT     H231542   5.137   7.163   7.026
10434WAT      O31543   2.666   8.131   5.099
10434WAT     H131544   2.604   8.176   5.035
10434WAT     H231545   2.626   8.135   5.191
10435WAT      O31546   5.874   4.311   8.579
10435WAT     H131547   5.882   4.357   8.668
10435WAT     H231548   5.886   4.212   8.591
10436WAT      O31549   9.109   4.914   0.434
10436WAT     H131550   9.067   4.889   0.521
10436WAT     H231551   9.181   4.982   0.450
10437WAT      O31552   0.617   0.943   3.559
10437WAT     H131553   0.591   0.946   3.655
10437WAT     H231554   0.535   0.944   3.502
10438WAT      O31555   1.998   1.300   1.277
10438WAT     H131556   1.915   1.246   1.260
10438WAT     H231557   2.077   1.251   1.242
10439WAT      O31558   4.591   4.802   5.093
10439WAT     H131559   4.686   4.812   5.063
10439WAT     H231560   4.575   4.707   5.119
10440WAT      O31561   2.288   8.888   8.612
10440WAT     H131562   2.301   8.848   8.703
10440WAT     H231563   2.230   8.970   8.619
10441WAT      O31564   2.926   0.058   2.181
10441WAT     H131565   2.994   0.132   2.177
10441WAT     H231566   2.968  -0.027   2.150
10442WAT      O31567   4.833   5.588   1.486
10442WAT     H131568   4.771   5.663   1.463
10442WAT     H231569   4.847   5.531   1.406
10443WAT      O31570   2.218   1.131   0.312
10443WAT     H131571   2.204   1.094   0.220
10443WAT     H231572   2.310   1.168   0.320
10444WAT      O31573   7.439   2.126   9.419
10444WAT     H131574   7.428   2.180   9.502
10444WAT     H231575   7.471   2.185   9.344
10445WAT      O31576   3.835   0.196   5.188
10445WAT     H131577   3.799   0.203   5.281
10445WAT     H231578   3.853   0.288   5.151
10446WAT      O31579   0.050   9.120   4.510
10446WAT     H131580   0.099   9.072   4.437
10446WAT     H231581   0.083   9.214   4.515
10447WAT      O31582   4.425   1.495   7.458
10447WAT     H131583   4.410   1.396   7.455
10447WAT     H231584   4.482   1.518   7.538
10448WAT      O31585   3.024   7.238   9.432
10448WAT     H131586   2.988   7.164   9.488
10448WAT     H231587   3.029   7.208   9.336
10449WAT      O31588   5.247   8.257   4.544
10449WAT     H131589   5.258   8.237   4.446
10449WAT     H231590   5.282   8.348   4.564
10450WAT      O31591   2.962   6.402   1.538
10450WAT     H131592   3.022   6.328   1.567
10450WAT     H231593   3.016   6.475   1.496
10451WAT      O31594   3.792   0.064   2.522
10451WAT     H131595   3.884   0.058   2.483
10451WAT     H231596   3.730   0.004   2.471
10452WAT      O31597   8.120   7.345   0.767
10452WAT     H131598   8.180   7.424   0.779
10452WAT     H231599   8.048   7.347   0.837
10453WAT      O31600   8.414   5.162   0.712
10453WAT     H131601   8.489   5.179   0.648
10453WAT     H231602   8.446   5.099   0.783
10454WAT      O31603   1.789   6.925   4.810
10454WAT     H131604   1.750   6.984   4.880
10454WAT     H231605   1.889   6.929   4.815
10455WAT      O31606   3.900   1.533   6.978
10455WAT     H131607   3.954   1.493   7.052
10455WAT     H231608   3.955   1.600   6.928
10456WAT      O31609   8.719   2.377   8.373
10456WAT     H131610   8.678   2.466   8.355
10456WAT     H231611   8.812   2.375   8.335
10457WAT      O31612   9.177   2.750   5.277
10457WAT     H131613   9.194   2.836   5.326
10457WAT     H231614   9.195   2.673   5.337
10458WAT      O31615   3.243   5.357   1.192
10458WAT     H131616   3.321   5.418   1.182
10458WAT     H231617   3.160   5.411   1.208
10459WAT      O31618   1.817   1.394   0.147
10459WAT     H131619   1.841   1.385   0.050
10459WAT     H231620   1.900   1.396   0.201
10460WAT      O31621   0.122   7.213   9.348
10460WAT     H131622   0.070   7.272   9.410
10460WAT     H231623   0.058   7.156   9.296
10461WAT      O31624   9.584   7.286   6.798
10461WAT     H131625   9.600   7.366   6.739
10461WAT     H231626   9.503   7.302   6.854
10462WAT      O31627   2.772   8.856   5.112
10462WAT     H131628   2.802   8.829   5.020
10462WAT     H231629   2.732   8.947   5.109
10463WAT      O31630   4.232   3.833   6.340
10463WAT     H131631   4.139   3.861   6.316
10463WAT     H231632   4.282   3.807   6.257
10464WAT      O31633   8.216   6.158   7.320
10464WAT     H131634   8.209   6.255   7.294
10464WAT     H231635   8.133   6.131   7.369
10465WAT      O31636   8.296   4.533   6.543
10465WAT     H131637   8.287   4.500   6.637
10465WAT     H231638   8.273   4.630   6.540
10466WAT      O31639   2.245   6.008   4.717
10466WAT     H131640   2.155   6.051   4.713
10466WAT     H231641   2.250   5.949   4.797
10467WAT      O31642   4.773   9.174   4.716
10467WAT     H131643   4.679   9.140   4.710
10467WAT     H231644   4.832   9.119   4.656
10468WAT      O31645   8.879   0.937   1.792
10468WAT     H131646   8.811   0.865   1.806
10468WAT     H231647   8.878   0.965   1.696
10469WAT      O31648   0.105   4.693   5.168
10469WAT     H131649   0.122   4.649   5.256
10469WAT     H231650   0.144   4.637   5.095
10470WAT      O31651   2.065   8.651   0.019
10470WAT     H131652   2.112   8.692   0.097
10470WAT     H231653   2.120   8.665  -0.064
10471WAT      O31654   0.116   9.738   7.305
10471WAT     H131655   0.169   9.802   7.360
10471WAT     H231656   0.019   9.750   7.325
10472WAT      O31657   7.027   5.390   2.354
10472WAT     H131658   7.122   5.413   2.371
10472WAT     H231659   7.004   5.410   2.258
10473WAT      O31660   5.331   9.118   5.514
10473WAT     H131661   5.427   9.144   5.522
10473WAT     H231662   5.304   9.117   5.418
10474WAT      O31663   3.768   0.003   3.245
10474WAT     H131664   3.832   0.078   3.255
10474WAT     H231665   3.747  -0.036   3.335
10475WAT      O31666   4.695   6.852   2.369
10475WAT     H131667   4.620   6.793   2.397
10475WAT     H231668   4.702   6.853   2.270
10476WAT      O31669   6.360   8.608   0.412
10476WAT     H131670   6.326   8.533   0.356
10476WAT     H231671   6.294   8.684   0.410
10477WAT      O31672   6.915   4.252   3.379
10477WAT     H131673   6.891   4.349   3.377
10477WAT     H231674   6.863   4.206   3.451
10478WAT      O31675   2.471   1.071   5.934
10478WAT     H131676   2.545   1.105   5.877
10478WAT     H231677   2.390   1.054   5.878
10479WAT      O31678   0.299   3.543   5.949
10479WAT     H131679   0.322   3.575   5.858
10479WAT     H231680   0.284   3.444   5.947
10480WAT      O31681   7.005   1.409   6.198
10480WAT     H131682   6.962   1.438   6.112
10480WAT     H231683   7.022   1.489   6.255
10481WAT      O31684   0.485   5.335   6.572
10481WAT     H131685   0.485   5.259   6.637
10481WAT     H231686   0.414   5.321   6.504
10482WAT      O31687   2.861   2.013   5.196
10482WAT     H131688   2.769   2.004   5.158
10482WAT     H231689   2.926   1.966   5.137
10483WAT      O31690   7.047   3.840   8.985
10483WAT     H131691   7.087   3.845   9.076
10483WAT     H231692   7.115   3.869   8.917
10484WAT      O31693   1.779   0.955   3.520
10484WAT     H131694   1.865   0.904   3.525
10484WAT     H231695   1.792   1.040   3.469
10485WAT      O31696   3.123   2.272   8.292
10485WAT     H131697   3.153   2.338   8.361
10485WAT     H231698   3.069   2.319   8.223
10486WAT      O31699   5.291   8.125   3.158
10486WAT     H131700   5.323   8.040   3.115
10486WAT     H231701   5.204   8.108   3.205
10487WAT      O31702   1.959   8.850   9.326
10487WAT     H131703   1.975   8.940   9.366
10487WAT     H231704   2.012   8.781   9.375
10488WAT      O31705   7.424   5.888   5.713
10488WAT     H131706   7.396   5.965   5.771
10488WAT     H231707   7.523   5.885   5.707
10489WAT      O31708   2.861   6.096   4.348
10489WAT     H131709   2.887   6.185   4.312
10489WAT     H231710   2.761   6.086   4.343
10490WAT      O31711   6.744   7.766   7.399
10490WAT     H131712   6.723   7.778   7.496
10490WAT     H231713   6.705   7.842   7.347
10491WAT      O31714   5.004   8.311   2.625
10491WAT     H131715   4.976   8.288   2.531
10491WAT     H231716   4.976   8.237   2.687
10492WAT      O31717   3.523   4.400   4.689
10492WAT     H131718   3.603   4.456   4.667
10492WAT     H231719   3.549   4.303   4.690
10493WAT      O31720   6.781   2.991   0.583
10493WAT     H131721   6.873   3.028   0.597
10493WAT     H231722   6.783   2.892   0.597
10494WAT      O31723   9.482   7.372   4.766
10494WAT     H131724   9.458   7.309   4.840
10494WAT     H231725   9.580   7.370   4.750
10495WAT      O31726   4.512   9.518   6.883
10495WAT     H131727   4.587   9.511   6.818
10495WAT     H231728   4.544   9.494   6.974
10496WAT      O31729   4.248   3.630   1.487
10496WAT     H131730   4.290   3.569   1.419
10496WAT     H231731   4.199   3.703   1.440
10497WAT      O31732   9.475   1.419   8.308
10497WAT     H131733   9.521   1.384   8.226
10497WAT     H231734   9.505   1.513   8.325
10498WAT      O31735   1.929   8.410   0.195
10498WAT     H131736   1.993   8.478   0.232
10498WAT     H231737   1.982   8.333   0.158
10499WAT      O31738   0.207   1.526   5.670
10499WAT     H131739   0.167   1.618   5.670
10499WAT     H231740   0.200   1.487   5.578
10500WAT      O31741   7.680   5.735   8.321
10500WAT     H131742   7.693   5.697   8.230
10500WAT     H231743   7.617   5.812   8.316
10501WAT      O31744   0.600   5.565   1.428
10501WAT     H131745   0.595   5.491   1.361
10501WAT     H231746   0.695   5.576   1.457
10502WAT      O31747   7.189   0.330   3.227
10502WAT     H131748   7.167   0.341   3.130
10502WAT     H231749   7.106   0.337   3.281
10503WAT      O31750   8.301   2.644   5.717
10503WAT     H131751   8.359   2.720   5.746
10503WAT     H231752   8.278   2.654   5.621
10504WAT      O31753   6.546   7.484   4.215
10504WAT     H131754   6.595   7.476   4.128
10504WAT     H231755   6.587   7.423   4.283
10505WAT      O31756   0.346   1.937   4.735
10505WAT     H131757   0.431   1.914   4.689
10505WAT     H231758   0.362   1.946   4.833
10506WAT      O31759   2.242   6.556   5.927
10506WAT     H131760   2.176   6.559   5.851
10506WAT     H231761   2.315   6.491   5.904
10507WAT      O31762   4.286   4.360   8.228
10507WAT     H131763   4.351   4.393   8.297
10507WAT     H231764   4.220   4.299   8.272
10508WAT      O31765   2.218   7.979   2.319
10508WAT     H131766   2.232   7.953   2.415
10508WAT     H231767   2.305   7.975   2.270
10509WAT      O31768   2.415   4.396   6.810
10509WAT     H131769   2.436   4.384   6.713
10509WAT     H231770   2.324   4.438   6.819
10510WAT      O31771   0.582   1.691   1.872
10510WAT     H131772   0.511   1.630   1.838
10510WAT     H231773   0.632   1.647   1.947
10511WAT      O31774   7.541   9.191   8.635
10511WAT     H131775   7.573   9.149   8.550
10511WAT     H231776   7.449   9.158   8.655
10512WAT      O31777   2.072   9.704   1.243
10512WAT     H131778   1.987   9.752   1.220
10512WAT     H231779   2.085   9.626   1.182
10513WAT      O31780   1.732   8.249   0.801
10513WAT     H131781   1.665   8.264   0.873
10513WAT     H231782   1.717   8.159   0.759
10514WAT      O31783   7.450   1.912   5.892
10514WAT     H131784   7.414   2.005   5.886
10514WAT     H231785   7.462   1.887   5.988
10515WAT      O31786   7.796   3.925   3.462
10515WAT     H131787   7.723   3.862   3.490
10515WAT     H231788   7.848   3.953   3.543
10516WAT      O31789   8.158   3.808   9.185
10516WAT     H131790   8.201   3.733   9.134
10516WAT     H231791   8.114   3.871   9.121
10517WAT      O31792   6.103   4.404   5.253
10517WAT     H131793   6.078   4.336   5.321
10517WAT     H231794   6.156   4.361   5.180
10518WAT      O31795   4.509   1.756   7.862
10518WAT     H131796   4.497   1.822   7.936
10518WAT     H231797   4.424   1.746   7.811
10519WAT      O31798   1.685   5.332   1.931
10519WAT     H131799   1.587   5.320   1.942
10519WAT     H231800   1.718   5.279   1.853
10520WAT      O31801   5.589   1.293   6.861
10520WAT     H131802   5.531   1.255   6.789
10520WAT     H231803   5.646   1.220   6.899
10521WAT      O31804   0.841   7.986   7.850
10521WAT     H131805   0.938   8.000   7.870
10521WAT     H231806   0.830   7.900   7.800
10522WAT      O31807   9.617   9.147   5.235
10522WAT     H131808   9.678   9.075   5.202
10522WAT     H231809   9.574   9.117   5.320
10523WAT      O31810   4.894   3.056   2.642
10523WAT     H131811   4.830   3.087   2.713
10523WAT     H231812   4.988   3.068   2.675
10524WAT      O31813   6.671   4.593   6.204
10524WAT     H131814   6.587   4.539   6.206
10524WAT     H231815   6.729   4.563   6.129
10525WAT      O31816   7.803   7.612   6.137
10525WAT     H131817   7.826   7.515   6.142
10525WAT     H231818   7.884   7.666   6.163
10526WAT      O31819   7.426   6.721   5.755
10526WAT     H131820   7.432   6.674   5.843
10526WAT     H231821   7.491   6.797   5.754
10527WAT      O31822   3.807   4.455   3.651
10527WAT     H131823   3.861   4.538   3.645
10527WAT     H231824   3.766   4.434   3.562
10528WAT      O31825   6.059   7.520   0.218
10528WAT     H131826   6.069   7.542   0.315
10528WAT     H231827   6.029   7.601   0.168
10529WAT      O31828   4.103   7.853   3.465
10529WAT     H131829   4.136   7.940   3.503
10529WAT     H231830   4.037   7.812   3.528
10530WAT      O31831   7.645   6.687   2.400
10530WAT     H131832   7.708   6.723   2.332
10530WAT     H231833   7.635   6.753   2.475
10531WAT      O31834   5.135   1.092   0.283
10531WAT     H131835   5.050   1.103   0.232
10531WAT     H231836   5.211   1.080   0.220
10532WAT      O31837   0.461   0.359   4.365
10532WAT     H131838   0.545   0.324   4.325
10532WAT     H231839   0.477   0.385   4.460
10533WAT      O31840   6.337   2.870   7.011
10533WAT     H131841   6.389   2.825   7.084
10533WAT     H231842   6.378   2.959   6.992
10534WAT      O31843   4.944   6.325   2.460
10534WAT     H131844   4.979   6.333   2.367
10534WAT     H231845   4.847   6.349   2.461
10535WAT      O31846   1.556   1.636   3.966
10535WAT     H131847   1.481   1.683   3.918
10535WAT     H231848   1.551   1.538   3.949
10536WAT      O31849   8.028   5.445   1.048
10536WAT     H131850   8.018   5.353   1.009
10536WAT     H231851   8.110   5.488   1.011
10537WAT      O31852   9.406   9.438   5.597
10537WAT     H131853   9.358   9.506   5.653
10537WAT     H231854   9.339   9.387   5.542
10538WAT      O31855   1.947   8.373   1.829
10538WAT     H131856   1.999   8.289   1.813
10538WAT     H231857   2.010   8.448   1.851
10539WAT      O31858   7.625   9.063   0.587
10539WAT     H131859   7.548   9.058   0.525
10539WAT     H231860   7.647   9.159   0.606
10540WAT      O31861   3.802   6.656   0.312
10540WAT     H131862   3.715   6.704   0.324
10540WAT     H231863   3.811   6.627   0.217
10541WAT      O31864   9.749   5.635   6.347
10541WAT     H131865   9.796   5.696   6.412
10541WAT     H231866   9.815   5.572   6.308
10542WAT      O31867   3.238   1.320   5.004
10542WAT     H131868   3.179   1.250   5.045
10542WAT     H231869   3.226   1.319   4.904
10543WAT      O31870   7.280   9.688   0.414
10543WAT     H131871   7.316   9.599   0.385
10543WAT     H231872   7.188   9.676   0.451
10544WAT      O31873   8.745   5.471   0.237
10544WAT     H131874   8.832   5.515   0.214
10544WAT     H231875   8.756   5.417   0.320
10545WAT      O31876   4.339   1.522   3.982
10545WAT     H131877   4.354   1.528   3.883
10545WAT     H231878   4.426   1.501   4.027
10546WAT      O31879   4.469   1.102   8.196
10546WAT     H131880   4.451   1.191   8.154
10546WAT     H231881   4.447   1.106   8.293
10547WAT      O31882   4.149   7.232   3.492
10547WAT     H131883   4.125   7.219   3.588
10547WAT     H231884   4.065   7.232   3.436
10548WAT      O31885   8.836   1.263   6.373
10548WAT     H131886   8.867   1.179   6.330
10548WAT     H231887   8.913   1.307   6.420
10549WAT      O31888   5.343   2.637   6.827
10549WAT     H131889   5.314   2.552   6.784
10549WAT     H231890   5.315   2.714   6.771
10550WAT      O31891   3.870   0.059   4.951
10550WAT     H131892   3.860  -0.040   4.935
10550WAT     H231893   3.859   0.077   5.049
10551WAT      O31894   1.449   2.807   5.299
10551WAT     H131895   1.459   2.905   5.317
10551WAT     H231896   1.371   2.771   5.349
10552WAT      O31897   9.150   5.395   7.475
10552WAT     H131898   9.174   5.380   7.380
10552WAT     H231899   9.156   5.492   7.496
10553WAT      O31900   4.087   8.802   1.670
10553WAT     H131901   4.168   8.825   1.725
10553WAT     H231902   4.023   8.749   1.726
10554WAT      O31903   4.907   1.613   5.657
10554WAT     H131904   4.829   1.579   5.709
10554WAT     H231905   4.987   1.619   5.717
10555WAT      O31906   5.541   6.130   7.569
10555WAT     H131907   5.625   6.185   7.569
10555WAT     H231908   5.506   6.123   7.475
10556WAT      O31909   5.620   0.001   2.185
10556WAT     H131910   5.612   0.041   2.276
10556WAT     H231911   5.713   0.015   2.151
10557WAT      O31912   0.317   4.137   2.745
10557WAT     H131913   0.411   4.107   2.727
10557WAT     H231914   0.301   4.225   2.699
10558WAT      O31915   9.498   8.275   3.087
10558WAT     H131916   9.408   8.249   3.122
10558WAT     H231917   9.569   8.220   3.132
10559WAT      O31918   4.123   0.252   5.282
10559WAT     H131919   4.180   0.170   5.286
10559WAT     H231920   4.035   0.229   5.240
10560WAT      O31921   5.353   3.453   0.155
10560WAT     H131922   5.288   3.490   0.089
10560WAT     H231923   5.384   3.525   0.217
10561WAT      O31924   5.545   3.039   9.622
10561WAT     H131925   5.571   3.129   9.585
10561WAT     H231926   5.539   2.973   9.547
10562WAT      O31927   1.450   5.708   1.249
10562WAT     H131928   1.477   5.787   1.195
10562WAT     H231929   1.432   5.630   1.189
10563WAT      O31930   2.166   6.470   9.054
10563WAT     H131931   2.078   6.424   9.047
10563WAT     H231932   2.188   6.514   8.967
10564WAT      O31933   3.931   3.382   5.319
10564WAT     H131934   3.977   3.298   5.287
10564WAT     H231935   3.843   3.358   5.361
10565WAT      O31936   8.458   4.573   0.011
10565WAT     H131937   8.472   4.528   0.100
10565WAT     H231938   8.360   4.575  -0.009
10566WAT      O31939   0.466   6.341   1.070
10566WAT     H131940   0.426   6.251   1.085
10566WAT     H231941   0.466   6.362   0.973
10567WAT      O31942   2.072   8.416   8.825
10567WAT     H131943   2.046   8.508   8.852
10567WAT     H231944   2.153   8.387   8.877
10568WAT      O31945   7.161   3.479   2.333
10568WAT     H131946   7.122   3.473   2.241
10568WAT     H231947   7.125   3.560   2.379
10569WAT      O31948   1.647   3.817   1.748
10569WAT     H131949   1.722   3.880   1.768
10569WAT     H231950   1.568   3.840   1.806
10570WAT      O31951   0.178   6.185   7.984
10570WAT     H131952   0.218   6.262   7.933
10570WAT     H231953   0.249   6.115   7.999
10571WAT      O31954   5.187   1.386   2.305
10571WAT     H131955   5.152   1.338   2.386
10571WAT     H231956   5.158   1.482   2.308
10572WAT      O31957   6.547   1.016   7.306
10572WAT     H131958   6.487   1.040   7.230
10572WAT     H231959   6.575   1.099   7.354
10573WAT      O31960   1.817   5.853   1.617
10573WAT     H131961   1.790   5.942   1.653
10573WAT     H231962   1.736   5.794   1.610
10574WAT      O31963   0.972   3.880   3.078
10574WAT     H131964   1.046   3.821   3.046
10574WAT     H231965   0.884   3.835   3.061
10575WAT      O31966   2.617   1.207   3.741
10575WAT     H131967   2.582   1.191   3.834
10575WAT     H231968   2.632   1.305   3.728
10576WAT      O31969   5.802   4.282   0.248
10576WAT     H131970   5.893   4.321   0.233
10576WAT     H231971   5.772   4.233   0.166
10577WAT      O31972   9.199   4.921   6.247
10577WAT     H131973   9.288   4.963   6.262
10577WAT     H231974   9.163   4.949   6.158
10578WAT      O31975   2.736   1.174   6.288
10578WAT     H131976   2.834   1.155   6.285
10578WAT     H231977   2.718   1.267   6.257
10579WAT      O31978   3.615   8.827   2.283
10579WAT     H131979   3.634   8.735   2.317
10579WAT     H231980   3.518   8.849   2.298
10580WAT      O31981   1.798   7.805   2.242
10580WAT     H131982   1.894   7.819   2.216
10580WAT     H231983   1.776   7.865   2.320
10581WAT      O31984   5.687   2.624   2.205
10581WAT     H131985   5.608   2.589   2.255
10581WAT     H231986   5.743   2.679   2.267
10582WAT      O31987   3.451   0.866   4.485
10582WAT     H131988   3.497   0.799   4.544
10582WAT     H231989   3.399   0.817   4.414
10583WAT      O31990   1.494   1.203   2.721
10583WAT     H131991   1.502   1.166   2.628
10583WAT     H231992   1.579   1.185   2.770
10584WAT      O31993   5.004   0.277   5.644
10584WAT     H131994   5.051   0.204   5.693
10584WAT     H231995   5.029   0.273   5.547
10585WAT      O31996   8.234   3.830   7.300
10585WAT     H131997   8.284   3.749   7.331
10585WAT     H231998   8.251   3.844   7.203
10586WAT      O31999   0.738   6.105   3.163
10586WAT     H132000   0.649   6.129   3.125
10586WAT     H232001   0.793   6.188   3.172
10587WAT      O32002   1.912   8.569   4.685
10587WAT     H132003   1.956   8.615   4.608
10587WAT     H232004   1.973   8.570   4.764
10588WAT      O32005   3.421   9.774   1.579
10588WAT     H132006   3.387   9.832   1.505
10588WAT     H232007   3.458   9.832   1.652
10589WAT      O32008   4.380   5.342   8.539
10589WAT     H132009   4.287   5.314   8.515
10589WAT     H232010   4.444   5.304   8.472
10590WAT      O32011   5.460   0.146   2.770
10590WAT     H132012   5.456   0.207   2.691
10590WAT     H232013   5.369   0.106   2.785
10591WAT      O32014   1.606   1.120   4.693
10591WAT     H132015   1.513   1.084   4.699
10591WAT     H232016   1.614   1.182   4.615
10592WAT      O32017   9.833   8.302   3.753
10592WAT     H132018   9.907   8.248   3.792
10592WAT     H232019   9.871   8.386   3.713
10593WAT      O32020   0.377   7.166   2.415
10593WAT     H132021   0.371   7.214   2.327
10593WAT     H232022   0.361   7.232   2.489
10594WAT      O32023   6.696   7.402   5.004
10594WAT     H132024   6.787   7.433   5.032
10594WAT     H232025   6.698   7.373   4.909
10595WAT      O32026   6.122   7.927   5.662
10595WAT     H132027   6.157   7.974   5.582
10595WAT     H232028   6.170   7.840   5.674
10596WAT      O32029   1.333   7.730   8.967
10596WAT     H132030   1.321   7.665   9.042
10596WAT     H232031   1.423   7.717   8.926
10597WAT      O32032   9.479   1.690   6.558
10597WAT     H132033   9.455   1.741   6.641
10597WAT     H232034   9.443   1.739   6.478
10598WAT      O32035   9.462   4.896   2.514
10598WAT     H132036   9.371   4.859   2.534
10598WAT     H232037   9.465   4.928   2.420
10599WAT      O32038   7.439   6.173   9.550
10599WAT     H132039   7.438   6.136   9.457
10599WAT     H232040   7.385   6.257   9.553
10600WAT      O32041   0.042   6.648   9.058
10600WAT     H132042   0.123   6.673   9.110
10600WAT     H232043  -0.014   6.584   9.112
10601WAT      O32044   7.665   0.506   9.569
10601WAT     H132045   7.626   0.415   9.583
10601WAT     H232046   7.752   0.512   9.619
10602WAT      O32047   5.964   7.641   9.111
10602WAT     H132048   5.929   7.548   9.098
10602WAT     H232049   5.888   7.705   9.122
10603WAT      O32050   9.568   5.959   2.016
10603WAT     H132051   9.614   5.907   1.944
10603WAT     H232052   9.574   5.907   2.102
10604WAT      O32053   0.341   5.954   7.968
10604WAT     H132054   0.407   6.005   8.023
10604WAT     H232055   0.285   5.896   8.027
10605WAT      O32056   7.910   1.353   6.340
10605WAT     H132057   7.883   1.406   6.260
10605WAT     H232058   8.003   1.318   6.327
10606WAT      O32059   4.035   2.473   7.580
10606WAT     H132060   4.092   2.392   7.585
10606WAT     H232061   4.093   2.554   7.572
10607WAT      O32062   4.822   0.157   1.565
10607WAT     H132063   4.766   0.239   1.579
10607WAT     H232064   4.767   0.085   1.525
10608WAT      O32065   0.274   4.603   9.847
10608WAT     H132066   0.203   4.566   9.787
10608WAT     H232067   0.363   4.563   9.822
10609WAT      O32068   6.776   1.305   0.079
10609WAT     H132069   6.764   1.392   0.126
10609WAT     H232070   6.869   1.299   0.042
10610WAT      O32071   4.689   0.886   7.624
10610WAT     H132072   4.681   0.962   7.559
10610WAT     H232073   4.731   0.918   7.708
10611WAT      O32074   7.196   4.669   0.148
10611WAT     H132075   7.174   4.618   0.232
10611WAT     H232076   7.139   4.751   0.144
10612WAT      O32077   0.314   1.461   7.725
10612WAT     H132078   0.335   1.389   7.659
10612WAT     H232079   0.369   1.447   7.808
10613WAT      O32080   8.242   5.053   0.287
10613WAT     H132081   8.176   5.079   0.358
10613WAT     H232082   8.261   4.955   0.294
10614WAT      O32083   8.171   6.902   7.516
10614WAT     H132084   8.124   6.920   7.430
10614WAT     H232085   8.206   6.988   7.553
10615WAT      O32086   8.331   7.290   3.161
10615WAT     H132087   8.313   7.217   3.227
10615WAT     H232088   8.424   7.325   3.173
10616WAT      O32089   0.937   8.271   9.763
10616WAT     H132090   0.986   8.284   9.849
10616WAT     H232091   1.000   8.243   9.691
10617WAT      O32092   4.034   2.872   5.227
10617WAT     H132093   4.127   2.838   5.215
10617WAT     H232094   4.008   2.866   5.324
10618WAT      O32095   9.688   3.764   7.330
10618WAT     H132096   9.635   3.690   7.290
10618WAT     H232097   9.680   3.761   7.430
10619WAT      O32098   6.126   0.343   9.773
10619WAT     H132099   6.203   0.317   9.832
10619WAT     H232100   6.125   0.284   9.693
10620WAT      O32101   5.706   3.247   2.516
10620WAT     H132102   5.721   3.345   2.535
10620WAT     H232103   5.637   3.237   2.444
10621WAT      O32104   9.419   3.788   8.318
10621WAT     H132105   9.511   3.752   8.303
10621WAT     H232106   9.394   3.847   8.241
10622WAT      O32107   1.153   2.432   0.286
10622WAT     H132108   1.110   2.343   0.277
10622WAT     H232109   1.211   2.433   0.368
10623WAT      O32110   4.239   3.900   9.492
10623WAT     H132111   4.301   3.949   9.431
10623WAT     H232112   4.182   3.966   9.541
10624WAT      O32113   4.985   6.322   4.819
10624WAT     H132114   5.029   6.250   4.873
10624WAT     H232115   5.043   6.404   4.822
10625WAT      O32116   1.028   9.399   1.451
10625WAT     H132117   1.041   9.491   1.489
10625WAT     H232118   0.958   9.403   1.379
10626WAT      O32119   3.669   3.538   6.754
10626WAT     H132120   3.735   3.540   6.679
10626WAT     H232121   3.651   3.444   6.780
10627WAT      O32122   4.881   1.358   8.804
10627WAT     H132123   4.912   1.275   8.851
10627WAT     H232124   4.880   1.342   8.706
10628WAT      O32125   7.083   3.908   2.743
10628WAT     H132126   6.993   3.881   2.710
10628WAT     H232127   7.088   4.008   2.748
10629WAT      O32128   1.630   4.971   1.020
10629WAT     H132129   1.623   5.062   0.979
10629WAT     H232130   1.620   4.902   0.948
10630WAT      O32131   6.995   8.616   5.381
10630WAT     H132132   7.071   8.584   5.325
10630WAT     H232133   6.925   8.544   5.386
10631WAT      O32134   0.032   0.788   6.745
10631WAT     H132135   0.019   0.879   6.784
10631WAT     H232136  -0.055   0.753   6.711
10632WAT      O32137   5.006   9.777   1.214
10632WAT     H132138   4.989   9.707   1.283
10632WAT     H232139   5.023   9.734   1.126
10633WAT      O32140   7.162   0.739   0.842
10633WAT     H132141   7.216   0.823   0.830
10633WAT     H232142   7.067   0.763   0.862
10634WAT      O32143   5.798   4.128   9.375
10634WAT     H132144   5.823   4.210   9.323
10634WAT     H232145   5.846   4.049   9.338
10635WAT      O32146   3.507   1.679   0.265
10635WAT     H132147   3.473   1.637   0.182
10635WAT     H232148   3.607   1.677   0.265
10636WAT      O32149   8.648   1.922   0.854
10636WAT     H132150   8.739   1.889   0.878
10636WAT     H232151   8.621   1.994   0.918
10637WAT      O32152   7.140   8.712   6.177
10637WAT     H132153   7.105   8.648   6.245
10637WAT     H232154   7.076   8.718   6.101
10638WAT      O32155   4.974   2.921   3.400
10638WAT     H132156   4.913   3.000   3.404
10638WAT     H232157   4.983   2.891   3.305
10639WAT      O32158   2.363   5.803   5.810
10639WAT     H132159   2.293   5.862   5.851
10639WAT     H232160   2.371   5.719   5.864
10640WAT      O32161   1.409   2.261   6.871
10640WAT     H132162   1.415   2.163   6.851
10640WAT     H232163   1.354   2.306   6.800
10641WAT      O32164   2.776   1.426   7.571
10641WAT     H132165   2.778   1.506   7.630
10641WAT     H232166   2.805   1.452   7.478
10642WAT      O32167   7.234   4.921   8.394
10642WAT     H132168   7.278   4.836   8.422
10642WAT     H232169   7.144   4.900   8.356
10643WAT      O32170   7.382   6.670   3.853
10643WAT     H132171   7.331   6.755   3.839
10643WAT     H232172   7.478   6.692   3.868
10644WAT      O32173   7.983   6.440   2.294
10644WAT     H132174   7.949   6.433   2.388
10644WAT     H232175   7.914   6.485   2.237
10645WAT      O32176   8.672   7.188   7.141
10645WAT     H132177   8.756   7.196   7.193
10645WAT     H232178   8.693   7.189   7.043
10646WAT      O32179   7.410   7.818   9.350
10646WAT     H132180   7.390   7.721   9.354
10646WAT     H232181   7.475   7.842   9.423
10647WAT      O32182   2.291   8.608   4.727
10647WAT     H132183   2.291   8.558   4.813
10647WAT     H232184   2.306   8.543   4.651
10648WAT      O32185   0.705   3.222   9.214
10648WAT     H132186   0.617   3.176   9.226
10648WAT     H232187   0.770   3.159   9.172
10649WAT      O32188   5.151   5.993   2.421
10649WAT     H132189   5.128   6.063   2.488
10649WAT     H232190   5.111   5.906   2.450
10650WAT      O32191   9.775   1.174   8.192
10650WAT     H132192   9.839   1.103   8.160
10650WAT     H232193   9.689   1.165   8.143
10651WAT      O32194   7.800   1.349   4.960
10651WAT     H132195   7.715   1.336   4.909
10651WAT     H232196   7.877   1.319   4.904
10652WAT      O32197   1.219   7.585   3.611
10652WAT     H132198   1.318   7.574   3.614
10652WAT     H232199   1.177   7.529   3.682
10653WAT      O32200   9.571   4.640   7.763
10653WAT     H132201   9.535   4.576   7.695
10653WAT     H232202   9.498   4.702   7.792
10654WAT      O32203   6.930   3.473   4.145
10654WAT     H132204   6.990   3.549   4.168
10654WAT     H232205   6.843   3.508   4.109
10655WAT      O32206   3.794   1.080   4.753
10655WAT     H132207   3.818   1.006   4.690
10655WAT     H232208   3.878   1.125   4.784
10656WAT      O32209   2.048   1.690   3.135
10656WAT     H132210   2.039   1.652   3.227
10656WAT     H232211   2.121   1.759   3.135
10657WAT      O32212   1.357   0.649   0.733
10657WAT     H132213   1.387   0.564   0.777
10657WAT     H232214   1.367   0.725   0.797
10658WAT      O32215   8.996   4.595   3.364
10658WAT     H132216   8.945   4.620   3.446
10658WAT     H232217   9.088   4.564   3.390
10659WAT      O32218   4.750   6.400   8.544
10659WAT     H132219   4.797   6.393   8.631
10659WAT     H232220   4.752   6.495   8.512
10660WAT      O32221   6.633   0.194   8.420
10660WAT     H132222   6.676   0.146   8.496
10660WAT     H232223   6.535   0.202   8.437
10661WAT      O32224   8.819   0.827   8.326
10661WAT     H132225   8.806   0.920   8.359
10661WAT     H232226   8.903   0.823   8.271
10662WAT      O32227   1.777   1.605   7.606
10662WAT     H132228   1.729   1.685   7.570
10662WAT     H232229   1.834   1.633   7.683
10663WAT      O32230   1.910   0.269   6.673
10663WAT     H132231   1.908   0.368   6.689
10663WAT     H232232   1.914   0.251   6.574
10664WAT      O32233   9.678   8.513   1.679
10664WAT     H132234   9.628   8.428   1.700
10664WAT     H232235   9.614   8.581   1.644
10665WAT      O32236   1.867   5.504   0.653
10665WAT     H132237   1.811   5.560   0.714
10665WAT     H232238   1.914   5.434   0.707
10666WAT      O32239   7.771   5.343   5.818
10666WAT     H132240   7.682   5.380   5.845
10666WAT     H232241   7.808   5.287   5.892
10667WAT      O32242   1.513   8.512   4.531
10667WAT     H132243   1.551   8.590   4.481
10667WAT     H232244   1.563   8.499   4.616
10668WAT      O32245   1.478   9.341   7.181
10668WAT     H132246   1.533   9.396   7.245
10668WAT     H232247   1.526   9.335   7.093
10669WAT      O32248   7.620   9.283   1.836
10669WAT     H132249   7.699   9.337   1.805
10669WAT     H232250   7.629   9.189   1.803
10670WAT      O32251   0.111   3.210   0.798
10670WAT     H132252   0.192   3.257   0.835
10670WAT     H232253   0.094   3.128   0.852
10671WAT      O32254   7.280   4.423   4.609
10671WAT     H132255   7.291   4.451   4.705
10671WAT     H232256   7.323   4.334   4.595
10672WAT      O32257   0.123   1.030   5.498
10672WAT     H132258   0.050   1.079   5.451
10672WAT     H232259   0.137   1.071   5.588
10673WAT      O32260   5.120   7.173   4.780
10673WAT     H132261   5.115   7.073   4.782
10673WAT     H232262   5.102   7.209   4.871
10674WAT      O32263   1.125   5.496   5.025
10674WAT     H132264   1.210   5.550   5.023
10674WAT     H232265   1.146   5.400   5.011
10675WAT      O32266   4.096   3.594   5.386
10675WAT     H132267   4.100   3.637   5.476
10675WAT     H232268   4.024   3.524   5.385
10676WAT      O32269   9.624   3.781   2.762
10676WAT     H132270   9.609   3.683   2.748
10676WAT     H232271   9.657   3.798   2.855
10677WAT      O32272   8.105   2.152   4.395
10677WAT     H132273   8.062   2.120   4.311
10677WAT     H232274   8.179   2.090   4.421
10678WAT      O32275   2.907   3.300   3.932
10678WAT     H132276   2.918   3.219   3.989
10678WAT     H232277   2.820   3.295   3.883
10679WAT      O32278   4.459   4.564   8.063
10679WAT     H132279   4.390   4.518   8.118
10679WAT     H232280   4.538   4.503   8.051
10680WAT      O32281   8.366   4.837   3.464
10680WAT     H132282   8.323   4.824   3.553
10680WAT     H232283   8.448   4.780   3.458
10681WAT      O32284   4.570   4.910   7.398
10681WAT     H132285   4.585   4.853   7.479
10681WAT     H232286   4.632   4.989   7.400
10682WAT      O32287   1.886   0.205   7.761
10682WAT     H132288   1.826   0.164   7.692
10682WAT     H232289   1.887   0.304   7.749
10683WAT      O32290   5.837   1.630   6.052
10683WAT     H132291   5.785   1.645   5.968
10683WAT     H232292   5.802   1.550   6.100
10684WAT      O32293   3.367   4.304   8.544
10684WAT     H132294   3.341   4.387   8.495
10684WAT     H232295   3.467   4.298   8.548
10685WAT      O32296   7.714   5.168   5.289
10685WAT     H132297   7.635   5.163   5.350
10685WAT     H232298   7.794   5.130   5.334
10686WAT      O32299   8.591   1.867   3.799
10686WAT     H132300   8.566   1.943   3.737
10686WAT     H232301   8.658   1.900   3.865
10687WAT      O32302   4.737   6.873   7.326
10687WAT     H132303   4.640   6.899   7.322
10687WAT     H232304   4.793   6.955   7.331
10688WAT      O32305   9.543   2.347   9.482
10688WAT     H132306   9.543   2.309   9.390
10688WAT     H232307   9.471   2.416   9.490
10689WAT      O32308   7.573   4.602   5.793
10689WAT     H132309   7.667   4.633   5.787
10689WAT     H232310   7.569   4.503   5.781
10690WAT      O32311   6.104   4.083   6.457
10690WAT     H132312   6.129   4.083   6.360
10690WAT     H232313   6.018   4.132   6.469
10691WAT      O32314   9.206   5.459   9.556
10691WAT     H132315   9.284   5.492   9.503
10691WAT     H232316   9.151   5.398   9.500
10692WAT      O32317   4.231   7.209   2.391
10692WAT     H132318   4.272   7.291   2.352
10692WAT     H232319   4.209   7.225   2.487
10693WAT      O32320   7.732   2.673   4.723
10693WAT     H132321   7.760   2.733   4.798
10693WAT     H232322   7.791   2.592   4.722
10694WAT      O32323   9.578   0.183   4.701
10694WAT     H132324   9.626   0.096   4.708
10694WAT     H232325   9.567   0.223   4.792
10695WAT      O32326   9.874   8.414   5.087
10695WAT     H132327   9.793   8.358   5.102
10695WAT     H232328   9.865   8.500   5.136
10696WAT      O32329   6.170   9.322   8.723
10696WAT     H132330   6.076   9.294   8.704
10696WAT     H232331   6.215   9.348   8.637
10697WAT      O32332   5.990   5.355   3.936
10697WAT     H132333   6.003   5.439   3.989
10697WAT     H232334   5.900   5.317   3.955
10698WAT      O32335   3.267   8.009   5.084
10698WAT     H132336   3.247   7.914   5.063
10698WAT     H232337   3.236   8.030   5.177
10699WAT      O32338   9.176   1.061   1.350
10699WAT     H132339   9.128   0.978   1.320
10699WAT     H232340   9.109   1.133   1.369
10700WAT      O32341   8.895   0.468   4.532
10700WAT     H132342   8.796   0.459   4.524
10700WAT     H232343   8.939   0.417   4.458
10701WAT      O32344   5.357   8.351   3.581
10701WAT     H132345   5.340   8.271   3.640
10701WAT     H232346   5.417   8.415   3.629
10702WAT      O32347   8.900   7.603   6.285
10702WAT     H132348   8.889   7.683   6.227
10702WAT     H232349   8.810   7.565   6.306
10703WAT      O32350   4.438   8.463   6.827
10703WAT     H132351   4.432   8.372   6.869
10703WAT     H232352   4.487   8.525   6.889
10704WAT      O32353   2.522   3.131   4.220
10704WAT     H132354   2.434   3.175   4.238
10704WAT     H232355   2.506   3.035   4.196
10705WAT      O32356   1.300   2.259   9.167
10705WAT     H132357   1.375   2.240   9.230
10705WAT     H232358   1.234   2.183   9.170
10706WAT      O32359   7.324   7.823   3.795
10706WAT     H132360   7.419   7.839   3.824
10706WAT     H232361   7.309   7.866   3.706
10707WAT      O32362   9.041   4.273   2.668
10707WAT     H132363   9.092   4.202   2.619
10707WAT     H232364   8.946   4.243   2.678
10708WAT      O32365   4.667   5.358   9.049
10708WAT     H132366   4.719   5.335   9.131
10708WAT     H232367   4.569   5.356   9.070
10709WAT      O32368   1.343   4.352   6.642
10709WAT     H132369   1.335   4.444   6.680
10709WAT     H232370   1.309   4.285   6.708
10710WAT      O32371   7.150   8.142   5.913
10710WAT     H132372   7.149   8.237   5.942
10710WAT     H232373   7.108   8.085   5.983
10711WAT      O32374   2.333   2.945   9.727
10711WAT     H132375   2.313   3.037   9.760
10711WAT     H232376   2.254   2.886   9.744
10712WAT      O32377   6.711   6.917   1.814
10712WAT     H132378   6.769   6.987   1.855
10712WAT     H232379   6.675   6.951   1.727
10713WAT      O32380   5.442   3.289   1.510
10713WAT     H132381   5.343   3.292   1.528
10713WAT     H232382   5.457   3.283   1.412
10714WAT      O32383   2.623   6.298   6.225
10714WAT     H132384   2.573   6.270   6.307
10714WAT     H232385   2.568   6.363   6.173
10715WAT      O32386   5.277   4.959   2.248
10715WAT     H132387   5.370   4.997   2.244
10715WAT     H232388   5.219   5.018   2.304
10716WAT      O32389   2.677   1.265   0.535
10716WAT     H132390   2.692   1.168   0.516
10716WAT     H232391   2.625   1.275   0.620
10717WAT      O32392   6.883   0.156   1.008
10717WAT     H132393   6.953   0.189   0.945
10717WAT     H232394   6.925   0.098   1.078
10718WAT      O32395   2.043   9.472   8.854
10718WAT     H132396   2.040   9.395   8.791
10718WAT     H232397   2.137   9.485   8.888
10719WAT      O32398   6.801   6.575   8.043
10719WAT     H132399   6.848   6.662   8.058
10719WAT     H232400   6.711   6.593   8.004
10720WAT      O32401   9.139   9.457   4.853
10720WAT     H132402   9.138   9.491   4.759
10720WAT     H232403   9.187   9.523   4.912
10721WAT      O32404   5.470   2.679   3.152
10721WAT     H132405   5.553   2.627   3.134
10721WAT     H232406   5.469   2.711   3.246
10722WAT      O32407   8.256   1.935   3.976
10722WAT     H132408   8.278   1.842   3.948
10722WAT     H232409   8.262   1.996   3.897
10723WAT      O32410   5.743   8.110   0.064
10723WAT     H132411   5.685   8.043   0.110
10723WAT     H232412   5.790   8.067  -0.013
10724WAT      O32413   4.266   9.581   2.786
10724WAT     H132414   4.198   9.636   2.738
10724WAT     H232415   4.295   9.505   2.728
10725WAT      O32416   0.309   3.244   2.723
10725WAT     H132417   0.406   3.243   2.748
10725WAT     H232418   0.300   3.256   2.624
10726WAT      O32419   7.700   8.313   0.736
10726WAT     H132420   7.664   8.373   0.807
10726WAT     H232421   7.775   8.258   0.774
10727WAT      O32422   3.030   5.052   6.561
10727WAT     H132423   3.011   5.149   6.578
10727WAT     H232424   3.081   5.043   6.475
10728WAT      O32425   5.873   3.747   5.639
10728WAT     H132426   5.926   3.790   5.565
10728WAT     H232427   5.791   3.802   5.657
10729WAT      O32428   0.070   0.961   7.646
10729WAT     H132429   0.054   0.976   7.744
10729WAT     H232430   0.005   0.893   7.611
10730WAT      O32431   6.621   1.424   7.016
10730WAT     H132432   6.625   1.328   6.988
10730WAT     H232433   6.649   1.481   6.939
10731WAT      O32434   7.921   4.806   8.548
10731WAT     H132435   8.000   4.842   8.498
10731WAT     H232436   7.951   4.734   8.611
10732WAT      O32437   9.384   7.952   0.840
10732WAT     H132438   9.368   8.040   0.884
10732WAT     H232439   9.363   7.959   0.742
10733WAT      O32440   6.890   6.982   6.606
10733WAT     H132441   6.834   6.909   6.643
10733WAT     H232442   6.917   6.959   6.512
10734WAT      O32443   3.790   1.450   1.121
10734WAT     H132444   3.723   1.462   1.194
10734WAT     H232445   3.858   1.383   1.148
10735WAT      O32446   6.797   4.131   3.663
10735WAT     H132447   6.722   4.075   3.699
10735WAT     H232448   6.839   4.182   3.737
10736WAT      O32449   4.445   7.875   0.802
10736WAT     H132450   4.417   7.784   0.831
10736WAT     H232451   4.533   7.898   0.842
10737WAT      O32452   7.593   4.968   9.076
10737WAT     H132453   7.587   5.025   8.995
10737WAT     H232454   7.535   5.006   9.148
10738WAT      O32455   2.098   4.825   3.112
10738WAT     H132456   2.165   4.897   3.131
10738WAT     H232457   2.069   4.831   3.016
10739WAT      O32458   8.993   4.302   6.011
10739WAT     H132459   9.088   4.273   6.020
10739WAT     H232460   8.977   4.383   6.066
10740WAT      O32461   5.969   7.982   4.199
10740WAT     H132462   5.954   7.898   4.148
10740WAT     H232463   5.914   8.055   4.160
10741WAT      O32464   7.048   5.853   6.213
10741WAT     H132465   7.003   5.788   6.152
10741WAT     H232466   7.147   5.853   6.194
10742WAT      O32467   2.585   4.036   3.257
10742WAT     H132468   2.503   4.035   3.200
10742WAT     H232469   2.645   4.110   3.227
10743WAT      O32470   0.287   0.491   4.011
10743WAT     H132471   0.370   0.539   3.985
10743WAT     H232472   0.297   0.393   3.991
10744WAT      O32473   9.632   0.675   6.240
10744WAT     H132474   9.667   0.726   6.318
10744WAT     H232475   9.540   0.708   6.217
10745WAT      O32476   7.555   9.458   1.443
10745WAT     H132477   7.653   9.449   1.426
10745WAT     H232478   7.530   9.555   1.443
10746WAT      O32479   0.507   0.310   9.176
10746WAT     H132480   0.427   0.363   9.149
10746WAT     H232481   0.542   0.260   9.096
10747WAT      O32482   8.631   8.327   2.054
10747WAT     H132483   8.672   8.239   2.076
10747WAT     H232484   8.620   8.380   2.139
10748WAT      O32485   2.323   3.865   3.865
10748WAT     H132486   2.412   3.854   3.821
10748WAT     H232487   2.274   3.941   3.822
10749WAT      O32488   4.546   4.252   9.108
10749WAT     H132489   4.509   4.160   9.098
10749WAT     H232490   4.478   4.318   9.074
10750WAT      O32491   6.396   0.652   5.691
10750WAT     H132492   6.439   0.615   5.773
10750WAT     H232493   6.299   0.668   5.709
10751WAT      O32494   1.724   1.984   6.588
10751WAT     H132495   1.789   1.911   6.567
10751WAT     H232496   1.632   1.947   6.593
10752WAT      O32497   8.032   9.768   5.652
10752WAT     H132498   8.110   9.707   5.668
10752WAT     H232499   7.976   9.771   5.735
10753WAT      O32500   7.027   9.435   1.386
10753WAT     H132501   6.999   9.392   1.471
10753WAT     H232502   6.997   9.379   1.309
10754WAT      O32503   3.381   9.766   1.172
10754WAT     H132504   3.287   9.731   1.163
10754WAT     H232505   3.417   9.789   1.081
10755WAT      O32506   3.025   1.328   0.763
10755WAT     H132507   3.122   1.346   0.750
10755WAT     H232508   3.003   1.329   0.860
10756WAT      O32509   2.511   2.952   2.474
10756WAT     H132510   2.483   3.020   2.541
10756WAT     H232511   2.542   2.869   2.522
10757WAT      O32512   0.914   7.727   0.194
10757WAT     H132513   0.980   7.656   0.168
10757WAT     H232514   0.933   7.810   0.143
10758WAT      O32515   3.450   6.599   4.712
10758WAT     H132516   3.485   6.549   4.633
10758WAT     H232517   3.374   6.658   4.682
10759WAT      O32518   3.237   8.523   0.524
10759WAT     H132519   3.224   8.477   0.436
10759WAT     H232520   3.205   8.463   0.598
10760WAT      O32521   6.230   1.048   6.199
10760WAT     H132522   6.293   1.042   6.122
10760WAT     H232523   6.164   1.121   6.182
10761WAT      O32524   7.181   9.252   8.177
10761WAT     H132525   7.239   9.182   8.136
10761WAT     H232526   7.158   9.321   8.108
10762WAT      O32527   2.265   6.287   9.264
10762WAT     H132528   2.286   6.351   9.338
10762WAT     H232529   2.221   6.337   9.189
10763WAT      O32530   8.107   2.950   1.474
10763WAT     H132531   8.174   2.910   1.412
10763WAT     H232532   8.015   2.935   1.438
10764WAT      O32533   5.563   3.366   0.879
10764WAT     H132534   5.633   3.406   0.820
10764WAT     H232535   5.543   3.273   0.849
10765WAT      O32536   6.893   5.075   4.787
10765WAT     H132537   6.978   5.077   4.840
10765WAT     H232538   6.902   5.009   4.713
10766WAT      O32539   3.218   2.953   4.445
10766WAT     H132540   3.137   3.011   4.458
10766WAT     H232541   3.189   2.862   4.415
10767WAT      O32542   8.088   4.018   9.017
10767WAT     H132543   8.185   4.028   8.995
10767WAT     H232544   8.064   4.080   9.092
10768WAT      O32545   1.650   6.526   7.764
10768WAT     H132546   1.660   6.558   7.859
10768WAT     H232547   1.738   6.493   7.730
10769WAT      O32548   0.211   3.623   1.623
10769WAT     H132549   0.307   3.600   1.607
10769WAT     H232550   0.154   3.544   1.604
10770WAT      O32551   5.303   8.235   9.012
10770WAT     H132552   5.348   8.147   8.996
10770WAT     H232553   5.324   8.266   9.105
10771WAT      O32554   0.453   5.257   7.224
10771WAT     H132555   0.457   5.182   7.291
10771WAT     H232556   0.390   5.327   7.257
10772WAT      O32557   4.320   7.860   1.499
10772WAT     H132558   4.418   7.871   1.519
10772WAT     H232559   4.307   7.778   1.443
10773WAT      O32560   7.209   3.316   6.575
10773WAT     H132561   7.222   3.264   6.659
10773WAT     H232562   7.273   3.394   6.574
10774WAT      O32563   8.525   2.837   7.340
10774WAT     H132564   8.577   2.774   7.398
10774WAT     H232565   8.470   2.898   7.397
10775WAT      O32566   9.822   9.686   9.855
10775WAT     H132567   9.751   9.716   9.918
10775WAT     H232568   9.906   9.738   9.873
10776WAT      O32569   6.410   6.483   5.367
10776WAT     H132570   6.391   6.577   5.338
10776WAT     H232571   6.394   6.475   5.465
10777WAT      O32572   5.107   8.560   4.173
10777WAT     H132573   5.175   8.593   4.238
10777WAT     H232574   5.048   8.492   4.217
10778WAT      O32575   1.605   7.945   8.763
10778WAT     H132576   1.524   8.000   8.778
10778WAT     H232577   1.592   7.854   8.803
10779WAT      O32578   2.507   1.497   4.444
10779WAT     H132579   2.545   1.411   4.410
10779WAT     H232580   2.444   1.535   4.376
10780WAT      O32581   5.707   3.820   0.222
10780WAT     H132582   5.785   3.832   0.160
10780WAT     H232583   5.648   3.900   0.218
10781WAT      O32584   6.644   6.533   9.572
10781WAT     H132585   6.682   6.590   9.499
10781WAT     H232586   6.560   6.575   9.607
10782WAT      O32587   1.846   6.490   6.745
10782WAT     H132588   1.771   6.526   6.800
10782WAT     H232589   1.924   6.469   6.805
10783WAT      O32590   1.101   1.003   0.776
10783WAT     H132591   1.082   1.023   0.680
10783WAT     H232592   1.054   0.918   0.802
10784WAT      O32593   2.751   5.340   8.683
10784WAT     H132594   2.711   5.350   8.774
10784WAT     H232595   2.777   5.245   8.667
10785WAT      O32596   3.472   0.592   8.348
10785WAT     H132597   3.399   0.654   8.320
10785WAT     H232598   3.547   0.598   8.282
10786WAT      O32599   4.438   7.172   6.998
10786WAT     H132600   4.481   7.082   7.005
10786WAT     H232601   4.436   7.201   6.903
10787WAT      O32602   1.125   0.118   4.017
10787WAT     H132603   1.135   0.027   4.057
10787WAT     H232604   1.028   0.139   4.006
10788WAT      O32605   8.893   2.659   0.590
10788WAT     H132606   8.907   2.576   0.536
10788WAT     H232607   8.812   2.707   0.557
10789WAT      O32608   7.516   0.158   6.016
10789WAT     H132609   7.571   0.115   5.944
10789WAT     H232610   7.471   0.087   6.070
10790WAT      O32611   2.789   6.669   1.892
10790WAT     H132612   2.769   6.684   1.989
10790WAT     H232613   2.819   6.575   1.878
10791WAT      O32614   4.852   7.365   7.149
10791WAT     H132615   4.755   7.351   7.127
10791WAT     H232616   4.898   7.276   7.152
10792WAT      O32617   5.930   5.822   7.754
10792WAT     H132618   5.910   5.739   7.701
10792WAT     H232619   5.912   5.805   7.851
10793WAT      O32620   3.924   4.281   9.529
10793WAT     H132621   3.999   4.339   9.563
10793WAT     H232622   3.839   4.333   9.532
10794WAT      O32623   0.172   9.286   5.867
10794WAT     H132624   0.091   9.321   5.820
10794WAT     H232625   0.241   9.261   5.799
10795WAT      O32626   4.791   8.793   1.013
10795WAT     H132627   4.778   8.703   0.972
10795WAT     H232628   4.703   8.840   1.021
10796WAT      O32629   0.336   9.412   6.199
10796WAT     H132630   0.338   9.444   6.294
10796WAT     H232631   0.242   9.389   6.173
10797WAT      O32632   9.015   9.008   1.884
10797WAT     H132633   8.984   8.914   1.873
10797WAT     H232634   9.045   9.022   1.978
10798WAT      O32635   6.023   4.765   5.877
10798WAT     H132636   6.002   4.845   5.933
10798WAT     H232637   6.020   4.789   5.780
10799WAT      O32638   1.010   6.443   2.646
10799WAT     H132639   1.092   6.388   2.660
10799WAT     H232640   0.935   6.385   2.617
10800WAT      O32641   1.275   2.757   8.125
10800WAT     H132642   1.193   2.801   8.089
10800WAT     H232643   1.354   2.784   8.071
10801WAT      O32644   3.229   9.342   6.498
10801WAT     H132645   3.211   9.269   6.564
10801WAT     H232646   3.145   9.394   6.482
10802WAT      O32647   6.433   9.096   7.799
10802WAT     H132648   6.422   9.188   7.761
10802WAT     H232649   6.405   9.095   7.895
10803WAT      O32650   7.540   6.354   7.211
10803WAT     H132651   7.509   6.305   7.293
10803WAT     H232652   7.470   6.420   7.184
10804WAT      O32653   8.920   6.953   5.306
10804WAT     H132654   8.995   6.984   5.248
10804WAT     H232655   8.883   7.030   5.357
10805WAT      O32656   2.312   3.181   3.629
10805WAT     H132657   2.227   3.186   3.578
10805WAT     H232658   2.301   3.224   3.719
10806WAT      O32659   4.379   4.105   0.417
10806WAT     H132660   4.289   4.070   0.443
10806WAT     H232661   4.390   4.097   0.318
10807WAT      O32662   7.784   1.248   1.826
10807WAT     H132663   7.791   1.165   1.771
10807WAT     H232664   7.765   1.326   1.766
10808WAT      O32665   5.013   1.085   1.504
10808WAT     H132666   5.043   1.174   1.538
10808WAT     H232667   4.925   1.095   1.457
10809WAT      O32668   4.803   8.325   7.817
10809WAT     H132669   4.729   8.276   7.770
10809WAT     H232670   4.840   8.395   7.755
10810WAT      O32671   2.237   1.857   9.497
10810WAT     H132672   2.191   1.946   9.497
10810WAT     H232673   2.295   1.849   9.578
10811WAT      O32674   5.566   3.482   5.808
10811WAT     H132675   5.656   3.491   5.764
10811WAT     H232676   5.503   3.436   5.746
10812WAT      O32677   8.435   2.060   8.956
10812WAT     H132678   8.433   1.961   8.936
10812WAT     H232679   8.500   2.104   8.895
10813WAT      O32680   1.842   8.451   5.061
10813WAT     H132681   1.743   8.459   5.074
10813WAT     H232682   1.869   8.356   5.069
10814WAT      O32683   7.651   2.863   3.786
10814WAT     H132684   7.598   2.781   3.806
10814WAT     H232685   7.654   2.878   3.687
10815WAT      O32686   0.530   4.759   0.359
10815WAT     H132687   0.473   4.753   0.441
10815WAT     H232688   0.495   4.696   0.289
10816WAT      O32689   8.015   0.082   0.566
10816WAT     H132690   7.943   0.014   0.579
10816WAT     H232691   8.077   0.052   0.494
10817WAT      O32692   0.247   6.948   1.137
10817WAT     H132693   0.327   6.984   1.185
10817WAT     H232694   0.183   6.909   1.203
10818WAT      O32695   1.888   1.646   5.951
10818WAT     H132696   1.894   1.743   5.930
10818WAT     H232697   1.836   1.633   6.036
10819WAT      O32698   0.054   0.410   7.361
10819WAT     H132699  -0.016   0.459   7.309
10819WAT     H232700   0.024   0.317   7.379
10820WAT      O32701   2.048   7.631   1.458
10820WAT     H132702   1.977   7.698   1.436
10820WAT     H232703   2.131   7.653   1.408
10821WAT      O32704   5.615   0.325   1.409
10821WAT     H132705   5.583   0.282   1.325
10821WAT     H232706   5.706   0.289   1.432
10822WAT      O32707   8.608   7.285   1.132
10822WAT     H132708   8.648   7.317   1.046
10822WAT     H232709   8.661   7.321   1.208
10823WAT      O32710   9.646   5.228   9.869
10823WAT     H132711   9.579   5.238   9.796
10823WAT     H232712   9.600   5.199   9.953
10824WAT      O32713   7.520   6.141   4.518
10824WAT     H132714   7.530   6.132   4.419
10824WAT     H232715   7.607   6.118   4.562
10825WAT      O32716   2.088   8.105   2.041
10825WAT     H132717   2.073   8.015   2.081
10825WAT     H232718   2.088   8.174   2.113
10826WAT      O32719   4.302   1.040   6.011
10826WAT     H132720   4.288   0.958   6.066
10826WAT     H232721   4.382   1.029   5.953
10827WAT      O32722   2.367   7.004   8.490
10827WAT     H132723   2.422   7.085   8.510
10827WAT     H232724   2.320   7.016   8.403
10828WAT      O32725   5.627   3.503   8.234
10828WAT     H132726   5.725   3.492   8.220
10828WAT     H232727   5.611   3.574   8.302
10829WAT      O32728   8.278   3.114   4.762
10829WAT     H132729   8.288   3.156   4.852
10829WAT     H232730   8.235   3.179   4.700
10830WAT      O32731   1.197   5.408   1.819
10830WAT     H132732   1.166   5.319   1.784
10830WAT     H232733   1.137   5.437   1.893
10831WAT      O32734   7.420   1.630   9.124
10831WAT     H132735   7.511   1.628   9.083
10831WAT     H232736   7.360   1.687   9.068
10832WAT      O32737   1.991   6.254   7.001
10832WAT     H132738   2.009   6.166   6.956
10832WAT     H232739   1.926   6.240   7.076
10833WAT      O32740   6.527   4.152   4.067
10833WAT     H132741   6.598   4.098   4.021
10833WAT     H232742   6.518   4.122   4.162
10834WAT      O32743   1.593   3.536   5.237
10834WAT     H132744   1.563   3.631   5.229
10834WAT     H232745   1.620   3.503   5.146
10835WAT      O32746   0.436   8.938   4.872
10835WAT     H132747   0.364   8.876   4.905
10835WAT     H232748   0.394   9.024   4.845
10836WAT      O32749   6.723   8.137   6.976
10836WAT     H132750   6.757   8.056   6.929
10836WAT     H232751   6.625   8.127   6.993
10837WAT      O32752   9.084   5.214   5.181
10837WAT     H132753   9.059   5.305   5.149
10837WAT     H232754   9.183   5.205   5.184
10838WAT      O32755   9.419   1.434   5.161
10838WAT     H132756   9.389   1.473   5.074
10838WAT     H232757   9.444   1.508   5.224
10839WAT      O32758   5.230   2.444   3.998
10839WAT     H132759   5.134   2.420   4.012
10839WAT     H232760   5.266   2.486   4.081
10840WAT      O32761   2.521   3.329   1.432
10840WAT     H132762   2.526   3.243   1.483
10840WAT     H232763   2.525   3.406   1.496
10841WAT      O32764   7.924   0.699   1.841
10841WAT     H132765   7.970   0.758   1.908
10841WAT     H232766   7.890   0.617   1.887
10842WAT      O32767   4.534   8.798   1.673
10842WAT     H132768   4.488   8.813   1.760
10842WAT     H232769   4.511   8.873   1.610
10843WAT      O32770   2.255   0.851   2.382
10843WAT     H132771   2.172   0.865   2.436
10843WAT     H232772   2.278   0.936   2.334
10844WAT      O32773   2.031   8.127   0.423
10844WAT     H132774   1.948   8.087   0.383
10844WAT     H232775   2.099   8.140   0.351
10845WAT      O32776   7.477   4.168   7.895
10845WAT     H132777   7.394   4.207   7.936
10845WAT     H232778   7.557   4.219   7.927
10846WAT      O32779   4.256   2.185   4.645
10846WAT     H132780   4.198   2.160   4.723
10846WAT     H232781   4.329   2.245   4.676
10847WAT      O32782   4.994   1.163   8.946
10847WAT     H132783   4.984   1.081   8.888
10847WAT     H232784   5.048   1.140   9.026
10848WAT      O32785   6.334   9.221   3.300
10848WAT     H132786   6.343   9.316   3.329
10848WAT     H232787   6.421   9.173   3.316
10849WAT      O32788   7.404   2.118   0.779
10849WAT     H132789   7.349   2.128   0.862
10849WAT     H232790   7.347   2.079   0.707
10850WAT      O32791   8.181   1.083   8.874
10850WAT     H132792   8.135   1.167   8.903
10850WAT     H232793   8.129   1.004   8.907
10851WAT      O32794   7.786   6.640   6.627
10851WAT     H132795   7.757   6.622   6.533
10851WAT     H232796   7.841   6.723   6.630
10852WAT      O32797   0.923   7.369   7.534
10852WAT     H132798   1.020   7.392   7.527
10852WAT     H232799   0.871   7.431   7.475
10853WAT      O32800   0.460   3.118   5.035
10853WAT     H132801   0.373   3.157   5.063
10853WAT     H232802   0.463   3.108   4.936
10854WAT      O32803   8.128   2.477   5.336
10854WAT     H132804   8.062   2.437   5.401
10854WAT     H232805   8.186   2.404   5.299
10855WAT      O32806   7.311   1.993   0.312
10855WAT     H132807   7.298   1.994   0.412
10855WAT     H232808   7.363   2.073   0.284
10856WAT      O32809   8.069   8.613   9.109
10856WAT     H132810   7.975   8.580   9.114
10856WAT     H232811   8.132   8.535   9.108
10857WAT      O32812   6.046   1.162   4.836
10857WAT     H132813   6.119   1.167   4.904
10857WAT     H232814   6.065   1.227   4.762
10858WAT      O32815   0.404   2.447   7.168
10858WAT     H132816   0.344   2.527   7.179
10858WAT     H232817   0.488   2.474   7.122
10859WAT      O32818   3.263   4.906   7.315
10859WAT     H132819   3.362   4.899   7.303
10859WAT     H232820   3.241   4.902   7.412
10860WAT      O32821   4.342   3.347   5.811
10860WAT     H132822   4.367   3.385   5.722
10860WAT     H232823   4.416   3.289   5.845
10861WAT      O32824   9.088   4.462   6.660
10861WAT     H132825   9.032   4.539   6.628
10861WAT     H232826   9.170   4.456   6.603
10862WAT      O32827   9.878   3.268   6.887
10862WAT     H132828   9.955   3.233   6.939
10862WAT     H232829   9.793   3.256   6.939
10863WAT      O32830   5.902   5.494   5.764
10863WAT     H132831   5.859   5.545   5.839
10863WAT     H232832   5.954   5.556   5.706
10864WAT      O32833   3.185   4.628   6.004
10864WAT     H132834   3.217   4.722   6.002
10864WAT     H232835   3.261   4.566   6.022
10865WAT      O32836   1.418   2.363   8.682
10865WAT     H132837   1.503   2.376   8.733
10865WAT     H232838   1.404   2.441   8.620
10866WAT      O32839   0.778   6.370   0.865
10866WAT     H132840   0.831   6.318   0.799
10866WAT     H232841   0.695   6.405   0.821
10867WAT      O32842   3.141   6.298   4.866
10867WAT     H132843   3.238   6.320   4.852
10867WAT     H232844   3.085   6.354   4.806
10868WAT      O32845   0.399   0.595   0.328
10868WAT     H132846   0.331   0.613   0.399
10868WAT     H232847   0.489   0.585   0.370
10869WAT      O32848   2.379   7.201   5.163
10869WAT     H132849   2.477   7.188   5.149
10869WAT     H232850   2.356   7.298   5.149
10870WAT      O32851   9.159   3.313   7.632
10870WAT     H132852   9.241   3.349   7.588
10870WAT     H232853   9.090   3.385   7.637
10871WAT      O32854   9.657   3.257   3.891
10871WAT     H132855   9.669   3.237   3.989
10871WAT     H232856   9.576   3.314   3.879
10872WAT      O32857   5.021   2.180   2.189
10872WAT     H132858   5.067   2.172   2.101
10872WAT     H232859   5.059   2.114   2.253
10873WAT      O32860   6.521   6.427   3.416
10873WAT     H132861   6.511   6.525   3.398
10873WAT     H232862   6.557   6.414   3.508
10874WAT      O32863   3.954   5.226   8.828
10874WAT     H132864   3.949   5.277   8.914
10874WAT     H232865   4.023   5.154   8.835
10875WAT      O32866   2.969   1.333   0.492
10875WAT     H132867   2.986   1.317   0.589
10875WAT     H232868   2.873   1.358   0.479
10876WAT      O32869   7.988   1.356   0.750
10876WAT     H132870   8.067   1.402   0.710
10876WAT     H232871   7.951   1.290   0.685
10877WAT      O32872   3.856   3.619   5.184
10877WAT     H132873   3.784   3.585   5.124
10877WAT     H232874   3.878   3.549   5.252
10878WAT      O32875   7.346   9.639   4.152
10878WAT     H132876   7.252   9.673   4.151
10878WAT     H232877   7.398   9.685   4.224
10879WAT      O32878   4.963   1.738   4.657
10879WAT     H132879   5.017   1.656   4.639
10879WAT     H232880   4.908   1.724   4.739
10880WAT      O32881   6.844   1.807   3.346
10880WAT     H132882   6.809   1.871   3.277
10880WAT     H232883   6.831   1.713   3.314
10881WAT      O32884   7.442   9.562   3.924
10881WAT     H132885   7.408   9.606   4.007
10881WAT     H232886   7.379   9.580   3.848
10882WAT      O32887   8.880   7.983   7.914
10882WAT     H132888   8.833   8.028   7.990
10882WAT     H232889   8.959   8.038   7.887
10883WAT      O32890   9.215   8.198   8.920
10883WAT     H132891   9.304   8.154   8.908
10883WAT     H232892   9.193   8.202   9.018
10884WAT      O32893   9.714   9.198   4.906
10884WAT     H132894   9.699   9.296   4.923
10884WAT     H232895   9.689   9.177   4.811
10885WAT      O32896   4.886   1.330   8.013
10885WAT     H132897   4.885   1.287   7.922
10885WAT     H232898   4.920   1.265   8.080
10886WAT      O32899   3.836   8.330   5.790
10886WAT     H132900   3.753   8.361   5.743
10886WAT     H232901   3.854   8.389   5.869
10887WAT      O32902   5.126   2.918   8.914
10887WAT     H132903   5.123   2.904   8.815
10887WAT     H232904   5.220   2.937   8.942
10888WAT      O32905   7.481   2.020   5.472
10888WAT     H132906   7.384   2.039   5.487
10888WAT     H232907   7.511   2.061   5.386
10889WAT      O32908   5.705   3.264   0.276
10889WAT     H132909   5.624   3.236   0.225
10889WAT     H232910   5.740   3.187   0.328
10890WAT      O32911   1.630   7.103   0.208
10890WAT     H132912   1.587   7.191   0.185
10890WAT     H232913   1.652   7.055   0.123
10891WAT      O32914   5.633   1.684   0.359
10891WAT     H132915   5.604   1.744   0.284
10891WAT     H232916   5.643   1.591   0.324
10892WAT      O32917   1.621   8.203   6.376
10892WAT     H132918   1.678   8.127   6.344
10892WAT     H232919   1.629   8.280   6.313
10893WAT      O32920   9.646   2.234   0.980
10893WAT     H132921   9.609   2.313   1.027
10893WAT     H232922   9.734   2.209   1.019
10894WAT      O32923   4.111   5.622   8.774
10894WAT     H132924   4.044   5.584   8.837
10894WAT     H232925   4.148   5.707   8.810
10895WAT      O32926   5.291   4.349   6.776
10895WAT     H132927   5.311   4.416   6.705
10895WAT     H232928   5.213   4.293   6.748
10896WAT      O32929   8.377   5.192   6.712
10896WAT     H132930   8.408   5.256   6.783
10896WAT     H232931   8.310   5.237   6.653
10897WAT      O32932   7.484   1.789   2.188
10897WAT     H132933   7.565   1.792   2.246
10897WAT     H232934   7.512   1.776   2.093
10898WAT      O32935   3.420   7.524   1.852
10898WAT     H132936   3.513   7.555   1.874
10898WAT     H232937   3.385   7.470   1.928
10899WAT      O32938   6.644   2.992   4.888
10899WAT     H132939   6.568   2.945   4.934
10899WAT     H232940   6.615   3.021   4.797
10900WAT      O32941   5.166   3.001   3.617
10900WAT     H132942   5.107   2.999   3.698
10900WAT     H232943   5.117   3.042   3.540
10901WAT      O32944   7.706   7.456   4.730
10901WAT     H132945   7.685   7.549   4.761
10901WAT     H232946   7.803   7.448   4.711
10902WAT      O32947   6.375   9.586   9.212
10902WAT     H132948   6.366   9.590   9.312
10902WAT     H232949   6.396   9.492   9.184
10903WAT      O32950   7.422   8.961   9.385
10903WAT     H132951   7.518   8.943   9.364
10903WAT     H232952   7.378   8.877   9.418
10904WAT      O32953   5.962   1.056   0.160
10904WAT     H132954   5.909   0.978   0.126
10904WAT     H232955   6.054   1.054   0.119
10905WAT      O32956   2.895   4.730   9.359
10905WAT     H132957   2.983   4.735   9.312
10905WAT     H232958   2.821   4.727   9.291
10906WAT      O32959   9.283   1.685   8.616
10906WAT     H132960   9.332   1.613   8.666
10906WAT     H232961   9.188   1.658   8.603
10907WAT      O32962   3.578   5.905   5.094
10907WAT     H132963   3.561   5.913   5.193
10907WAT     H232964   3.493   5.921   5.045
10908WAT      O32965   8.318   1.076   0.557
10908WAT     H132966   8.248   1.074   0.628
10908WAT     H232967   8.394   1.134   0.585
10909WAT      O32968   7.398   4.795   1.689
10909WAT     H132969   7.339   4.728   1.732
10909WAT     H232970   7.451   4.844   1.759
10910WAT      O32971   0.411   0.127   3.707
10910WAT     H132972   0.421   0.192   3.631
10910WAT     H232973   0.498   0.081   3.723
10911WAT      O32974   6.791   6.493   0.336
10911WAT     H132975   6.733   6.569   0.365
10911WAT     H232976   6.854   6.469   0.410
10912WAT      O32977   1.007   5.931   4.542
10912WAT     H132978   1.094   5.881   4.537
10912WAT     H232979   0.997   5.989   4.461
10913WAT      O32980   7.870   1.569   6.145
10913WAT     H132981   7.829   1.659   6.158
10913WAT     H232982   7.962   1.579   6.108
10914WAT      O32983   3.318   4.445   7.968
10914WAT     H132984   3.372   4.361   7.964
10914WAT     H232985   3.377   4.524   7.950
10915WAT      O32986   3.858   0.865   4.590
10915WAT     H132987   3.929   0.904   4.531
10915WAT     H232988   3.861   0.765   4.584
10916WAT      O32989   6.958   5.141   4.135
10916WAT     H132990   6.876   5.133   4.192
10916WAT     H232991   7.036   5.165   4.193
10917WAT      O32992   7.665   3.042   2.307
10917WAT     H132993   7.591   3.109   2.296
10917WAT     H232994   7.634   2.968   2.367
10918WAT      O32995   0.302   6.376   7.849
10918WAT     H132996   0.308   6.377   7.749
10918WAT     H232997   0.295   6.469   7.883
10919WAT      O32998   8.870   9.829   5.809
10919WAT     H132999   8.913   9.911   5.772
10919WAT     H233000   8.827   9.778   5.735
10920WAT      O33001   1.976   0.373   1.569
10920WAT     H133002   2.066   0.415   1.565
10920WAT     H233003   1.980   0.288   1.622
10921WAT      O33004   7.193   8.447   8.853
10921WAT     H133005   7.278   8.394   8.853
10921WAT     H233006   7.215   8.545   8.857
10922WAT      O33007   5.021   2.057   7.661
10922WAT     H133008   4.951   2.117   7.700
10922WAT     H233009   4.984   1.965   7.650
10923WAT      O33010   8.241   2.487   8.363
10923WAT     H133011   8.278   2.488   8.271
10923WAT     H233012   8.181   2.566   8.377
10924WAT      O33013   3.674   2.659   3.124
10924WAT     H133014   3.578   2.680   3.106
10924WAT     H233015   3.709   2.599   3.052
10925WAT      O33016   6.881   8.847   1.032
10925WAT     H133017   6.917   8.795   0.955
10925WAT     H233018   6.950   8.853   1.104
10926WAT      O33019   1.859   1.398   7.349
10926WAT     H133020   1.794   1.355   7.412
10926WAT     H233021   1.825   1.487   7.321
10927WAT      O33022   4.671   8.795   8.530
10927WAT     H133023   4.614   8.794   8.449
10927WAT     H233024   4.622   8.752   8.606
10928WAT      O33025   3.315   4.985   3.256
10928WAT     H133026   3.304   4.903   3.200
10928WAT     H233027   3.405   5.026   3.237
10929WAT      O33028   2.744   8.494   1.610
10929WAT     H133029   2.713   8.554   1.684
10929WAT     H233030   2.705   8.526   1.523
10930WAT      O33031   1.602   4.861   4.351
10930WAT     H133032   1.628   4.943   4.298
10930WAT     H233033   1.508   4.872   4.384
10931WAT      O33034   8.935   1.436   9.590
10931WAT     H133035   8.929   1.354   9.647
10931WAT     H233036   8.848   1.484   9.591
10932WAT      O33037   2.139   9.352   6.855
10932WAT     H133038   2.199   9.296   6.800
10932WAT     H233039   2.053   9.369   6.806
10933WAT      O33040   9.778   0.778   5.461
10933WAT     H133041   9.761   0.709   5.531
10933WAT     H233042   9.868   0.820   5.476
10934WAT      O33043   7.796   4.048   5.636
10934WAT     H133044   7.717   4.097   5.601
10934WAT     H233045   7.776   3.950   5.640
10935WAT      O33046   9.794   6.496   9.225
10935WAT     H133047   9.702   6.535   9.234
10935WAT     H233048   9.822   6.455   9.312
10936WAT      O33049   4.519   3.659   4.847
10936WAT     H133050   4.548   3.711   4.927
10936WAT     H233051   4.564   3.695   4.765
10937WAT      O33052   5.514   7.501   8.690
10937WAT     H133053   5.554   7.592   8.673
10937WAT     H233054   5.557   7.460   8.770
10938WAT      O33055   5.789   1.597   1.841
10938WAT     H133056   5.874   1.549   1.819
10938WAT     H233057   5.802   1.695   1.827
10939WAT      O33058   5.436   7.800   9.215
10939WAT     H133059   5.352   7.833   9.173
10939WAT     H233060   5.415   7.762   9.305
10940WAT      O33061   5.367   8.407   3.987
10940WAT     H133062   5.275   8.430   3.957
10940WAT     H233063   5.365   8.320   4.036
10941WAT      O33064   3.908   3.830   7.495
10941WAT     H133065   3.911   3.857   7.399
10941WAT     H233066   3.825   3.777   7.512
10942WAT      O33067   6.839   7.138   9.425
10942WAT     H133068   6.932   7.171   9.439
10942WAT     H233069   6.801   7.107   9.512
10943WAT      O33070   2.759   7.384   1.183
10943WAT     H133071   2.819   7.312   1.218
10943WAT     H233072   2.664   7.357   1.198
10944WAT      O33073   3.118   6.614   3.527
10944WAT     H133074   3.050   6.563   3.579
10944WAT     H233075   3.209   6.574   3.542
10945WAT      O33076   2.151   7.156   2.571
10945WAT     H133077   2.175   7.059   2.561
10945WAT     H233078   2.231   7.208   2.598
10946WAT      O33079   1.509   7.705   2.481
10946WAT     H133080   1.531   7.800   2.460
10946WAT     H233081   1.409   7.693   2.481
10947WAT      O33082   3.963   3.509   0.449
10947WAT     H133083   4.050   3.554   0.433
10947WAT     H233084   3.890   3.578   0.452
10948WAT      O33085   2.794   7.400   1.490
10948WAT     H133086   2.831   7.403   1.583
10948WAT     H233087   2.834   7.323   1.441
10949WAT      O33088   5.689   1.163   6.248
10949WAT     H133089   5.694   1.070   6.212
10949WAT     H233090   5.629   1.165   6.328
10950WAT      O33091   8.099   7.412   3.239
10950WAT     H133092   8.092   7.373   3.331
10950WAT     H233093   8.180   7.376   3.193
10951WAT      O33094   3.322   9.024   0.379
10951WAT     H133095   3.342   9.001   0.475
10951WAT     H233096   3.362   9.113   0.357
10952WAT      O33097   2.549   9.787   2.286
10952WAT     H133098   2.542   9.773   2.384
10952WAT     H233099   2.538   9.700   2.238
10953WAT      O33100   8.276   4.586   8.710
10953WAT     H133101   8.317   4.551   8.794
10953WAT     H233102   8.180   4.606   8.725
10954WAT      O33103   0.982   8.398   2.624
10954WAT     H133104   1.076   8.398   2.590
10954WAT     H233105   0.937   8.313   2.598
10955WAT      O33106   6.415   5.720   1.448
10955WAT     H133107   6.480   5.681   1.512
10955WAT     H233108   6.443   5.813   1.424
10956WAT      O33109   6.291   2.011   7.279
10956WAT     H133110   6.284   2.065   7.363
10956WAT     H233111   6.240   2.056   7.206
10957WAT      O33112   9.352   2.172   8.507
10957WAT     H133113   9.368   2.240   8.435
10957WAT     H233114   9.323   2.086   8.465
10958WAT      O33115   4.856   1.625   2.845
10958WAT     H133116   4.933   1.563   2.828
10958WAT     H233117   4.880   1.688   2.918
10959WAT      O33118   4.272   4.532   3.139
10959WAT     H133119   4.300   4.609   3.197
10959WAT     H233120   4.177   4.508   3.160
10960WAT      O33121   3.025   6.654   0.007
10960WAT     H133122   3.085   6.715   0.059
10960WAT     H233123   3.058   6.560   0.015
10961WAT      O33124   6.331   5.200   2.048
10961WAT     H133125   6.248   5.257   2.056
10961WAT     H233126   6.392   5.220   2.125
10962WAT      O33127   1.491   8.876   9.533
10962WAT     H133128   1.405   8.888   9.584
10962WAT     H233129   1.507   8.779   9.517
10963WAT      O33130   6.662   4.462   8.620
10963WAT     H133131   6.752   4.448   8.661
10963WAT     H233132   6.663   4.430   8.525
10964WAT      O33133   1.160   6.156   2.324
10964WAT     H133134   1.193   6.066   2.293
10964WAT     H233135   1.179   6.224   2.254
10965WAT      O33136   9.811   1.359   2.672
10965WAT     H133137   9.749   1.410   2.613
10965WAT     H233138   9.847   1.280   2.623
10966WAT      O33139   1.516   0.780   4.876
10966WAT     H133140   1.437   0.723   4.853
10966WAT     H233141   1.595   0.750   4.822
10967WAT      O33142   0.393   7.074   1.774
10967WAT     H133143   0.444   7.137   1.833
10967WAT     H233144   0.371   6.992   1.826
10968WAT      O33145   2.877   0.727   8.961
10968WAT     H133146   2.864   0.808   8.904
10968WAT     H233147   2.796   0.714   9.018
10969WAT      O33148   4.288   5.841   8.444
10969WAT     H133149   4.341   5.907   8.497
10969WAT     H233150   4.291   5.752   8.491
10970WAT      O33151   6.959   7.124   4.123
10970WAT     H133152   6.963   7.027   4.099
10970WAT     H233153   7.044   7.151   4.168
10971WAT      O33154   1.506   9.715   7.119
10971WAT     H133155   1.553   9.751   7.039
10971WAT     H233156   1.546   9.627   7.144
10972WAT      O33157   3.616   6.427   7.072
10972WAT     H133158   3.562   6.359   7.121
10972WAT     H233159   3.567   6.514   7.069
10973WAT      O33160   0.303   4.114   9.008
10973WAT     H133161   0.314   4.183   9.079
10973WAT     H233162   0.339   4.150   8.921
10974WAT      O33163   2.814   0.891   3.357
10974WAT     H133164   2.845   0.984   3.373
10974WAT     H233165   2.723   0.878   3.398
10975WAT      O33166   1.191   0.753   1.568
10975WAT     H133167   1.094   0.770   1.587
10975WAT     H233168   1.247   0.795   1.639
10976WAT      O33169   7.209   0.495   0.392
10976WAT     H133170   7.231   0.509   0.296
10976WAT     H233171   7.120   0.536   0.412
10977WAT      O33172   1.819   6.884   3.484
10977WAT     H133173   1.758   6.929   3.549
10977WAT     H233174   1.780   6.795   3.458
10978WAT      O33175   1.312   6.341   9.714
10978WAT     H133176   1.330   6.352   9.812
10978WAT     H233177   1.398   6.329   9.665
10979WAT      O33178   0.716   6.692   1.558
10979WAT     H133179   0.779   6.643   1.617
10979WAT     H233180   0.742   6.679   1.462
10980WAT      O33181   7.166   4.614   9.174
10980WAT     H133182   7.239   4.578   9.232
10980WAT     H233183   7.206   4.660   9.095
10981WAT      O33184   9.011   6.487   7.130
10981WAT     H133185   9.032   6.389   7.125
10981WAT     H233186   9.072   6.531   7.196
10982WAT      O33187   3.825   7.595   0.350
10982WAT     H133188   3.782   7.623   0.264
10982WAT     H233189   3.801   7.660   0.422
10983WAT      O33190   3.936   3.908   7.232
10983WAT     H133191   3.923   4.006   7.243
10983WAT     H233192   3.868   3.872   7.167
10984WAT      O33193   3.474   4.583   5.620
10984WAT     H133194   3.416   4.613   5.544
10984WAT     H233195   3.570   4.586   5.591
10985WAT      O33196   0.236   2.444   1.745
10985WAT     H133197   0.146   2.436   1.786
10985WAT     H233198   0.249   2.536   1.708
10986WAT      O33199   3.942   8.639   1.108
10986WAT     H133200   3.862   8.653   1.166
10986WAT     H233201   3.932   8.554   1.057
10987WAT      O33202   5.840   4.730   6.870
10987WAT     H133203   5.841   4.723   6.970
10987WAT     H233204   5.892   4.655   6.830
10988WAT      O33205   8.080   1.735   9.294
10988WAT     H133206   8.087   1.683   9.380
10988WAT     H233207   7.995   1.788   9.295
10989WAT      O33208   3.746   4.445   7.538
10989WAT     H133209   3.742   4.345   7.534
10989WAT     H233210   3.737   4.482   7.446
10990WAT      O33211   4.924   7.896   6.453
10990WAT     H133212   4.909   7.975   6.393
10990WAT     H233213   4.882   7.815   6.412
10991WAT      O33214   3.342   4.043   9.360
10991WAT     H133215   3.361   3.947   9.340
10991WAT     H233216   3.318   4.052   9.457
10992WAT      O33217   6.605   5.325   3.558
10992WAT     H133218   6.607   5.409   3.612
10992WAT     H233219   6.697   5.288   3.551
10993WAT      O33220   5.470   3.853   7.570
10993WAT     H133221   5.479   3.754   7.560
10993WAT     H233222   5.384   3.883   7.529
10994WAT      O33223   5.490   8.649   3.045
10994WAT     H133224   5.436   8.709   2.985
10994WAT     H233225   5.554   8.597   2.989
10995WAT      O33226   9.572   3.522   6.286
10995WAT     H133227   9.588   3.599   6.225
10995WAT     H233228   9.638   3.450   6.268
10996WAT      O33229   5.280   4.155   1.984
10996WAT     H133230   5.202   4.206   1.949
10996WAT     H233231   5.275   4.060   1.956
10997WAT      O33232   4.497   9.794   5.901
10997WAT     H133233   4.451   9.730   5.839
10997WAT     H233234   4.439   9.808   5.982
10998WAT      O33235   8.974   6.815   4.319
10998WAT     H133236   9.061   6.770   4.337
10998WAT     H233237   8.935   6.778   4.234
10999WAT      O33238   9.789   8.312   3.362
10999WAT     H133239   9.808   8.382   3.432
10999WAT     H233240   9.830   8.340   3.276
11000WAT      O33241   2.491   7.224   3.128
11000WAT     H133242   2.576   7.174   3.143
11000WAT     H233243   2.420   7.190   3.191
11001WAT      O33244   7.415   0.761   7.535
11001WAT     H133245   7.321   0.767   7.503
11001WAT     H233246   7.473   0.821   7.480
11002WAT      O33247   3.074   5.742   8.646
11002WAT     H133248   3.075   5.646   8.620
11002WAT     H233249   3.079   5.799   8.564
11003WAT      O33250   8.847   4.828   4.500
11003WAT     H133251   8.779   4.865   4.563
11003WAT     H233252   8.891   4.904   4.451
11004WAT      O33253   5.535   2.188   2.725
11004WAT     H133254   5.450   2.151   2.687
11004WAT     H233255   5.531   2.185   2.825
11005WAT      O33256   5.685   6.080   1.563
11005WAT     H133257   5.648   6.109   1.475
11005WAT     H233258   5.784   6.093   1.563
11006WAT      O33259   4.200   2.423   8.501
11006WAT     H133260   4.218   2.516   8.531
11006WAT     H233261   4.286   2.374   8.490
11007WAT      O33262   2.144   1.834   9.882
11007WAT     H133263   2.206   1.768   9.841
11007WAT     H233264   2.050   1.805   9.867
11008WAT      O33265   3.558   5.627   9.838
11008WAT     H133266   3.469   5.609   9.879
11008WAT     H233267   3.603   5.541   9.815
11009WAT      O33268   2.062   4.538   6.315
11009WAT     H133269   2.019   4.590   6.389
11009WAT     H233270   2.160   4.530   6.332
11010WAT      O33271   8.984   7.805   0.338
11010WAT     H133272   9.059   7.767   0.283
11010WAT     H233273   8.964   7.743   0.414
11011WAT      O33274   8.085   6.830   9.330
11011WAT     H133275   8.157   6.837   9.261
11011WAT     H233276   8.123   6.851   9.420
11012WAT      O33277   0.564   3.337   6.164
11012WAT     H133278   0.610   3.412   6.211
11012WAT     H233279   0.471   3.328   6.199
11013WAT      O33280   7.650   7.765   7.288
11013WAT     H133281   7.683   7.746   7.381
11013WAT     H233282   7.552   7.784   7.291
11014WAT      O33283   8.694   7.900   2.982
11014WAT     H133284   8.655   7.858   2.900
11014WAT     H233285   8.757   7.973   2.954
11015WAT      O33286   7.889   5.772   4.898
11015WAT     H133287   7.931   5.688   4.864
11015WAT     H233288   7.855   5.757   4.991
11016WAT      O33289   1.980   2.546   3.138
11016WAT     H133290   1.925   2.535   3.056
11016WAT     H233291   1.985   2.643   3.162
11017WAT      O33292   6.557   8.176   6.608
11017WAT     H133293   6.617   8.152   6.531
11017WAT     H233294   6.490   8.243   6.578
11018WAT      O33295   6.675   1.780   8.255
11018WAT     H133296   6.590   1.736   8.228
11018WAT     H233297   6.659   1.839   8.334
11019WAT      O33298   8.355   8.380   1.166
11019WAT     H133299   8.419   8.338   1.101
11019WAT     H233300   8.368   8.339   1.257
11020WAT      O33301   1.066   1.849   7.561
11020WAT     H133302   0.997   1.889   7.622
11020WAT     H233303   1.106   1.769   7.604
11021WAT      O33304   6.025   2.690   0.822
11021WAT     H133305   5.970   2.750   0.880
11021WAT     H233306   5.965   2.623   0.778
11022WAT      O33307   2.585   2.214   1.101
11022WAT     H133308   2.683   2.233   1.094
11022WAT     H233309   2.571   2.123   1.141
11023WAT      O33310   9.561   7.517   2.814
11023WAT     H133311   9.524   7.477   2.730
11023WAT     H233312   9.535   7.613   2.820
11024WAT      O33313   9.147   2.779   9.496
11024WAT     H133314   9.097   2.731   9.424
11024WAT     H233315   9.121   2.875   9.497
11025WAT      O33316   7.371   1.955   1.614
11025WAT     H133317   7.358   1.917   1.706
11025WAT     H233318   7.453   1.915   1.572
11026WAT      O33319   9.574   7.096   4.085
11026WAT     H133320   9.478   7.113   4.063
11026WAT     H233321   9.629   7.107   4.003
11027WAT      O33322   2.977   1.651   3.917
11027WAT     H133323   2.915   1.614   3.986
11027WAT     H233324   2.945   1.624   3.826
11028WAT      O33325   8.172   4.860   3.220
11028WAT     H133326   8.144   4.872   3.125
11028WAT     H233327   8.272   4.866   3.226
11029WAT      O33328   4.125   3.358   6.988
11029WAT     H133329   4.095   3.449   7.018
11029WAT     H233330   4.204   3.330   7.042
11030WAT      O33331   8.572   8.742   7.662
11030WAT     H133332   8.659   8.773   7.626
11030WAT     H233333   8.545   8.800   7.739
11031WAT      O33334   9.072   6.913   8.595
11031WAT     H133335   8.974   6.894   8.607
11031WAT     H233336   9.109   6.856   8.522
11032WAT      O33337   5.194   8.863   5.261
11032WAT     H133338   5.184   8.770   5.227
11032WAT     H233339   5.107   8.895   5.297
11033WAT      O33340   9.082   3.869   2.159
11033WAT     H133341   9.029   3.951   2.178
11033WAT     H233342   9.044   3.792   2.210
11034WAT      O33343   8.918   2.171   0.148
11034WAT     H133344   8.961   2.220   0.073
11034WAT     H233345   8.948   2.075   0.147
11035WAT      O33346   0.113   7.181   4.504
11035WAT     H133347   0.093   7.194   4.407
11035WAT     H233348   0.207   7.211   4.522
11036WAT      O33349   4.188   7.133   9.293
11036WAT     H133350   4.116   7.187   9.337
11036WAT     H233351   4.245   7.090   9.363
11037WAT      O33352   5.446   7.894   7.143
11037WAT     H133353   5.505   7.955   7.089
11037WAT     H233354   5.402   7.945   7.216
11038WAT      O33355   3.879   3.479   6.586
11038WAT     H133356   3.932   3.423   6.650
11038WAT     H233357   3.941   3.525   6.523
11039WAT      O33358   8.221   2.960   2.509
11039WAT     H133359   8.139   2.928   2.558
11039WAT     H233360   8.302   2.915   2.547
11040WAT      O33361   6.596   5.703   9.622
11040WAT     H133362   6.607   5.604   9.608
11040WAT     H233363   6.519   5.719   9.684
11041WAT      O33364   0.894   3.602   5.815
11041WAT     H133365   0.924   3.591   5.720
11041WAT     H233366   0.967   3.643   5.869
11042WAT      O33367   9.076   0.030   2.465
11042WAT     H133368   9.074   0.129   2.484
11042WAT     H233369   9.131  -0.016   2.535
11043WAT      O33370   2.769   4.675   1.884
11043WAT     H133371   2.801   4.611   1.814
11043WAT     H233372   2.801   4.645   1.973
11044WAT      O33373   3.163   7.394   1.052
11044WAT     H133374   3.212   7.320   1.097
11044WAT     H233375   3.126   7.457   1.120
11045WAT      O33376   6.609   5.925   0.297
11045WAT     H133377   6.598   5.955   0.202
11045WAT     H233378   6.655   5.996   0.350
11046WAT      O33379   7.072   6.439   8.875
11046WAT     H133380   7.049   6.535   8.891
11046WAT     H233381   7.063   6.388   8.960
11047WAT      O33382   4.149   6.103   7.050
11047WAT     H133383   4.229   6.043   7.051
11047WAT     H233384   4.129   6.130   6.956
11048WAT      O33385   9.716   3.682   0.825
11048WAT     H133386   9.672   3.684   0.735
11048WAT     H233387   9.675   3.752   0.883
11049WAT      O33388   5.786   6.954   0.482
11049WAT     H133389   5.719   6.940   0.555
11049WAT     H233390   5.770   7.043   0.440
11050WAT      O33391   4.753   6.872   9.471
11050WAT     H133392   4.747   6.956   9.417
11050WAT     H233393   4.717   6.888   9.562
11051WAT      O33394   7.256   7.323   2.997
11051WAT     H133395   7.262   7.246   2.934
11051WAT     H233396   7.347   7.346   3.032
11052WAT      O33397   1.731   3.505   7.909
11052WAT     H133398   1.810   3.528   7.964
11052WAT     H233399   1.681   3.588   7.884
11053WAT      O33400   1.989   0.750   9.281
11053WAT     H133401   1.961   0.766   9.186
11053WAT     H233402   2.087   0.733   9.285
11054WAT      O33403   9.284   6.822   0.808
11054WAT     H133404   9.238   6.795   0.724
11054WAT     H233405   9.382   6.826   0.793
11055WAT      O33406   1.567   7.063   3.283
11055WAT     H133407   1.615   7.000   3.222
11055WAT     H233408   1.633   7.114   3.338
11056WAT      O33409   8.224   0.358   3.834
11056WAT     H133410   8.261   0.436   3.784
11056WAT     H233411   8.298   0.310   3.880
11057WAT      O33412   0.649   3.689   1.102
11057WAT     H133413   0.655   3.601   1.149
11057WAT     H233414   0.602   3.755   1.160
11058WAT      O33415   4.829   6.672   8.496
11058WAT     H133416   4.892   6.686   8.419
11058WAT     H233417   4.759   6.743   8.495
11059WAT      O33418   1.116   1.736   8.734
11059WAT     H133419   1.179   1.683   8.790
11059WAT     H233420   1.160   1.758   8.647
11060WAT      O33421   5.213   1.422   8.330
11060WAT     H133422   5.194   1.471   8.245
11060WAT     H233423   5.284   1.471   8.382
11061WAT      O33424   6.999   7.168   2.800
11061WAT     H133425   6.942   7.250   2.802
11061WAT     H233426   7.028   7.150   2.706
11062WAT      O33427   5.762   2.896   3.264
11062WAT     H133428   5.776   2.961   3.339
11062WAT     H233429   5.672   2.853   3.273
11063WAT      O33430   9.119   4.555   9.807
11063WAT     H133431   9.031   4.575   9.766
11063WAT     H233432   9.193   4.589   9.748
11064WAT      O33433   9.445   1.091   2.834
11064WAT     H133434   9.452   1.188   2.854
11064WAT     H233435   9.360   1.073   2.784
11065WAT      O33436   8.941   1.704   3.892
11065WAT     H133437   8.915   1.742   3.803
11065WAT     H233438   8.903   1.612   3.902
11066WAT      O33439   7.538   0.121   8.524
11066WAT     H133440   7.504   0.055   8.591
11066WAT     H233441   7.486   0.206   8.531
11067WAT      O33442   5.095   4.335   0.816
11067WAT     H133443   5.119   4.431   0.801
11067WAT     H233444   5.179   4.282   0.831
11068WAT      O33445   9.059   8.634   6.992
11068WAT     H133446   9.104   8.550   6.961
11068WAT     H233447   8.975   8.611   7.040
11069WAT      O33448   2.185   2.846   2.661
11069WAT     H133449   2.215   2.759   2.622
11069WAT     H233450   2.216   2.921   2.604
11070WAT      O33451   3.426   7.553   0.108
11070WAT     H133452   3.418   7.486   0.034
11070WAT     H233453   3.345   7.613   0.107
11071WAT      O33454   3.740   6.105   9.257
11071WAT     H133455   3.808   6.037   9.230
11071WAT     H233456   3.757   6.190   9.208
11072WAT      O33457   6.496   6.640   8.774
11072WAT     H133458   6.495   6.605   8.681
11072WAT     H233459   6.416   6.697   8.790
11073WAT      O33460   8.168   2.134   8.937
11073WAT     H133461   8.167   2.177   8.847
11073WAT     H233462   8.258   2.092   8.953
11074WAT      O33463   0.470   5.558   9.237
11074WAT     H133464   0.554   5.557   9.291
11074WAT     H233465   0.458   5.469   9.191
11075WAT      O33466   0.499   0.708   0.661
11075WAT     H133467   0.581   0.671   0.617
11075WAT     H233468   0.418   0.673   0.614
11076WAT      O33469   9.420   2.564   4.225
11076WAT     H133470   9.489   2.635   4.230
11076WAT     H233471   9.342   2.588   4.283
11077WAT      O33472   0.237   8.796   8.453
11077WAT     H133473   0.202   8.889   8.436
11077WAT     H233474   0.278   8.792   8.544
11078WAT      O33475   1.535   5.750   5.730
11078WAT     H133476   1.487   5.769   5.644
11078WAT     H233477   1.563   5.837   5.772
11079WAT      O33478   2.548   7.308   7.572
11079WAT     H133479   2.478   7.237   7.567
11079WAT     H233480   2.555   7.341   7.667
11080WAT      O33481   4.520   8.628   4.375
11080WAT     H133482   4.470   8.579   4.304
11080WAT     H233483   4.548   8.563   4.446
11081WAT      O33484   8.096   8.784   1.122
11081WAT     H133485   8.165   8.717   1.095
11081WAT     H233486   8.044   8.812   1.042
11082WAT      O33487   1.913   5.897   2.368
11082WAT     H133488   1.966   5.855   2.442
11082WAT     H233489   1.841   5.953   2.406
11083WAT      O33490   8.758   6.541   7.460
11083WAT     H133491   8.772   6.566   7.364
11083WAT     H233492   8.676   6.586   7.494
11084WAT      O33493   3.375   0.684   6.902
11084WAT     H133494   3.418   0.743   6.971
11084WAT     H233495   3.276   0.687   6.912
11085WAT      O33496   0.825   9.791   0.738
11085WAT     H133497   0.855   9.806   0.644
11085WAT     H233498   0.878   9.716   0.779
11086WAT      O33499   3.395   4.408   1.908
11086WAT     H133500   3.387   4.328   1.968
11086WAT     H233501   3.480   4.402   1.856
11087WAT      O33502   6.026   6.371   4.004
11087WAT     H133503   5.981   6.350   3.918
11087WAT     H233504   6.030   6.289   4.061
11088WAT      O33505   1.389   4.994   1.972
11088WAT     H133506   1.414   4.933   2.047
11088WAT     H233507   1.429   4.961   1.886
11089WAT      O33508   0.124   4.043   7.393
11089WAT     H133509   0.069   4.026   7.311
11089WAT     H233510   0.174   3.960   7.418
11090WAT      O33511   2.708   6.864   7.368
11090WAT     H133512   2.743   6.776   7.400
11090WAT     H233513   2.626   6.850   7.312
11091WAT      O33514   2.570   9.372   4.602
11091WAT     H133515   2.598   9.405   4.692
11091WAT     H233516   2.470   9.363   4.599
11092WAT      O33517   8.155   7.080   0.342
11092WAT     H133518   8.234   7.139   0.357
11092WAT     H233519   8.137   7.026   0.424
11093WAT      O33520   1.052   5.755   5.847
11093WAT     H133521   1.136   5.703   5.834
11093WAT     H233522   1.031   5.806   5.764
11094WAT      O33523   1.833   5.773   8.651
11094WAT     H133524   1.769   5.762   8.727
11094WAT     H233525   1.891   5.853   8.668
11095WAT      O33526   5.316   6.344   1.333
11095WAT     H133527   5.354   6.395   1.410
11095WAT     H233528   5.306   6.248   1.358
11096WAT      O33529   5.663   9.519   3.949
11096WAT     H133530   5.747   9.473   3.980
11096WAT     H233531   5.652   9.605   3.998
11097WAT      O33532   5.813   0.839   0.771
11097WAT     H133533   5.857   0.751   0.789
11097WAT     H233534   5.785   0.843   0.676
11098WAT      O33535   1.507   1.463   8.043
11098WAT     H133536   1.422   1.510   8.067
11098WAT     H233537   1.573   1.530   8.010
11099WAT      O33538   7.948   4.276   2.697
11099WAT     H133539   7.988   4.248   2.610
11099WAT     H233540   7.941   4.375   2.701
11100WAT      O33541   2.449   6.139   7.148
11100WAT     H133542   2.370   6.188   7.187
11100WAT     H233543   2.515   6.120   7.221
11101WAT      O33544   2.604   5.627   4.388
11101WAT     H133545   2.511   5.594   4.400
11101WAT     H233546   2.615   5.662   4.295
11102WAT      O33547   9.066   0.992   9.155
11102WAT     H133548   9.089   1.000   9.252
11102WAT     H233549   9.107   1.067   9.105
11103WAT      O33550   3.728   2.469   6.264
11103WAT     H133551   3.676   2.482   6.348
11103WAT     H233552   3.736   2.371   6.244
11104WAT      O33553   3.789   1.242   8.691
11104WAT     H133554   3.886   1.265   8.688
11104WAT     H233555   3.764   1.194   8.607
11105WAT      O33556   6.410   1.272   5.955
11105WAT     H133557   6.408   1.175   5.933
11105WAT     H233558   6.325   1.315   5.925
11106WAT      O33559   8.340   2.373   6.926
11106WAT     H133560   8.339   2.472   6.945
11106WAT     H233561   8.353   2.324   7.012
11107WAT      O33562   6.957   8.182   9.429
11107WAT     H133563   7.042   8.169   9.479
11107WAT     H233564   6.880   8.180   9.493
11108WAT      O33565   5.867   5.580   7.605
11108WAT     H133566   5.861   5.495   7.657
11108WAT     H233567   5.776   5.609   7.576
11109WAT      O33568   6.144   0.877   7.231
11109WAT     H133569   6.057   0.827   7.228
11109WAT     H233570   6.216   0.820   7.193
11110WAT      O33571   7.937   4.204   3.816
11110WAT     H133572   8.018   4.234   3.867
11110WAT     H233573   7.856   4.214   3.873
11111WAT      O33574   7.931   8.064   3.781
11111WAT     H133575   7.992   8.067   3.861
11111WAT     H233576   7.874   8.146   3.779
11112WAT      O33577   9.462   1.034   0.623
11112WAT     H133578   9.443   1.114   0.679
11112WAT     H233579   9.529   0.975   0.669
11113WAT      O33580   3.468   2.703   3.867
11113WAT     H133581   3.509   2.613   3.859
11113WAT     H233582   3.375   2.701   3.831
11114WAT      O33583   7.319   0.055   0.251
11114WAT     H133584   7.257   0.132   0.270
11114WAT     H233585   7.313  -0.011   0.325
11115WAT      O33586   1.889   2.687   5.258
11115WAT     H133587   1.916   2.767   5.204
11115WAT     H233588   1.959   2.616   5.250
11116WAT      O33589   1.315   6.700   1.351
11116WAT     H133590   1.249   6.759   1.303
11116WAT     H233591   1.293   6.604   1.334
11117WAT      O33592   0.887   7.823   4.101
11117WAT     H133593   0.824   7.817   4.178
11117WAT     H233594   0.929   7.734   4.085
11118WAT      O33595   4.747   6.522   9.206
11118WAT     H133596   4.840   6.543   9.175
11118WAT     H233597   4.751   6.456   9.281
11119WAT      O33598   5.336   7.728   6.304
11119WAT     H133599   5.378   7.789   6.371
11119WAT     H233600   5.406   7.688   6.246
11120WAT      O33601   7.489   6.470   9.145
11120WAT     H133602   7.577   6.424   9.161
11120WAT     H233603   7.428   6.408   9.095
11121WAT      O33604   9.729   6.131   0.266
11121WAT     H133605   9.656   6.146   0.333
11121WAT     H233606   9.748   6.033   0.260
11122WAT      O33607   8.752   9.130   0.622
11122WAT     H133608   8.767   9.031   0.621
11122WAT     H233609   8.654   9.148   0.632
11123WAT      O33610   8.590   2.441   6.496
11123WAT     H133611   8.521   2.440   6.569
11123WAT     H233612   8.613   2.535   6.472
11124WAT      O33613   4.767   8.523   8.699
11124WAT     H133614   4.864   8.505   8.683
11124WAT     H233615   4.728   8.449   8.754
11125WAT      O33616   7.455   2.088   7.959
11125WAT     H133617   7.391   2.153   7.918
11125WAT     H233618   7.491   2.027   7.887
11126WAT      O33619   6.083   4.414   7.543
11126WAT     H133620   6.161   4.375   7.494
11126WAT     H233621   5.999   4.375   7.507
11127WAT      O33622   2.354   6.758   1.291
11127WAT     H133623   2.362   6.709   1.378
11127WAT     H233624   2.281   6.826   1.298
11128WAT      O33625   7.739   6.675   0.399
11128WAT     H133626   7.658   6.649   0.346
11128WAT     H233627   7.820   6.631   0.360
11129WAT      O33628   4.931   9.335   2.536
11129WAT     H133629   4.906   9.421   2.580
11129WAT     H233630   4.897   9.259   2.591
11130WAT      O33631   1.081   5.775   0.707
11130WAT     H133632   1.009   5.706   0.701
11130WAT     H233633   1.089   5.822   0.619
11131WAT      O33634   5.782   2.284   1.351
11131WAT     H133635   5.836   2.217   1.299
11131WAT     H233636   5.685   2.260   1.346
11132WAT      O33637   6.656   8.685   7.140
11132WAT     H133638   6.627   8.709   7.047
11132WAT     H233639   6.599   8.609   7.174
11133WAT      O33640   4.438   1.542   4.843
11133WAT     H133641   4.407   1.580   4.755
11133WAT     H233642   4.359   1.511   4.896
11134WAT      O33643   3.507   2.191   3.123
11134WAT     H133644   3.462   2.275   3.090
11134WAT     H233645   3.566   2.213   3.200
11135WAT      O33646   5.318   8.783   3.671
11135WAT     H133647   5.262   8.702   3.689
11135WAT     H233648   5.348   8.782   3.575
11136WAT      O33649   9.372   2.104   6.387
11136WAT     H133650   9.332   2.140   6.472
11136WAT     H233651   9.396   2.180   6.327
11137WAT      O33652   4.287   9.235   0.396
11137WAT     H133653   4.327   9.215   0.306
11137WAT     H233654   4.192   9.264   0.384
11138WAT      O33655   2.881   7.880   6.346
11138WAT     H133656   2.874   7.898   6.444
11138WAT     H233657   2.899   7.966   6.298
11139WAT      O33658   2.885   3.851   9.881
11139WAT     H133659   2.904   3.762   9.841
11139WAT     H233660   2.842   3.910   9.812
11140WAT      O33661   9.339   3.199   6.154
11140WAT     H133662   9.250   3.155   6.139
11140WAT     H233663   9.324   3.291   6.190
11141WAT      O33664   3.245   0.937   8.914
11141WAT     H133665   3.234   0.949   9.012
11141WAT     H233666   3.262   0.841   8.893
11142WAT      O33667   2.054   7.877   8.108
11142WAT     H133668   1.981   7.839   8.165
11142WAT     H233669   2.046   7.841   8.015
11143WAT      O33670   4.188   6.377   1.793
11143WAT     H133671   4.244   6.426   1.861
11143WAT     H233672   4.136   6.443   1.739
11144WAT      O33673   7.917   4.004   1.949
11144WAT     H133674   7.987   4.068   1.917
11144WAT     H233675   7.956   3.913   1.957
11145WAT      O33676   2.530   9.546   5.256
11145WAT     H133677   2.610   9.570   5.201
11145WAT     H233678   2.464   9.620   5.252
11146WAT      O33679   4.103   4.215   8.609
11146WAT     H133680   4.014   4.195   8.650
11146WAT     H233681   4.105   4.310   8.579
11147WAT      O33682   3.843   7.559   6.194
11147WAT     H133683   3.846   7.492   6.120
11147WAT     H233684   3.854   7.651   6.158
11148WAT      O33685   1.200   6.750   3.843
11148WAT     H133686   1.293   6.787   3.850
11148WAT     H233687   1.204   6.656   3.810
11149WAT      O33688   3.133   9.035   3.845
11149WAT     H133689   3.074   9.114   3.862
11149WAT     H233690   3.079   8.960   3.806
11150WAT      O33691   7.016   9.255   2.035
11150WAT     H133692   6.979   9.180   2.089
11150WAT     H233693   7.050   9.327   2.095
11151WAT      O33694   9.027   8.446   3.396
11151WAT     H133695   9.014   8.544   3.414
11151WAT     H233696   9.010   8.394   3.479
11152WAT      O33697   5.772   3.008   0.391
11152WAT     H133698   5.872   2.999   0.388
11152WAT     H233699   5.731   2.917   0.399
11153WAT      O33700   8.324   2.854   3.691
11153WAT     H133701   8.422   2.874   3.687
11153WAT     H233702   8.274   2.939   3.708
11154WAT      O33703   6.811   1.553   3.324
11154WAT     H133704   6.718   1.550   3.360
11154WAT     H233705   6.861   1.472   3.353
11155WAT      O33706   6.219   6.301   2.233
11155WAT     H133707   6.148   6.242   2.196
11155WAT     H233708   6.254   6.261   2.318
11156WAT      O33709   8.641   9.384   2.742
11156WAT     H133710   8.562   9.368   2.683
11156WAT     H233711   8.664   9.300   2.790
11157WAT      O33712   0.515   8.183   8.620
11157WAT     H133713   0.467   8.271   8.618
11157WAT     H233714   0.603   8.192   8.574
11158WAT      O33715   4.900   7.457   1.674
11158WAT     H133716   4.966   7.526   1.642
11158WAT     H233717   4.923   7.430   1.767
11159WAT      O33718   0.581   6.106   6.146
11159WAT     H133719   0.494   6.057   6.146
11159WAT     H233720   0.642   6.067   6.077
11160WAT      O33721   2.933   9.069   1.478
11160WAT     H133722   2.844   9.105   1.502
11160WAT     H233723   2.960   9.103   1.388
11161WAT      O33724   4.103   1.230   3.966
11161WAT     H133725   4.136   1.243   3.872
11161WAT     H233726   4.154   1.156   4.009
11162WAT      O33727   9.685   2.817   2.218
11162WAT     H133728   9.777   2.785   2.198
11162WAT     H233729   9.639   2.842   2.132
11163WAT      O33730   5.786   0.778   3.155
11163WAT     H133731   5.828   0.709   3.214
11163WAT     H233732   5.718   0.734   3.097
11164WAT      O33733   6.708   3.345   8.545
11164WAT     H133734   6.728   3.384   8.455
11164WAT     H233735   6.699   3.419   8.612
11165WAT      O33736   0.106   9.740   8.182
11165WAT     H133737   0.102   9.669   8.252
11165WAT     H233738   0.109   9.830   8.226
11166WAT      O33739   8.711   2.103   9.405
11166WAT     H133740   8.751   2.063   9.323
11166WAT     H233741   8.686   2.199   9.387
11167WAT      O33742   9.863   6.130   5.045
11167WAT     H133743   9.926   6.186   5.099
11167WAT     H233744   9.904   6.110   4.956
11168WAT      O33745   5.060   4.849   4.304
11168WAT     H133746   4.979   4.794   4.325
11168WAT     H233747   5.033   4.945   4.293
11169WAT      O33748   3.950   6.763   9.498
11169WAT     H133749   4.014   6.733   9.569
11169WAT     H233750   3.992   6.748   9.408
11170WAT      O33751   3.615   2.478   5.170
11170WAT     H133752   3.669   2.562   5.180
11170WAT     H233753   3.519   2.501   5.154
11171WAT      O33754   2.840   3.646   9.342
11171WAT     H133755   2.760   3.620   9.396
11171WAT     H233756   2.859   3.576   9.274
11172WAT      O33757   3.344   0.338   6.100
11172WAT     H133758   3.296   0.372   6.019
11172WAT     H233759   3.363   0.241   6.089
11173WAT      O33760   6.431   0.192   5.346
11173WAT     H133761   6.350   0.244   5.317
11173WAT     H233762   6.490   0.250   5.402
11174WAT      O33763   1.150   4.870   1.977
11174WAT     H133764   1.235   4.919   1.959
11174WAT     H233765   1.124   4.883   2.073
11175WAT      O33766   3.620   7.318   2.859
11175WAT     H133767   3.641   7.318   2.957
11175WAT     H233768   3.526   7.351   2.846
11176WAT      O33769   4.062   8.937   9.853
11176WAT     H133770   4.121   8.928   9.933
11176WAT     H233771   4.020   9.028   9.852
11177WAT      O33772   4.233   7.533   9.089
11177WAT     H133773   4.217   7.575   8.999
11177WAT     H233774   4.197   7.440   9.090
11178WAT      O33775   8.149   9.168   1.480
11178WAT     H133776   8.106   9.101   1.420
11178WAT     H233777   8.241   9.137   1.505
11179WAT      O33778   9.365   4.426   8.476
11179WAT     H133779   9.392   4.406   8.381
11179WAT     H233780   9.366   4.525   8.490
11180WAT      O33781   2.489   6.549   8.749
11180WAT     H133782   2.516   6.580   8.840
11180WAT     H233783   2.564   6.565   8.685
11181WAT      O33784   5.663   6.646   7.454
11181WAT     H133785   5.610   6.562   7.464
11181WAT     H233786   5.704   6.649   7.363
11182WAT      O33787   9.630   8.096   5.581
11182WAT     H133788   9.560   8.066   5.517
11182WAT     H233789   9.680   8.174   5.542
11183WAT      O33790   7.325   7.506   6.852
11183WAT     H133791   7.419   7.476   6.831
11183WAT     H233792   7.308   7.495   6.950
11184WAT      O33793   6.642   1.841   5.511
11184WAT     H133794   6.690   1.908   5.456
11184WAT     H233795   6.567   1.801   5.458
11185WAT      O33796   4.036   5.177   0.653
11185WAT     H133797   3.987   5.092   0.635
11185WAT     H233798   4.076   5.211   0.568
11186WAT      O33799   8.688   9.146   4.496
11186WAT     H133800   8.609   9.115   4.443
11186WAT     H233801   8.762   9.079   4.488
11187WAT      O33802   5.209   0.781   2.911
11187WAT     H133803   5.151   0.852   2.871
11187WAT     H233804   5.298   0.781   2.865
11188WAT      O33805   3.677   4.745   7.739
11188WAT     H133806   3.706   4.801   7.817
11188WAT     H233807   3.741   4.669   7.728
11189WAT      O33808   7.127   5.362   9.650
11189WAT     H133809   7.120   5.351   9.749
11189WAT     H233810   7.192   5.295   9.614
11190WAT      O33811   6.611   9.175   4.288
11190WAT     H133812   6.519   9.210   4.271
11190WAT     H233813   6.670   9.201   4.211
11191WAT      O33814   0.714   0.956   6.455
11191WAT     H133815   0.748   0.873   6.498
11191WAT     H233816   0.628   0.983   6.499
11192WAT      O33817   8.344   1.863   8.412
11192WAT     H133818   8.334   1.962   8.407
11192WAT     H233819   8.286   1.820   8.342
11193WAT      O33820   0.773   8.558   2.582
11193WAT     H133821   0.859   8.507   2.589
11193WAT     H233822   0.742   8.582   2.674
11194WAT      O33823   3.879   2.794   4.574
11194WAT     H133824   3.976   2.773   4.561
11194WAT     H233825   3.823   2.718   4.540
11195WAT      O33826   0.071   8.901   1.482
11195WAT     H133827  -0.016   8.853   1.476
11195WAT     H233828   0.057   8.999   1.467
11196WAT      O33829   3.445   9.822   3.960
11196WAT     H133830   3.513   9.756   3.991
11196WAT     H233831   3.356   9.798   3.998
11197WAT      O33832   2.803   4.404   9.231
11197WAT     H133833   2.766   4.405   9.139
11197WAT     H233834   2.737   4.363   9.294
11198WAT      O33835   1.613   8.268   7.694
11198WAT     H133836   1.582   8.180   7.729
11198WAT     H233837   1.559   8.292   7.613
11199WAT      O33838   6.052   8.971   3.784
11199WAT     H133839   6.024   8.922   3.866
11199WAT     H233840   6.064   8.905   3.709
11200WAT      O33841   1.594   8.104   9.780
11200WAT     H133842   1.560   8.010   9.786
11200WAT     H233843   1.677   8.105   9.723
11201WAT      O33844   5.974   5.916   2.864
11201WAT     H133845   6.037   5.888   2.792
11201WAT     H233846   6.006   5.882   2.952
11202WAT      O33847   1.813   2.821   8.432
11202WAT     H133848   1.736   2.874   8.469
11202WAT     H233849   1.876   2.882   8.385
11203WAT      O33850   3.602   7.424   7.706
11203WAT     H133851   3.690   7.386   7.731
11203WAT     H233852   3.536   7.350   7.694
11204WAT      O33853   9.510   7.063   8.602
11204WAT     H133854   9.476   7.142   8.551
11204WAT     H233855   9.565   7.006   8.541
11205WAT      O33856   8.140   3.908   0.292
11205WAT     H133857   8.077   3.857   0.349
11205WAT     H233858   8.123   3.887   0.196
11206WAT      O33859   6.859   4.833   8.636
11206WAT     H133860   6.856   4.931   8.621
11206WAT     H233861   6.818   4.812   8.725
11207WAT      O33862   2.302   4.716   3.735
11207WAT     H133863   2.319   4.618   3.744
11207WAT     H233864   2.375   4.766   3.781
11208WAT      O33865   6.014   6.777   5.891
11208WAT     H133866   5.971   6.789   5.980
11208WAT     H233867   6.029   6.680   5.874
11209WAT      O33868   9.526   5.694   7.924
11209WAT     H133869   9.593   5.620   7.921
11209WAT     H233870   9.480   5.701   7.835
11210WAT      O33871   4.875   8.150   0.203
11210WAT     H133872   4.936   8.188   0.133
11210WAT     H233873   4.929   8.122   0.282
11211WAT      O33874   6.990   2.742   0.255
11211WAT     H133875   7.003   2.720   0.158
11211WAT     H233876   7.014   2.837   0.271
11212WAT      O33877   1.030   4.790   3.708
11212WAT     H133878   1.128   4.793   3.726
11212WAT     H233879   0.982   4.847   3.774
11213WAT      O33880   9.174   1.306   7.870
11213WAT     H133881   9.174   1.314   7.970
11213WAT     H233882   9.089   1.342   7.834
11214WAT      O33883   4.709   1.867   1.464
11214WAT     H133884   4.698   1.778   1.509
11214WAT     H233885   4.641   1.931   1.497
11215WAT      O33886   5.270   7.468   3.855
11215WAT     H133887   5.273   7.377   3.896
11215WAT     H233888   5.309   7.465   3.764
11216WAT      O33889   8.824   4.746   5.268
11216WAT     H133890   8.843   4.681   5.195
11216WAT     H233891   8.893   4.819   5.267
11217WAT      O33892   7.425   8.394   8.555
11217WAT     H133893   7.507   8.367   8.505
11217WAT     H233894   7.414   8.493   8.551
11218WAT      O33895   1.122   2.560   5.152
11218WAT     H133896   1.138   2.641   5.096
11218WAT     H233897   1.166   2.572   5.241
11219WAT      O33898   5.434   3.845   4.098
11219WAT     H133899   5.463   3.857   4.193
11219WAT     H233900   5.498   3.784   4.051
11220WAT      O33901   3.839   9.404   7.541
11220WAT     H133902   3.818   9.399   7.443
11220WAT     H233903   3.775   9.467   7.586
11221WAT      O33904   2.336   7.277   8.849
11221WAT     H133905   2.380   7.189   8.832
11221WAT     H233906   2.260   7.264   8.912
11222WAT      O33907   2.288   9.027   0.707
11222WAT     H133908   2.270   8.931   0.728
11222WAT     H233909   2.204   9.072   0.679
11223WAT      O33910   8.777   7.211   1.958
11223WAT     H133911   8.848   7.161   2.009
11223WAT     H233912   8.697   7.152   1.948
11224WAT      O33913   9.873   6.626   4.391
11224WAT     H133914   9.805   6.648   4.321
11224WAT     H233915   9.857   6.533   4.424
11225WAT      O33916   9.591   2.142   3.446
11225WAT     H133917   9.673   2.088   3.463
11225WAT     H233918   9.533   2.140   3.528
11226WAT      O33919   3.418   7.688   1.158
11226WAT     H133920   3.405   7.675   1.256
11226WAT     H233921   3.441   7.601   1.115
11227WAT      O33922   2.577   5.309   5.858
11227WAT     H133923   2.603   5.362   5.777
11227WAT     H233924   2.650   5.245   5.879
11228WAT      O33925   0.046   9.426   0.619
11228WAT     H133926   0.099   9.386   0.544
11228WAT     H233927  -0.007   9.354   0.664
11229WAT      O33928   7.634   9.078   0.201
11229WAT     H133929   7.559   9.107   0.141
11229WAT     H233930   7.673   8.993   0.167
11230WAT      O33931   6.215   7.671   2.780
11230WAT     H133932   6.271   7.754   2.777
11230WAT     H233933   6.230   7.617   2.697
11231WAT      O33934   7.694   3.295   0.070
11231WAT     H133935   7.655   3.252  -0.011
11231WAT     H233936   7.781   3.339   0.046
11232WAT      O33937   5.523   7.694   0.841
11232WAT     H133938   5.593   7.641   0.793
11232WAT     H233939   5.434   7.650   0.829
11233WAT      O33940   6.740   4.346   2.545
11233WAT     H133941   6.689   4.274   2.499
11233WAT     H233942   6.773   4.313   2.634
11234WAT      O33943   3.350   1.282   1.071
11234WAT     H133944   3.254   1.259   1.083
11234WAT     H233945   3.405   1.231   1.138
11235WAT      O33946   7.949   2.876   5.981
11235WAT     H133947   7.997   2.805   5.930
11235WAT     H233948   7.973   2.966   5.945
11236WAT      O33949   0.008   9.069   7.662
11236WAT     H133950  -0.008   8.971   7.646
11236WAT     H233951  -0.071   9.121   7.631
11237WAT      O33952   6.658   3.601   8.578
11237WAT     H133953   6.690   3.620   8.485
11237WAT     H233954   6.566   3.637   8.589
11238WAT      O33955   2.169   4.826   5.678
11238WAT     H133956   2.122   4.890   5.617
11238WAT     H233957   2.250   4.870   5.717
11239WAT      O33958   4.205   0.938   8.314
11239WAT     H133959   4.291   0.888   8.304
11239WAT     H233960   4.129   0.876   8.294
11240WAT      O33961   4.588   4.951   9.000
11240WAT     H133962   4.524   4.913   9.067
11240WAT     H233963   4.674   4.901   9.004
11241WAT      O33964   8.823   3.328   4.323
11241WAT     H133965   8.864   3.339   4.233
11241WAT     H233966   8.865   3.393   4.387
11242WAT      O33967   5.234   9.680   3.536
11242WAT     H133968   5.237   9.774   3.501
11242WAT     H233969   5.220   9.616   3.461
11243WAT      O33970   2.484   5.305   0.012
11243WAT     H133971   2.431   5.369   0.068
11243WAT     H233972   2.422   5.239  -0.030
11244WAT      O33973   9.648   2.907   1.677
11244WAT     H133974   9.640   3.004   1.652
11244WAT     H233975   9.740   2.874   1.657
11245WAT      O33976   7.860   2.510   3.316
11245WAT     H133977   7.946   2.482   3.361
11245WAT     H233978   7.858   2.473   3.223
11246WAT      O33979   3.120   4.907   0.039
11246WAT     H133980   3.184   4.854   0.094
11246WAT     H233981   3.036   4.854   0.025
11247WAT      O33982   4.484   4.868   0.502
11247WAT     H133983   4.448   4.921   0.425
11247WAT     H233984   4.513   4.778   0.470
11248WAT      O33985   1.212   9.528   7.992
11248WAT     H133986   1.269   9.527   7.910
11248WAT     H233987   1.250   9.465   8.060
11249WAT      O33988   1.163   5.164   1.727
11249WAT     H133989   1.210   5.085   1.687
11249WAT     H233990   1.127   5.138   1.817
11250WAT      O33991   8.049   2.474   4.168
11250WAT     H133992   8.022   2.380   4.147
11250WAT     H233993   8.131   2.474   4.225
11251WAT      O33994   7.553   2.729   2.923
11251WAT     H133995   7.514   2.674   2.996
11251WAT     H233996   7.488   2.736   2.847
11252WAT      O33997   8.376   0.947   6.387
11252WAT     H133998   8.393   0.978   6.293
11252WAT     H233999   8.278   0.934   6.400
11253WAT      O34000   1.654   6.626   8.711
11253WAT     H134001   1.731   6.631   8.774
11253WAT     H234002   1.688   6.606   8.619
11254WAT      O34003   1.570   8.571   9.631
11254WAT     H134004   1.570   8.485   9.683
11254WAT     H234005   1.481   8.584   9.587
11255WAT      O34006   4.032   1.710   9.693
11255WAT     H134007   3.953   1.652   9.680
11255WAT     H234008   4.051   1.761   9.609
11256WAT      O34009   3.341   2.063   9.840
11256WAT     H134010   3.401   1.999   9.793
11256WAT     H234011   3.316   2.026   9.929
11257WAT      O34012   3.157   0.933   2.167
11257WAT     H134013   3.143   1.019   2.216
11257WAT     H234014   3.190   0.863   2.231
11258WAT      O34015   2.866   7.085   7.296
11258WAT     H134016   2.800   7.011   7.306
11258WAT     H234017   2.831   7.167   7.342
11259WAT      O34018   0.031   6.492   1.407
11259WAT     H134019   0.009   6.496   1.504
11259WAT     H234020   0.086   6.410   1.389
11260WAT      O34021   0.559   0.755   2.826
11260WAT     H134022   0.589   0.674   2.877
11260WAT     H234023   0.634   0.790   2.770
11261WAT      O34024   3.586   5.458   4.151
11261WAT     H134025   3.554   5.428   4.061
11261WAT     H234026   3.512   5.507   4.197
11262WAT      O34027   8.759   9.397   0.771
11262WAT     H134028   8.797   9.306   0.784
11262WAT     H234029   8.674   9.391   0.718
11263WAT      O34030   5.447   8.830   8.120
11263WAT     H134031   5.447   8.886   8.037
11263WAT     H234032   5.513   8.756   8.110
11264WAT      O34033   6.269   4.563   6.721
11264WAT     H134034   6.220   4.586   6.637
11264WAT     H234035   6.332   4.487   6.703
11265WAT      O34036   2.459   2.118   9.443
11265WAT     H134037   2.447   2.049   9.371
11265WAT     H234038   2.378   2.121   9.500
11266WAT      O34039   4.470   8.573   1.506
11266WAT     H134040   4.481   8.601   1.410
11266WAT     H234041   4.495   8.650   1.565
11267WAT      O34042   1.593   5.436   3.103
11267WAT     H134043   1.544   5.522   3.093
11267WAT     H234044   1.541   5.374   3.161
11268WAT      O34045   2.395   2.873   1.764
11268WAT     H134046   2.378   2.878   1.665
11268WAT     H234047   2.320   2.824   1.808
11269WAT      O34048   0.800   0.944   4.094
11269WAT     H134049   0.830   0.974   4.184
11269WAT     H234050   0.747   1.018   4.050
11270WAT      O34051   3.948   2.880   9.328
11270WAT     H134052   3.969   2.977   9.341
11270WAT     H234053   3.857   2.859   9.363
11271WAT      O34054   8.619   8.463   6.174
11271WAT     H134055   8.600   8.444   6.077
11271WAT     H234056   8.546   8.519   6.212
11272WAT      O34057   3.891   8.852   3.192
11272WAT     H134058   3.863   8.912   3.118
11272WAT     H234059   3.989   8.863   3.209
11273WAT      O34060   1.174   8.587   7.465
11273WAT     H134061   1.090   8.640   7.452
11273WAT     H234062   1.240   8.613   7.394
11274WAT      O34063   6.894   5.625   0.214
11274WAT     H134064   6.982   5.596   0.250
11274WAT     H234065   6.830   5.640   0.290
11275WAT      O34066   4.626   3.562   1.911
11275WAT     H134067   4.614   3.574   2.009
11275WAT     H234068   4.580   3.636   1.862
11276WAT      O34069   5.872   4.665   1.818
11276WAT     H134070   5.850   4.685   1.913
11276WAT     H234071   5.948   4.722   1.788
11277WAT      O34072   3.794   2.647   8.854
11277WAT     H134073   3.780   2.682   8.947
11277WAT     H234074   3.889   2.663   8.827
11278WAT      O34075   4.821   8.030   5.451
11278WAT     H134076   4.731   7.996   5.422
11278WAT     H234077   4.877   7.953   5.481
11279WAT      O34078   8.721   1.854   6.215
11279WAT     H134079   8.776   1.904   6.282
11279WAT     H234080   8.761   1.763   6.200
11280WAT      O34081   0.631   8.658   5.550
11280WAT     H134082   0.689   8.734   5.519
11280WAT     H234083   0.664   8.626   5.638
11281WAT      O34084   8.761   8.801   8.507
11281WAT     H134085   8.814   8.722   8.477
11281WAT     H234086   8.729   8.787   8.600
11282WAT      O34087   1.565   5.448   1.174
11282WAT     H134088   1.603   5.375   1.118
11282WAT     H234089   1.490   5.492   1.126
11283WAT      O34090   8.440   0.070   4.460
11283WAT     H134091   8.519   0.123   4.488
11283WAT     H234092   8.424   0.084   4.362
11284WAT      O34093   0.792   6.675   5.227
11284WAT     H134094   0.888   6.700   5.243
11284WAT     H234095   0.774   6.673   5.129
11285WAT      O34096   9.231   3.698   5.183
11285WAT     H134097   9.306   3.632   5.177
11285WAT     H234098   9.263   3.780   5.231
11286WAT      O34099   5.832   3.859   4.591
11286WAT     H134100   5.759   3.919   4.557
11286WAT     H234101   5.864   3.801   4.516
11287WAT      O34102   8.128   3.970   3.941
11287WAT     H134103   8.150   3.876   3.915
11287WAT     H234104   8.155   4.032   3.867
11288WAT      O34105   6.914   7.931   0.674
11288WAT     H134106   6.954   7.894   0.591
11288WAT     H234107   6.983   7.983   0.724
11289WAT      O34108   3.164   5.149   8.966
11289WAT     H134109   3.165   5.165   9.065
11289WAT     H234110   3.250   5.105   8.939
11290WAT      O34111   9.808   7.792   7.129
11290WAT     H134112   9.759   7.718   7.175
11290WAT     H234113   9.830   7.864   7.196
11291WAT      O34114   2.415   4.257   1.696
11291WAT     H134115   2.372   4.222   1.613
11291WAT     H234116   2.506   4.292   1.675
11292WAT      O34117   9.237   0.010   3.262
11292WAT     H134118   9.285   0.070   3.197
11292WAT     H234119   9.213   0.062   3.344
11293WAT      O34120   8.930   9.082   5.024
11293WAT     H134121   8.856   9.101   5.089
11293WAT     H234122   8.940   9.159   4.961
11294WAT      O34123   4.302   8.036   1.866
11294WAT     H134124   4.304   8.133   1.842
11294WAT     H234125   4.262   7.985   1.790
11295WAT      O34126   7.363   1.450   1.172
11295WAT     H134127   7.415   1.380   1.221
11295WAT     H234128   7.410   1.538   1.179
11296WAT      O34129   6.538   3.009   4.078
11296WAT     H134130   6.570   3.085   4.135
11296WAT     H234131   6.584   2.924   4.107
11297WAT      O34132   8.139   6.969   1.825
11297WAT     H134133   8.079   7.040   1.862
11297WAT     H234134   8.231   7.005   1.815
11298WAT      O34135   2.977   3.178   2.317
11298WAT     H134136   2.971   3.146   2.222
11298WAT     H234137   2.888   3.212   2.346
11299WAT      O34138   6.861   3.987   4.629
11299WAT     H134139   6.823   3.897   4.646
11299WAT     H234140   6.788   4.051   4.606
11300WAT      O34141   6.777   4.662   2.908
11300WAT     H134142   6.831   4.737   2.947
11300WAT     H234143   6.686   4.695   2.884
11301WAT      O34144   9.594   4.602   1.889
11301WAT     H134145   9.640   4.593   1.801
11301WAT     H234146   9.627   4.530   1.951
11302WAT      O34147   2.213   9.244   5.619
11302WAT     H134148   2.254   9.316   5.677
11302WAT     H234149   2.284   9.205   5.561
11303WAT      O34150   0.418   3.533   0.754
11303WAT     H134151   0.514   3.526   0.727
11303WAT     H234152   0.365   3.574   0.680
11304WAT      O34153   3.176   8.577   5.742
11304WAT     H134154   3.133   8.614   5.660
11304WAT     H234155   3.204   8.482   5.724
11305WAT      O34156   1.104   4.287   3.886
11305WAT     H134157   1.069   4.201   3.849
11305WAT     H234158   1.064   4.304   3.976
11306WAT      O34159   3.026   9.285   3.817
11306WAT     H134160   3.045   9.377   3.781
11306WAT     H234161   2.941   9.286   3.868
11307WAT      O34162   1.669   7.052   7.358
11307WAT     H134163   1.765   7.059   7.331
11307WAT     H234164   1.632   6.964   7.328
11308WAT      O34165   4.251   3.845   8.065
11308WAT     H134166   4.335   3.800   8.096
11308WAT     H234167   4.173   3.787   8.087
11309WAT      O34168   7.082   8.171   4.246
11309WAT     H134169   7.122   8.081   4.265
11309WAT     H234170   7.110   8.235   4.318
11310WAT      O34171   9.840   8.731   8.756
11310WAT     H134172   9.932   8.764   8.777
11310WAT     H234173   9.799   8.787   8.684
11311WAT      O34174   1.453   8.352   3.476
11311WAT     H134175   1.456   8.252   3.474
11311WAT     H234176   1.385   8.382   3.543
11312WAT      O34177   0.812   2.924   3.603
11312WAT     H134178   0.742   2.966   3.660
11312WAT     H234179   0.868   2.995   3.560
11313WAT      O34180   1.228   1.708   6.840
11313WAT     H134181   1.166   1.633   6.864
11313WAT     H234182   1.296   1.675   6.775
11314WAT      O34183   7.608   7.433   4.000
11314WAT     H134184   7.528   7.463   4.052
11314WAT     H234185   7.682   7.410   4.063
11315WAT      O34186   6.307   6.284   1.625
11315WAT     H134187   6.333   6.356   1.690
11315WAT     H234188   6.208   6.272   1.627
11316WAT      O34189   9.403   2.189   2.532
11316WAT     H134190   9.306   2.213   2.540
11316WAT     H234191   9.439   2.164   2.622
11317WAT      O34192   0.710   6.303   9.106
11317WAT     H134193   0.765   6.386   9.101
11317WAT     H234194   0.613   6.327   9.110
11318WAT      O34195   5.510   0.044   3.594
11318WAT     H134196   5.570   0.121   3.617
11318WAT     H234197   5.450   0.025   3.671
11319WAT      O34198   7.121   5.878   0.749
11319WAT     H134199   7.138   5.891   0.651
11319WAT     H234200   7.026   5.851   0.763
11320WAT      O34201   5.857   2.341   3.036
11320WAT     H134202   5.893   2.383   2.953
11320WAT     H234203   5.930   2.290   3.082
11321WAT      O34204   1.792   0.804   0.093
11321WAT     H134205   1.884   0.804   0.131
11321WAT     H234206   1.775   0.718   0.044
11322WAT      O34207   2.203   6.152   9.683
11322WAT     H134208   2.258   6.220   9.730
11322WAT     H234209   2.220   6.061   9.722
11323WAT      O34210   9.735   1.243   2.913
11323WAT     H134211   9.826   1.237   2.955
11323WAT     H234212   9.741   1.291   2.826
11324WAT      O34213   3.548   1.412   1.831
11324WAT     H134214   3.551   1.312   1.828
11324WAT     H234215   3.635   1.448   1.796
11325WAT      O34216   3.389   9.054   0.666
11325WAT     H134217   3.301   9.014   0.690
11325WAT     H234218   3.453   9.043   0.742
11326WAT      O34219   0.638   8.280   3.227
11326WAT     H134220   0.727   8.247   3.260
11326WAT     H234221   0.571   8.207   3.235
11327WAT      O34222   7.663   4.869   3.507
11327WAT     H134223   7.648   4.772   3.489
11327WAT     H234224   7.579   4.910   3.543
11328WAT      O34225   8.097   3.939   2.935
11328WAT     H134226   8.106   3.883   3.017
11328WAT     H234227   8.070   3.881   2.858
11329WAT      O34228   1.988   7.487   3.012
11329WAT     H134229   2.063   7.516   3.071
11329WAT     H234230   1.932   7.567   2.988
11330WAT      O34231   3.971   7.535   3.452
11330WAT     H134232   3.942   7.517   3.546
11330WAT     H234233   4.067   7.564   3.452
11331WAT      O34234   5.812   9.291   5.195
11331WAT     H134235   5.843   9.203   5.160
11331WAT     H234236   5.744   9.276   5.267
11332WAT      O34237   4.249   2.047   2.595
11332WAT     H134238   4.288   2.115   2.533
11332WAT     H234239   4.320   2.010   2.654
11333WAT      O34240   0.208   8.969   1.736
11333WAT     H134241   0.298   8.939   1.768
11333WAT     H234242   0.181   8.917   1.656
11334WAT      O34243   9.768   0.747   7.596
11334WAT     H134244   9.814   0.659   7.609
11334WAT     H234245   9.773   0.774   7.500
11335WAT      O34246   3.085   3.386   7.383
11335WAT     H134247   3.001   3.427   7.418
11335WAT     H234248   3.148   3.458   7.354
11336WAT      O34249   4.446   1.689   2.818
11336WAT     H134250   4.404   1.691   2.727
11336WAT     H234251   4.516   1.618   2.822
11337WAT      O34252   9.078   1.408   4.216
11337WAT     H134253   9.082   1.327   4.273
11337WAT     H234254   9.109   1.385   4.123
11338WAT      O34255   7.844   5.699   2.835
11338WAT     H134256   7.901   5.776   2.806
11338WAT     H234257   7.748   5.724   2.829
11339WAT      O34258   7.942   9.141   8.437
11339WAT     H134259   7.967   9.237   8.429
11339WAT     H234260   7.955   9.111   8.532
11340WAT      O34261   4.262   5.744   1.021
11340WAT     H134262   4.299   5.653   1.001
11340WAT     H234263   4.327   5.814   0.991
11341WAT      O34264   2.482   3.386   8.501
11341WAT     H134265   2.578   3.412   8.485
11341WAT     H234266   2.440   3.452   8.562
11342WAT      O34267   4.391   9.420   5.593
11342WAT     H134268   4.319   9.381   5.537
11342WAT     H234269   4.419   9.354   5.663
11343WAT      O34270   3.697   7.334   3.105
11343WAT     H134271   3.671   7.292   3.192
11343WAT     H234272   3.712   7.432   3.117
11344WAT      O34273   3.504   1.561   2.565
11344WAT     H134274   3.484   1.647   2.518
11344WAT     H234275   3.601   1.541   2.559
11345WAT      O34276   0.500   2.075   4.982
11345WAT     H134277   0.501   2.047   5.078
11345WAT     H234278   0.566   2.020   4.931
11346WAT      O34279   3.125   0.734   6.978
11346WAT     H134280   3.052   0.802   6.964
11346WAT     H234281   3.119   0.697   7.070
11347WAT      O34282   2.918   6.296   3.928
11347WAT     H134283   2.824   6.323   3.952
11347WAT     H234284   2.919   6.200   3.899
11348WAT      O34285   3.572   1.138   1.853
11348WAT     H134286   3.493   1.109   1.799
11348WAT     H234287   3.560   1.109   1.948
11349WAT      O34288   8.327   2.614   9.171
11349WAT     H134289   8.276   2.631   9.086
11349WAT     H234290   8.263   2.585   9.242
11350WAT      O34291   5.520   7.654   6.102
11350WAT     H134292   5.507   7.565   6.059
11350WAT     H234293   5.484   7.725   6.043
11351WAT      O34294   3.838   0.737   5.984
11351WAT     H134295   3.904   0.786   5.928
11351WAT     H234296   3.841   0.772   6.078
11352WAT      O34297   8.843   0.596   7.967
11352WAT     H134298   8.767   0.593   8.031
11352WAT     H234299   8.808   0.604   7.874
11353WAT      O34300   8.229   5.467   4.288
11353WAT     H134301   8.298   5.403   4.253
11353WAT     H234302   8.228   5.549   4.231
11354WAT      O34303   4.926   0.397   1.422
11354WAT     H134304   4.975   0.316   1.390
11354WAT     H234305   4.958   0.422   1.514
11355WAT      O34306   2.072   2.258   3.666
11355WAT     H134307   2.011   2.336   3.651
11355WAT     H234308   2.116   2.266   3.755
11356WAT      O34309   7.943   7.196   1.860
11356WAT     H134310   7.974   7.184   1.955
11356WAT     H234311   7.844   7.209   1.859
11357WAT      O34312   3.882   7.509   9.285
11357WAT     H134313   3.921   7.419   9.303
11357WAT     H234314   3.955   7.578   9.287
11358WAT      O34315   9.486   5.481   4.611
11358WAT     H134316   9.533   5.506   4.696
11358WAT     H234317   9.511   5.387   4.586
11359WAT      O34318   2.265   7.440   5.173
11359WAT     H134319   2.319   7.479   5.248
11359WAT     H234320   2.192   7.384   5.212
11360WAT      O34321   4.231   0.697   9.327
11360WAT     H134322   4.231   0.648   9.240
11360WAT     H234323   4.218   0.631   9.402
11361WAT      O34324   2.184   9.457   5.242
11361WAT     H134325   2.221   9.379   5.294
11361WAT     H234326   2.098   9.430   5.199
11362WAT      O34327   0.219   5.771   6.060
11362WAT     H134328   0.198   5.752   6.156
11362WAT     H234329   0.294   5.711   6.031
11363WAT      O34330   7.944   0.474   1.983
11363WAT     H134331   7.938   0.430   2.072
11363WAT     H234332   8.039   0.495   1.962
11364WAT      O34333   6.216   0.393   3.273
11364WAT     H134334   6.276   0.314   3.264
11364WAT     H234335   6.269   0.477   3.261
11365WAT      O34336   1.354   4.466   2.394
11365WAT     H134337   1.358   4.391   2.460
11365WAT     H234338   1.354   4.553   2.443
11366WAT      O34339   8.384   9.579   6.604
11366WAT     H134340   8.477   9.614   6.606
11366WAT     H234341   8.359   9.544   6.694
11367WAT      O34342   5.263   2.773   3.459
11367WAT     H134343   5.193   2.744   3.393
11367WAT     H234344   5.225   2.843   3.520
11368WAT      O34345   9.021   5.474   5.091
11368WAT     H134346   9.056   5.530   5.017
11368WAT     H234347   8.928   5.501   5.113
11369WAT      O34348   7.702   3.752   0.039
11369WAT     H134349   7.723   3.728   0.134
11369WAT     H234350   7.740   3.842   0.019
11370WAT      O34351   3.258   4.203   4.674
11370WAT     H134352   3.303   4.175   4.759
11370WAT     H234353   3.298   4.153   4.598
11371WAT      O34354   9.055   3.838   2.695
11371WAT     H134355   8.985   3.844   2.765
11371WAT     H234356   9.127   3.774   2.725
11372WAT      O34357   5.936   5.415   3.214
11372WAT     H134358   5.907   5.387   3.306
11372WAT     H234359   5.979   5.337   3.168
11373WAT      O34360   5.923   0.468   3.785
11373WAT     H134361   5.984   0.430   3.854
11373WAT     H234362   5.862   0.397   3.751
11374WAT      O34363   5.462   7.240   4.269
11374WAT     H134364   5.368   7.212   4.251
11374WAT     H234365   5.479   7.236   4.367
11375WAT      O34366   4.499   5.389   5.921
11375WAT     H134367   4.413   5.419   5.963
11375WAT     H234368   4.541   5.318   5.978
11376WAT      O34369   7.985   5.852   0.299
11376WAT     H134370   7.901   5.895   0.331
11376WAT     H234371   7.975   5.752   0.303
11377WAT      O34372   8.619   1.085   2.602
11377WAT     H134373   8.677   1.144   2.546
11377WAT     H234374   8.664   1.067   2.689
11378WAT      O34375   5.819   5.742   9.193
11378WAT     H134376   5.782   5.741   9.101
11378WAT     H234377   5.793   5.828   9.238
11379WAT      O34378   9.131   6.770   8.383
11379WAT     H134379   9.227   6.761   8.355
11379WAT     H234380   9.084   6.832   8.321
11380WAT      O34381   8.390   2.693   5.093
11380WAT     H134382   8.325   2.625   5.060
11380WAT     H234383   8.471   2.694   5.034
11381WAT      O34384   6.443   0.750   4.293
11381WAT     H134385   6.402   0.774   4.381
11381WAT     H234386   6.468   0.653   4.293
11382WAT      O34387   1.389   6.397   7.753
11382WAT     H134388   1.482   6.423   7.728
11382WAT     H234389   1.325   6.446   7.694
11383WAT      O34390   0.907   5.319   7.701
11383WAT     H134391   0.997   5.281   7.680
11383WAT     H234392   0.890   5.311   7.799
11384WAT      O34393   3.143   0.558   0.371
11384WAT     H134394   3.121   0.648   0.409
11384WAT     H234395   3.236   0.559   0.334
11385WAT      O34396   7.878   0.228   1.137
11385WAT     H134397   7.915   0.183   1.056
11385WAT     H234398   7.943   0.217   1.213
11386WAT      O34399   7.260   3.750   5.607
11386WAT     H134400   7.231   3.665   5.652
11386WAT     H234401   7.291   3.730   5.514
11387WAT      O34402   6.043   6.339   1.424
11387WAT     H134403   6.115   6.404   1.402
11387WAT     H234404   6.079   6.246   1.417
11388WAT      O34405   9.285   5.138   1.536
11388WAT     H134406   9.375   5.165   1.571
11388WAT     H234407   9.251   5.208   1.473
11389WAT      O34408   9.874   0.154   1.942
11389WAT     H134409   9.851   0.241   1.985
11389WAT     H234410   9.828   0.146   1.854
11390WAT      O34411   0.154   7.077   0.557
11390WAT     H134412   0.141   7.171   0.526
11390WAT     H234413   0.248   7.048   0.538
11391WAT      O34414   3.886   1.288   6.899
11391WAT     H134415   3.866   1.386   6.897
11391WAT     H234416   3.846   1.249   6.982
11392WAT      O34417   5.731   1.298   9.179
11392WAT     H134418   5.671   1.242   9.122
11392WAT     H234419   5.822   1.258   9.181
11393WAT      O34420   0.953   7.732   6.923
11393WAT     H134421   1.027   7.700   6.983
11393WAT     H234422   0.971   7.826   6.895
11394WAT      O34423   4.987   3.076   8.475
11394WAT     H134424   4.943   3.029   8.398
11394WAT     H234425   5.039   3.154   8.440
11395WAT      O34426   3.219   5.191   4.364
11395WAT     H134427   3.305   5.218   4.406
11395WAT     H234428   3.150   5.260   4.381
11396WAT      O34429   0.412   5.622   1.166
11396WAT     H134430   0.442   5.717   1.179
11396WAT     H234431   0.485   5.570   1.121
11397WAT      O34432   9.661   8.628   3.339
11397WAT     H134433   9.565   8.649   3.360
11397WAT     H234434   9.666   8.582   3.250
11398WAT      O34435   4.586   1.526   6.240
11398WAT     H134436   4.635   1.612   6.226
11398WAT     H234437   4.487   1.543   6.237
11399WAT      O34438   7.180   0.765   7.385
11399WAT     H134439   7.231   0.829   7.328
11399WAT     H234440   7.082   0.783   7.375
11400WAT      O34441   5.420   2.248   9.408
11400WAT     H134442   5.493   2.206   9.462
11400WAT     H234443   5.332   2.229   9.451
11401WAT      O34444   6.122   5.768   8.672
11401WAT     H134445   6.059   5.692   8.657
11401WAT     H234446   6.110   5.803   8.765
11402WAT      O34447   8.905   1.554   5.382
11402WAT     H134448   8.942   1.546   5.474
11402WAT     H234449   8.888   1.463   5.345
11403WAT      O34450   6.548   8.553   3.981
11403WAT     H134451   6.504   8.538   4.070
11403WAT     H234452   6.485   8.526   3.908
11404WAT      O34453   2.222   7.366   0.165
11404WAT     H134454   2.180   7.431   0.102
11404WAT     H234455   2.285   7.415   0.225
11405WAT      O34456   5.386   3.254   4.243
11405WAT     H134457   5.286   3.254   4.237
11405WAT     H234458   5.421   3.167   4.209
11406WAT      O34459   6.716   6.684   5.996
11406WAT     H134460   6.633   6.720   5.953
11406WAT     H234461   6.692   6.608   6.056
11407WAT      O34462   4.904   0.272   6.274
11407WAT     H134463   4.976   0.328   6.315
11407WAT     H234464   4.930   0.176   6.279
11408WAT      O34465   8.421   9.815   2.731
11408WAT     H134466   8.377   9.883   2.790
11408WAT     H234467   8.497   9.858   2.681
11409WAT      O34468   5.129   3.828   6.792
11409WAT     H134469   5.114   3.729   6.782
11409WAT     H234470   5.107   3.874   6.706
11410WAT      O34471   7.688   4.580   4.129
11410WAT     H134472   7.602   4.528   4.133
11410WAT     H234473   7.753   4.542   4.195
11411WAT      O34474   6.234   6.498   3.078
11411WAT     H134475   6.236   6.498   3.178
11411WAT     H234476   6.250   6.591   3.044
11412WAT      O34477   8.983   0.934   7.877
11412WAT     H134478   9.012   0.999   7.948
11412WAT     H234479   8.988   0.978   7.788
11413WAT      O34480   4.934   5.850   6.995
11413WAT     H134481   4.886   5.901   7.066
11413WAT     H234482   4.901   5.755   6.995
11414WAT      O34483   1.150   2.929   0.067
11414WAT     H134484   1.137   2.838   0.106
11414WAT     H234485   1.193   2.989   0.135
11415WAT      O34486   6.204   1.706   8.543
11415WAT     H134487   6.138   1.758   8.489
11415WAT     H234488   6.236   1.762   8.620
11416WAT      O34489   3.648   9.483   8.397
11416WAT     H134490   3.607   9.566   8.359
11416WAT     H234491   3.692   9.430   8.325
11417WAT      O34492   9.260   3.444   2.044
11417WAT     H134493   9.187   3.490   1.993
11417WAT     H234494   9.255   3.470   2.141
11418WAT      O34495   2.709   4.151   5.765
11418WAT     H134496   2.742   4.077   5.823
11418WAT     H234497   2.785   4.213   5.744
11419WAT      O34498   2.935   8.234   7.069
11419WAT     H134499   2.873   8.205   6.996
11419WAT     H234500   2.883   8.276   7.143
11420WAT      O34501   9.671   5.800   0.906
11420WAT     H134502   9.692   5.800   1.004
11420WAT     H234503   9.585   5.752   0.890
11421WAT      O34504   0.743   7.334   8.865
11421WAT     H134505   0.736   7.242   8.826
11421WAT     H234506   0.657   7.382   8.851
11422WAT      O34507   0.743   9.620   4.678
11422WAT     H134508   0.688   9.541   4.707
11422WAT     H234509   0.826   9.625   4.734
11423WAT      O34510   8.009   9.478   7.222
11423WAT     H134511   7.986   9.533   7.303
11423WAT     H234512   8.054   9.536   7.154
11424WAT      O34513   8.302   2.418   4.294
11424WAT     H134514   8.377   2.369   4.338
11424WAT     H234515   8.332   2.510   4.269
11425WAT      O34516   8.088   7.574   7.055
11425WAT     H134517   8.013   7.639   7.068
11425WAT     H234518   8.060   7.503   6.990
11426WAT      O34519   2.424   4.312   5.469
11426WAT     H134520   2.421   4.381   5.397
11426WAT     H234521   2.487   4.239   5.442
11427WAT      O34522   2.690   0.022   1.122
11427WAT     H134523   2.742   0.103   1.096
11427WAT     H234524   2.751  -0.057   1.125
11428WAT      O34525   4.691   0.991   2.616
11428WAT     H134526   4.659   0.989   2.521
11428WAT     H234527   4.700   0.897   2.649
11429WAT      O34528   4.099   8.103   6.618
11429WAT     H134529   4.169   8.033   6.628
11429WAT     H234530   4.015   8.061   6.585
11430WAT      O34531   3.830   8.975   1.889
11430WAT     H134532   3.790   8.908   1.951
11430WAT     H234533   3.919   9.004   1.922
11431WAT      O34534   1.413   1.948   4.143
11431WAT     H134535   1.508   1.973   4.160
11431WAT     H234536   1.404   1.915   4.050
11432WAT      O34537   4.187   9.300   1.977
11432WAT     H134538   4.134   9.333   2.055
11432WAT     H234539   4.161   9.352   1.896
11433WAT      O34540   4.345   7.191   4.429
11433WAT     H134541   4.427   7.243   4.404
11433WAT     H234542   4.313   7.220   4.519
11434WAT      O34543   8.348   7.984   4.644
11434WAT     H134544   8.257   8.023   4.661
11434WAT     H234545   8.352   7.893   4.686
11435WAT      O34546   9.066   5.691   7.002
11435WAT     H134547   9.106   5.715   7.090
11435WAT     H234548   9.098   5.755   6.932
11436WAT      O34549   1.247   1.788   8.507
11436WAT     H134550   1.213   1.840   8.428
11436WAT     H234551   1.338   1.820   8.531
11437WAT      O34552   7.863   1.532   4.728
11437WAT     H134553   7.779   1.585   4.721
11437WAT     H234554   7.904   1.546   4.818
11438WAT      O34555   7.390   9.212   5.664
11438WAT     H134556   7.423   9.121   5.637
11438WAT     H234557   7.434   9.282   5.608
11439WAT      O34558   9.137   4.086   6.540
11439WAT     H134559   9.125   4.041   6.451
11439WAT     H234560   9.232   4.112   6.552
11440WAT      O34561   9.654   7.723   6.056
11440WAT     H134562   9.735   7.752   6.005
11440WAT     H234563   9.620   7.799   6.111
11441WAT      O34564   8.618   5.939   3.097
11441WAT     H134565   8.549   5.995   3.051
11441WAT     H234566   8.574   5.884   3.168
11442WAT      O34567   1.618   4.342   4.451
11442WAT     H134568   1.645   4.394   4.370
11442WAT     H234569   1.559   4.397   4.509
11443WAT      O34570   2.500   3.986   6.435
11443WAT     H134571   2.524   3.983   6.338
11443WAT     H234572   2.537   3.905   6.480
11444WAT      O34573   1.639   4.156   6.281
11444WAT     H134574   1.690   4.071   6.296
11444WAT     H234575   1.557   4.156   6.339
11445WAT      O34576   6.529   3.093   1.426
11445WAT     H134577   6.620   3.059   1.402
11445WAT     H234578   6.538   3.185   1.465
11446WAT      O34579   3.189   9.639   5.493
11446WAT     H134580   3.267   9.577   5.496
11446WAT     H234581   3.115   9.601   5.548
11447WAT      O34582   1.637   6.671   1.388
11447WAT     H134583   1.541   6.670   1.359
11447WAT     H234584   1.675   6.763   1.374
11448WAT      O34585   7.208   1.292   0.532
11448WAT     H134586   7.151   1.319   0.454
11448WAT     H234587   7.192   1.195   0.553
11449WAT      O34588   9.249   3.586   8.740
11449WAT     H134589   9.191   3.517   8.698
11449WAT     H234590   9.257   3.665   8.679
11450WAT      O34591   1.522   1.808   2.979
11450WAT     H134592   1.620   1.787   2.984
11450WAT     H234593   1.502   1.852   2.892
11451WAT      O34594   9.470   8.561   0.291
11451WAT     H134595   9.550   8.606   0.331
11451WAT     H234596   9.390   8.619   0.303
11452WAT      O34597   5.085   6.226   4.409
11452WAT     H134598   5.143   6.150   4.439
11452WAT     H234599   4.996   6.220   4.453
11453WAT      O34600   8.250   8.202   5.208
11453WAT     H134601   8.237   8.152   5.294
11453WAT     H234602   8.336   8.253   5.213
11454WAT      O34603   2.067   5.295   2.624
11454WAT     H134604   1.988   5.352   2.646
11454WAT     H234605   2.039   5.200   2.612
11455WAT      O34606   7.126   2.228   5.246
11455WAT     H134607   7.118   2.326   5.268
11455WAT     H234608   7.110   2.216   5.148
11456WAT      O34609   4.092   0.818   8.973
11456WAT     H134610   4.171   0.861   8.928
11456WAT     H234611   4.011   0.875   8.958
11457WAT      O34612   3.042   8.674   5.525
11457WAT     H134613   3.094   8.698   5.443
11457WAT     H234614   2.977   8.747   5.546
11458WAT      O34615   9.777   8.917   4.274
11458WAT     H134616   9.763   8.860   4.192
11458WAT     H234617   9.774   9.013   4.248
11459WAT      O34618   2.921   7.746   0.310
11459WAT     H134619   2.841   7.787   0.264
11459WAT     H234620   2.997   7.811   0.309
11460WAT      O34621   0.620   0.019   1.793
11460WAT     H134622   0.533   0.044   1.751
11460WAT     H234623   0.602  -0.030   1.878
11461WAT      O34624   6.504   6.078   5.965
11461WAT     H134625   6.411   6.063   5.933
11461WAT     H234626   6.502   6.117   6.057
11462WAT      O34627   7.213   5.680   2.705
11462WAT     H134628   7.311   5.701   2.700
11462WAT     H234629   7.165   5.756   2.749
11463WAT      O34630   0.955   1.264   5.786
11463WAT     H134631   0.990   1.357   5.790
11463WAT     H234632   0.953   1.225   5.878
11464WAT      O34633   6.155   2.340   7.966
11464WAT     H134634   6.123   2.260   8.018
11464WAT     H234635   6.184   2.411   8.031
11465WAT      O34636   3.240   2.849   6.609
11465WAT     H134637   3.311   2.808   6.553
11465WAT     H234638   3.172   2.893   6.551
11466WAT      O34639   1.024   7.296   9.818
11466WAT     H134640   0.985   7.205   9.834
11466WAT     H234641   1.098   7.288   9.751
11467WAT      O34642   0.840   9.054   8.371
11467WAT     H134643   0.846   9.128   8.437
11467WAT     H234644   0.932   9.026   8.343
11468WAT      O34645   2.520   5.039   9.334
11468WAT     H134646   2.492   4.983   9.255
11468WAT     H234647   2.560   4.980   9.404
11469WAT      O34648   0.823   1.247   9.881
11469WAT     H134649   0.773   1.287   9.804
11469WAT     H234650   0.892   1.311   9.913
11470WAT      O34651   2.227   1.742   3.796
11470WAT     H134652   2.251   1.826   3.844
11470WAT     H234653   2.269   1.741   3.706
11471WAT      O34654   6.617   7.705   0.282
11471WAT     H134655   6.708   7.716   0.242
11471WAT     H234656   6.550   7.695   0.210
11472WAT      O34657   7.366   3.152   9.428
11472WAT     H134658   7.424   3.231   9.411
11472WAT     H234659   7.342   3.108   9.342
11473WAT      O34660   8.494   5.265   8.833
11473WAT     H134661   8.430   5.308   8.768
11473WAT     H234662   8.537   5.336   8.888
11474WAT      O34663   1.902   6.527   1.745
11474WAT     H134664   1.918   6.464   1.821
11474WAT     H234665   1.903   6.621   1.779
11475WAT      O34666   5.432   2.316   9.764
11475WAT     H134667   5.449   2.223   9.730
11475WAT     H234668   5.414   2.312   9.863
11476WAT      O34669   2.639   5.668   5.462
11476WAT     H134670   2.604   5.648   5.554
11476WAT     H234671   2.670   5.583   5.419
11477WAT      O34672   5.617   0.176   7.657
11477WAT     H134673   5.607   0.265   7.612
11477WAT     H234674   5.675   0.187   7.738
11478WAT      O34675   3.124   7.194   6.184
11478WAT     H134676   3.189   7.121   6.165
11478WAT     H234677   3.125   7.216   6.282
11479WAT      O34678   4.933   7.448   1.134
11479WAT     H134679   4.942   7.533   1.185
11479WAT     H234680   4.836   7.431   1.115
11480WAT      O34681   3.412   4.998   8.926
11480WAT     H134682   3.470   4.918   8.945
11480WAT     H234683   3.444   5.042   8.842
11481WAT      O34684   6.974   4.481   9.010
11481WAT     H134685   7.063   4.498   9.052
11481WAT     H234686   6.911   4.555   9.034
11482WAT      O34687   7.340   7.165   5.555
11482WAT     H134688   7.253   7.197   5.518
11482WAT     H234689   7.410   7.166   5.484
11483WAT      O34690   2.134   0.253   4.447
11483WAT     H134691   2.118   0.347   4.475
11483WAT     H234692   2.226   0.244   4.409
11484WAT      O34693   3.340   6.476   5.800
11484WAT     H134694   3.277   6.519   5.735
11484WAT     H234695   3.390   6.547   5.850
11485WAT      O34696   7.306   5.379   9.351
11485WAT     H134697   7.274   5.471   9.376
11485WAT     H234698   7.227   5.323   9.325
11486WAT      O34699   8.883   7.471   9.216
11486WAT     H134700   8.809   7.410   9.244
11486WAT     H234701   8.858   7.519   9.132
11487WAT      O34702   1.240   8.413   1.602
11487WAT     H134703   1.265   8.397   1.697
11487WAT     H234704   1.323   8.419   1.546
11488WAT      O34705   3.600   7.982   7.038
11488WAT     H134706   3.698   7.991   7.056
11488WAT     H234707   3.584   7.976   6.939
11489WAT      O34708   6.034   1.860   4.802
11489WAT     H134709   6.030   1.943   4.747
11489WAT     H234710   6.127   1.824   4.803
11490WAT      O34711   0.779   0.061   0.980
11490WAT     H134712   0.864   0.037   1.026
11490WAT     H234713   0.775   0.017   0.891
11491WAT      O34714   7.874   3.024   9.784
11491WAT     H134715   7.912   2.937   9.750
11491WAT     H234716   7.779   3.032   9.756
11492WAT      O34717   8.441   3.709   8.818
11492WAT     H134718   8.438   3.633   8.753
11492WAT     H234719   8.524   3.702   8.874
11493WAT      O34720   3.219   6.403   0.436
11493WAT     H134721   3.306   6.356   0.417
11493WAT     H234722   3.213   6.424   0.533
11494WAT      O34723   2.779   3.413   1.336
11494WAT     H134724   2.783   3.493   1.276
11494WAT     H234725   2.684   3.393   1.357
11495WAT      O34726   4.324   3.517   7.838
11495WAT     H134727   4.229   3.500   7.865
11495WAT     H234728   4.380   3.532   7.919
11496WAT      O34729   0.132   4.893   1.363
11496WAT     H134730   0.113   4.876   1.266
11496WAT     H234731   0.061   4.952   1.401
11497WAT      O34732   3.000   8.124   2.330
11497WAT     H134733   2.915   8.072   2.340
11497WAT     H234734   3.068   8.091   2.395
11498WAT      O34735   4.987   6.607   9.118
11498WAT     H134736   5.071   6.554   9.114
11498WAT     H234737   4.998   6.691   9.064
11499WAT      O34738   5.776   3.626   1.156
11499WAT     H134739   5.867   3.599   1.125
11499WAT     H234740   5.712   3.621   1.079
11500WAT      O34741   1.599   0.399   0.568
11500WAT     H134742   1.614   0.403   0.667
11500WAT     H234743   1.678   0.438   0.521
11501WAT      O34744   2.417   5.467   4.923
11501WAT     H134745   2.371   5.432   5.004
11501WAT     H234746   2.499   5.413   4.904
11502WAT      O34747   5.580   0.337   5.622
11502WAT     H134748   5.661   0.292   5.584
11502WAT     H234749   5.588   0.342   5.722
11503WAT      O34750   6.813   1.698   0.555
11503WAT     H134751   6.843   1.746   0.637
11503WAT     H234752   6.857   1.608   0.551
11504WAT      O34753   5.995   7.501   7.589
11504WAT     H134754   6.084   7.455   7.591
11504WAT     H234755   6.007   7.595   7.557
11505WAT      O34756   4.112   7.684   8.308
11505WAT     H134757   4.021   7.674   8.269
11505WAT     H234758   4.165   7.750   8.254
11506WAT      O34759   9.587   8.464   9.556
11506WAT     H134760   9.626   8.519   9.483
11506WAT     H234761   9.530   8.392   9.517
11507WAT      O34762   7.698   0.989   7.794
11507WAT     H134763   7.681   1.006   7.891
11507WAT     H234764   7.621   1.023   7.740
11508WAT      O34765   0.055   0.356   3.366
11508WAT     H134766   0.108   0.280   3.329
11508WAT     H234767   0.112   0.409   3.428
11509WAT      O34768   9.311   1.423   2.811
11509WAT     H134769   9.350   1.513   2.793
11509WAT     H234770   9.307   1.408   2.910
11510WAT      O34771   2.838   2.339   4.482
11510WAT     H134772   2.769   2.394   4.529
11510WAT     H234773   2.812   2.243   4.485
11511WAT      O34774   4.574   5.069   5.753
11511WAT     H134775   4.617   5.055   5.843
11511WAT     H234776   4.639   5.115   5.692
11512WAT      O34777   5.020   5.881   5.769
11512WAT     H134778   4.994   5.874   5.865
11512WAT     H234779   4.994   5.798   5.721
11513WAT      O34780   4.549   0.316   9.415
11513WAT     H134781   4.557   0.368   9.501
11513WAT     H234782   4.630   0.331   9.359
11514WAT      O34783   7.847   7.267   9.290
11514WAT     H134784   7.822   7.360   9.264
11514WAT     H234785   7.893   7.222   9.214
11515WAT      O34786   3.582   3.630   7.150
11515WAT     H134787   3.642   3.550   7.137
11515WAT     H234788   3.528   3.645   7.067
11516WAT      O34789   1.949   2.838   6.812
11516WAT     H134790   2.009   2.803   6.883
11516WAT     H234791   1.871   2.777   6.800
11517WAT      O34792   3.685   2.009   1.794
11517WAT     H134793   3.674   1.985   1.697
11517WAT     H234794   3.619   1.957   1.849
11518WAT      O34795   6.840   2.261   4.059
11518WAT     H134796   6.916   2.289   4.118
11518WAT     H234797   6.769   2.217   4.115
11519WAT      O34798   4.146   7.436   9.536
11519WAT     H134799   4.137   7.489   9.451
11519WAT     H234800   4.231   7.462   9.582
11520WAT      O34801   2.733   3.605   7.071
11520WAT     H134802   2.786   3.603   6.987
11520WAT     H234803   2.662   3.534   7.068
11521WAT      O34804   2.933   5.324   1.503
11521WAT     H134805   2.936   5.344   1.405
11521WAT     H234806   3.026   5.317   1.539
11522WAT      O34807   8.529   3.715   9.639
11522WAT     H134808   8.606   3.657   9.612
11522WAT     H234809   8.532   3.730   9.738
11523WAT      O34810   4.557   8.544   5.724
11523WAT     H134811   4.639   8.493   5.698
11523WAT     H234812   4.543   8.619   5.660
11524WAT      O34813   9.075   3.062   3.691
11524WAT     H134814   9.100   2.969   3.667
11524WAT     H234815   9.006   3.060   3.763
11525WAT      O34816   2.226   7.802   6.532
11525WAT     H134817   2.178   7.817   6.618
11525WAT     H234818   2.255   7.889   6.494
11526WAT      O34819   2.233   6.089   7.382
11526WAT     H134820   2.241   6.183   7.349
11526WAT     H234821   2.145   6.076   7.427
11527WAT      O34822   7.964   6.242   5.491
11527WAT     H134823   8.010   6.183   5.558
11527WAT     H234824   7.888   6.193   5.450
11528WAT      O34825   8.810   3.668   2.071
11528WAT     H134826   8.862   3.617   2.002
11528WAT     H234827   8.740   3.723   2.026
11529WAT      O34828   1.359   7.063   5.951
11529WAT     H134829   1.402   7.143   5.911
11529WAT     H234830   1.323   7.086   6.042
11530WAT      O34831   1.513   6.178   3.716
11530WAT     H134832   1.565   6.146   3.636
11530WAT     H234833   1.497   6.276   3.708
11531WAT      O34834   2.638   6.615   3.375
11531WAT     H134835   2.702   6.589   3.448
11531WAT     H234836   2.664   6.704   3.338
11532WAT      O34837   6.624   0.324   1.526
11532WAT     H134838   6.598   0.261   1.452
11532WAT     H234839   6.661   0.408   1.486
11533WAT      O34840   8.043   5.101   1.289
11533WAT     H134841   8.075   5.180   1.341
11533WAT     H234842   8.086   5.018   1.325
11534WAT      O34843   1.909   5.090   2.555
11534WAT     H134844   1.863   5.050   2.634
11534WAT     H234845   1.840   5.132   2.495
11535WAT      O34846   8.803   1.496   6.835
11535WAT     H134847   8.716   1.461   6.870
11535WAT     H234848   8.851   1.547   6.907
11536WAT      O34849   3.338   6.594   7.406
11536WAT     H134850   3.338   6.669   7.472
11536WAT     H234851   3.432   6.566   7.386
11537WAT      O34852   7.380   9.052   4.861
11537WAT     H134853   7.290   9.009   4.861
11537WAT     H234854   7.385   9.118   4.787
11538WAT      O34855   5.753   2.246   9.702
11538WAT     H134856   5.713   2.327   9.746
11538WAT     H234857   5.824   2.274   9.638
11539WAT      O34858   1.945   1.658   7.850
11539WAT     H134859   1.917   1.750   7.876
11539WAT     H234860   2.044   1.648   7.864
11540WAT      O34861   0.352   6.692   9.134
11540WAT     H134862   0.326   6.658   9.225
11540WAT     H234863   0.452   6.691   9.126
11541WAT      O34864   7.213   3.263   8.772
11541WAT     H134865   7.212   3.192   8.843
11541WAT     H234866   7.123   3.269   8.730
11542WAT      O34867   9.645   1.140   9.118
11542WAT     H134868   9.594   1.147   9.204
11542WAT     H234869   9.709   1.064   9.123
11543WAT      O34870   9.182   1.452   2.194
11543WAT     H134871   9.103   1.418   2.245
11543WAT     H234872   9.208   1.385   2.124
11544WAT      O34873   6.308   3.138   2.329
11544WAT     H134874   6.234   3.200   2.301
11544WAT     H234875   6.298   3.115   2.426
11545WAT      O34876   8.076   0.136   3.308
11545WAT     H134877   7.980   0.159   3.324
11545WAT     H234878   8.101   0.161   3.215
11546WAT      O34879   0.480   1.343   1.606
11546WAT     H134880   0.410   1.377   1.544
11546WAT     H234881   0.482   1.399   1.689
11547WAT      O34882   6.000   0.637   0.857
11547WAT     H134883   5.949   0.582   0.791
11547WAT     H234884   6.015   0.584   0.940
11548WAT      O34885   5.210   2.706   6.006
11548WAT     H134886   5.125   2.656   6.023
11548WAT     H234887   5.245   2.744   6.091
11549WAT      O34888   0.833   8.074   4.566
11549WAT     H134889   0.789   8.108   4.649
11549WAT     H234890   0.763   8.035   4.505
11550WAT      O34891   9.716   4.147   2.450
11550WAT     H134892   9.725   4.049   2.431
11550WAT     H234893   9.687   4.160   2.545
11551WAT      O34894   3.488   6.538   1.423
11551WAT     H134895   3.517   6.546   1.327
11551WAT     H234896   3.530   6.611   1.477
11552WAT      O34897   8.435   3.776   1.313
11552WAT     H134898   8.520   3.818   1.343
11552WAT     H234899   8.449   3.728   1.227
11553WAT      O34900   6.797   9.344   5.016
11553WAT     H134901   6.824   9.295   4.933
11553WAT     H234902   6.877   9.388   5.056
11554WAT      O34903   1.853   6.282   4.446
11554WAT     H134904   1.804   6.303   4.361
11554WAT     H234905   1.886   6.187   4.442
11555WAT      O34906   1.536   8.991   1.765
11555WAT     H134907   1.487   9.024   1.684
11555WAT     H234908   1.503   8.900   1.789
11556WAT      O34909   5.847   9.258   1.350
11556WAT     H134910   5.806   9.167   1.351
11556WAT     H234911   5.830   9.303   1.437
11557WAT      O34912   1.715   3.944   0.217
11557WAT     H134913   1.759   3.864   0.258
11557WAT     H234914   1.621   3.920   0.191
11558WAT      O34915   5.519   0.691   7.317
11558WAT     H134916   5.432   0.733   7.291
11558WAT     H234917   5.509   0.592   7.319
11559WAT      O34918   7.947   0.534   7.410
11559WAT     H134919   7.983   0.518   7.502
11559WAT     H234920   7.900   0.623   7.408
11560WAT      O34921   3.511   6.582   4.972
11560WAT     H134922   3.468   6.573   4.882
11560WAT     H234923   3.547   6.493   5.000
11561WAT      O34924   1.810   0.272   3.974
11561WAT     H134925   1.793   0.304   3.881
11561WAT     H234926   1.900   0.230   3.979
11562WAT      O34927   4.790   4.965   1.738
11562WAT     H134928   4.742   4.934   1.656
11562WAT     H234929   4.886   4.936   1.734
11563WAT      O34930   8.812   6.462   9.318
11563WAT     H134931   8.741   6.462   9.389
11563WAT     H234932   8.782   6.404   9.242
11564WAT      O34933   8.933   2.137   1.007
11564WAT     H134934   8.861   2.189   0.962
11564WAT     H234935   8.892   2.069   1.068
11565WAT      O34936   2.753   3.802   3.313
11565WAT     H134937   2.679   3.870   3.314
11565WAT     H234938   2.833   3.839   3.358
11566WAT      O34939   6.381   5.728   9.776
11566WAT     H134940   6.403   5.715   9.873
11566WAT     H234941   6.283   5.714   9.761
11567WAT      O34942   8.787   1.425   7.426
11567WAT     H134943   8.770   1.329   7.450
11567WAT     H234944   8.726   1.484   7.479
11568WAT      O34945   7.880   3.520   7.009
11568WAT     H134946   7.927   3.437   7.039
11568WAT     H234947   7.947   3.593   6.994
11569WAT      O34948   1.454   4.858   7.202
11569WAT     H134949   1.480   4.785   7.264
11569WAT     H234950   1.386   4.917   7.245
11570WAT      O34951   0.221   9.604   5.010
11570WAT     H134952   0.176   9.686   4.973
11570WAT     H234953   0.161   9.525   4.997
11571WAT      O34954   8.887   6.988   7.280
11571WAT     H134955   8.848   6.997   7.372
11571WAT     H234956   8.903   7.078   7.241
11572WAT      O34957   0.054   4.993   9.454
11572WAT     H134958  -0.027   4.944   9.420
11572WAT     H234959   0.127   4.986   9.387
11573WAT      O34960   2.001   2.201   8.201
11573WAT     H134961   2.091   2.166   8.172
11573WAT     H234962   2.012   2.293   8.239
11574WAT      O34963   9.626   2.587   3.672
11574WAT     H134964   9.583   2.589   3.582
11574WAT     H234965   9.622   2.495   3.709
11575WAT      O34966   7.233   4.872   0.664
11575WAT     H134967   7.149   4.863   0.610
11575WAT     H234968   7.214   4.921   0.749
11576WAT      O34969   8.541   3.818   0.010
11576WAT     H134970   8.628   3.844   0.053
11576WAT     H234971   8.491   3.757   0.071
11577WAT      O34972   3.586   1.414   0.932
11577WAT     H134973   3.657   1.441   0.997
11577WAT     H234974   3.512   1.368   0.980
11578WAT      O34975   5.667   1.231   2.121
11578WAT     H134976   5.572   1.250   2.095
11578WAT     H234977   5.669   1.165   2.196
11579WAT      O34978   3.079   6.069   7.708
11579WAT     H134979   3.019   6.000   7.747
11579WAT     H234980   3.164   6.027   7.677
11580WAT      O34981   2.384   1.031   4.428
11580WAT     H134982   2.331   1.112   4.401
11580WAT     H234983   2.458   1.017   4.363
11581WAT      O34984   4.175   7.485   8.482
11581WAT     H134985   4.086   7.444   8.461
11581WAT     H234986   4.189   7.565   8.423
11582WAT      O34987   5.664   4.645   0.424
11582WAT     H134988   5.581   4.698   0.412
11582WAT     H234989   5.641   4.547   0.427
11583WAT      O34990   8.594   0.936   4.091
11583WAT     H134991   8.597   0.922   3.992
11583WAT     H234992   8.506   0.976   4.117
11584WAT      O34993   8.793   7.859   1.143
11584WAT     H134994   8.701   7.819   1.152
11584WAT     H234995   8.858   7.806   1.197
11585WAT      O34996   8.774   1.358   0.743
11585WAT     H134997   8.729   1.385   0.658
11585WAT     H234998   8.867   1.395   0.745
11586WAT      O34999   6.027   4.834   2.343
11586WAT     H135000   5.938   4.878   2.341
11586WAT     H235001   6.083   4.867   2.267
11587WAT      O35002   8.264   4.480   3.867
11587WAT     H135003   8.287   4.490   3.770
11587WAT     H235004   8.343   4.506   3.923
11588WAT      O35005   9.785   3.030   7.778
11588WAT     H135006   9.796   2.944   7.827
11588WAT     H235007   9.851   3.096   7.812
11589WAT      O35008   2.099   4.067   0.530
11589WAT     H135009   2.053   3.990   0.486
11589WAT     H235010   2.102   4.144   0.467
11590WAT      O35011   7.085   9.205   9.066
11590WAT     H135012   7.021   9.154   9.009
11590WAT     H235013   7.164   9.147   9.088
11591WAT      O35014   2.986   0.937   4.054
11591WAT     H135015   3.025   0.848   4.077
11591WAT     H235016   3.035   0.976   3.976
11592WAT      O35017   7.717   7.265   8.617
11592WAT     H135018   7.662   7.261   8.701
11592WAT     H235019   7.721   7.175   8.575
11593WAT      O35020   2.379   8.338   9.805
11593WAT     H135021   2.294   8.312   9.760
11593WAT     H235022   2.438   8.258   9.814
11594WAT      O35023   9.408   4.848   5.758
11594WAT     H135024   9.461   4.889   5.832
11594WAT     H235025   9.339   4.913   5.726
11595WAT      O35026   2.452   1.340   1.252
11595WAT     H135027   2.445   1.401   1.173
11595WAT     H235028   2.544   1.301   1.255
11596WAT      O35029   1.130   7.167   3.354
11596WAT     H135030   1.049   7.203   3.306
11596WAT     H235031   1.159   7.082   3.310
11597WAT      O35032   5.368   3.040   1.010
11597WAT     H135033   5.343   2.943   1.004
11597WAT     H235034   5.408   3.069   0.923
11598WAT      O35035   5.481   9.306   7.777
11598WAT     H135036   5.395   9.351   7.751
11598WAT     H235037   5.491   9.310   7.876
11599WAT      O35038   8.456   2.946   3.052
11599WAT     H135039   8.470   2.893   2.968
11599WAT     H235040   8.418   3.036   3.028
11600WAT      O35041   3.790   8.850   8.848
11600WAT     H135042   3.819   8.875   8.941
11600WAT     H235043   3.799   8.929   8.788
11601WAT      O35044   7.767   3.343   8.145
11601WAT     H135045   7.679   3.300   8.163
11601WAT     H235046   7.754   3.429   8.096
11602WAT      O35047   6.793   5.164   9.474
11602WAT     H135048   6.745   5.091   9.426
11602WAT     H235049   6.755   5.175   9.566
11603WAT      O35050   5.150   5.473   5.046
11603WAT     H135051   5.163   5.388   5.097
11603WAT     H235052   5.066   5.517   5.077
11604WAT      O35053   1.892   1.472   8.827
11604WAT     H135054   1.836   1.527   8.889
11604WAT     H235055   1.940   1.401   8.879
11605WAT      O35056   1.598   0.659   6.150
11605WAT     H135057   1.568   0.672   6.056
11605WAT     H235058   1.697   0.644   6.152
11606WAT      O35059   4.874   0.721   4.589
11606WAT     H135060   4.963   0.766   4.591
11606WAT     H235061   4.864   0.671   4.503
11607WAT      O35062   1.324   8.670   4.243
11607WAT     H135063   1.273   8.722   4.175
11607WAT     H235064   1.310   8.710   4.333
11608WAT      O35065   3.670   9.711   3.032
11608WAT     H135066   3.707   9.766   3.107
11608WAT     H235067   3.689   9.614   3.049
11609WAT      O35068   7.671   5.348   8.948
11609WAT     H135069   7.592   5.408   8.944
11609WAT     H235070   7.752   5.397   8.917
11610WAT      O35071   9.834   1.363   4.184
11610WAT     H135072   9.825   1.288   4.249
11610WAT     H235073   9.817   1.330   4.091
11611WAT      O35074   4.922   0.466   3.582
11611WAT     H135075   4.987   0.542   3.582
11611WAT     H235076   4.959   0.392   3.526
11612WAT      O35077   1.775   1.394   3.423
11612WAT     H135078   1.694   1.344   3.453
11612WAT     H235079   1.857   1.348   3.456
11613WAT      O35080   9.748   1.992   7.973
11613WAT     H135081   9.674   1.982   7.907
11613WAT     H235082   9.718   1.957   8.062
11614WAT      O35083   8.426   0.623   0.384
11614WAT     H135084   8.431   0.574   0.471
11614WAT     H235085   8.349   0.687   0.386
11615WAT      O35086   1.766   5.052   2.797
11615WAT     H135087   1.695   5.116   2.827
11615WAT     H235088   1.727   4.960   2.788
11616WAT      O35089   2.973   8.102   6.212
11616WAT     H135090   3.020   8.184   6.244
11616WAT     H235091   2.900   8.127   6.149
11617WAT      O35092   9.833   6.603   7.333
11617WAT     H135093   9.932   6.606   7.320
11617WAT     H235094   9.812   6.587   7.429
11618WAT      O35095   0.834   3.762   7.595
11618WAT     H135096   0.777   3.681   7.601
11618WAT     H235097   0.871   3.784   7.686
11619WAT      O35098   9.548   4.868   7.272
11619WAT     H135099   9.626   4.882   7.334
11619WAT     H235100   9.475   4.821   7.321
11620WAT      O35101   7.605   1.853   7.216
11620WAT     H135102   7.567   1.923   7.276
11620WAT     H235103   7.639   1.777   7.272
11621WAT      O35104   7.413   1.119   4.495
11621WAT     H135105   7.489   1.181   4.517
11621WAT     H235106   7.370   1.088   4.579
11622WAT      O35107   0.273   2.342   8.112
11622WAT     H135108   0.216   2.260   8.114
11622WAT     H235109   0.218   2.421   8.141
11623WAT      O35110   5.957   6.192   2.796
11623WAT     H135111   5.959   6.098   2.829
11623WAT     H235112   6.049   6.232   2.804
11624WAT      O35113   2.245   3.604   2.214
11624WAT     H135114   2.183   3.682   2.212
11624WAT     H235115   2.193   3.520   2.230
11625WAT      O35116   7.156   6.861   0.564
11625WAT     H135117   7.130   6.955   0.544
11625WAT     H235118   7.128   6.802   0.488
11626WAT      O35119   0.423   6.424   8.571
11626WAT     H135120   0.489   6.463   8.506
11626WAT     H235121   0.392   6.335   8.537
11627WAT      O35122   5.638   2.498   1.743
11627WAT     H135123   5.715   2.519   1.682
11627WAT     H235124   5.641   2.559   1.822
11628WAT      O35125   8.231   8.794   9.752
11628WAT     H135126   8.152   8.855   9.755
11628WAT     H235127   8.298   8.823   9.820
11629WAT      O35128   1.972   5.311   7.952
11629WAT     H135129   1.965   5.380   7.880
11629WAT     H235130   1.992   5.222   7.912
11630WAT      O35131   7.569   4.955   5.647
11630WAT     H135132   7.535   4.908   5.728
11630WAT     H235133   7.665   4.980   5.661
11631WAT      O35134   0.675   5.750   0.532
11631WAT     H135135   0.723   5.681   0.478
11631WAT     H235136   0.592   5.778   0.483
11632WAT      O35137   0.536   7.916   9.717
11632WAT     H135138   0.472   7.890   9.790
11632WAT     H235139   0.611   7.970   9.755
11633WAT      O35140   8.123   7.866   5.757
11633WAT     H135141   8.042   7.843   5.704
11633WAT     H235142   8.098   7.923   5.835
11634WAT      O35143   9.813   6.731   6.638
11634WAT     H135144   9.836   6.820   6.677
11634WAT     H235145   9.855   6.723   6.548
11635WAT      O35146   6.139   4.713   1.115
11635WAT     H135147   6.212   4.758   1.168
11635WAT     H235148   6.127   4.761   1.028
11636WAT      O35149   9.851   9.167   1.131
11636WAT     H135150   9.876   9.253   1.086
11636WAT     H235151   9.934   9.122   1.163
11637WAT      O35152   8.557   5.209   6.032
11637WAT     H135153   8.506   5.129   6.062
11637WAT     H235154   8.577   5.202   5.935
11638WAT      O35155   9.174   0.215   4.598
11638WAT     H135156   9.260   0.209   4.546
11638WAT     H235157   9.097   0.218   4.534
11639WAT      O35158   2.878   8.316   4.785
11639WAT     H135159   2.821   8.369   4.848
11639WAT     H235160   2.946   8.375   4.743
11640WAT      O35161   8.620   2.564   3.819
11640WAT     H135162   8.653   2.476   3.854
11640WAT     H235163   8.524   2.577   3.846
11641WAT      O35164   9.435   2.941   4.109
11641WAT     H135165   9.394   3.032   4.111
11641WAT     H235166   9.403   2.891   4.029
11642WAT      O35167   5.163   4.083   3.386
11642WAT     H135168   5.169   3.997   3.336
11642WAT     H235169   5.093   4.141   3.343
11643WAT      O35170   5.066   2.066   2.984
11643WAT     H135171   5.111   1.986   2.944
11643WAT     H235172   4.976   2.040   3.019
11644WAT      O35173   0.505   9.576   9.371
11644WAT     H135174   0.475   9.651   9.313
11644WAT     H235175   0.577   9.607   9.433
11645WAT      O35176   5.952   4.254   0.576
11645WAT     H135177   5.979   4.343   0.540
11645WAT     H235178   5.958   4.186   0.503
11646WAT      O35179   0.055   3.318   6.342
11646WAT     H135180  -0.034   3.316   6.296
11646WAT     H235181   0.066   3.234   6.395
11647WAT      O35182   2.092   2.182   9.288
11647WAT     H135183   2.008   2.128   9.281
11647WAT     H235184   2.119   2.189   9.384
11648WAT      O35185   1.553   3.852   7.556
11648WAT     H135186   1.550   3.950   7.574
11648WAT     H235187   1.547   3.802   7.643
11649WAT      O35188   5.389   7.908   1.186
11649WAT     H135189   5.355   7.835   1.127
11649WAT     H235190   5.486   7.924   1.167
11650WAT      O35191   0.575   0.989   2.981
11650WAT     H135192   0.489   0.987   3.033
11650WAT     H235193   0.586   0.901   2.934
11651WAT      O35194   7.466   4.373   3.076
11651WAT     H135195   7.437   4.315   3.152
11651WAT     H235196   7.563   4.394   3.086
11652WAT      O35197   6.464   8.260   3.347
11652WAT     H135198   6.551   8.293   3.310
11652WAT     H235199   6.481   8.208   3.431
11653WAT      O35200   2.599   3.264   6.080
11653WAT     H135201   2.669   3.331   6.060
11653WAT     H235202   2.596   3.195   6.007
11654WAT      O35203   2.348   6.536   1.839
11654WAT     H135204   2.257   6.567   1.812
11654WAT     H235205   2.344   6.499   1.932
11655WAT      O35206   1.544   2.199   2.173
11655WAT     H135207   1.495   2.278   2.209
11655WAT     H235208   1.479   2.140   2.124
11656WAT      O35209   9.394   3.903   9.880
11656WAT     H135210   9.434   3.951   9.958
11656WAT     H235211   9.322   3.959   9.840
11657WAT      O35212   1.282   9.023   0.879
11657WAT     H135213   1.216   9.086   0.921
11657WAT     H235214   1.363   9.074   0.850
11658WAT      O35215   5.752   0.147   4.082
11658WAT     H135216   5.700   0.069   4.047
11658WAT     H235217   5.708   0.232   4.052
11659WAT      O35218   9.641   9.838   3.114
11659WAT     H135219   9.561   9.874   3.066
11659WAT     H235220   9.645   9.738   3.103
11660WAT      O35221   7.880   9.646   7.400
11660WAT     H135222   7.915   9.641   7.494
11660WAT     H235223   7.873   9.741   7.372
11661WAT      O35224   8.904   8.859   7.234
11661WAT     H135225   8.993   8.860   7.278
11661WAT     H235226   8.874   8.953   7.216
11662WAT      O35227   2.468   5.961   5.632
11662WAT     H135228   2.422   5.885   5.678
11662WAT     H235229   2.542   5.995   5.689
11663WAT      O35230   5.697   8.012   2.640
11663WAT     H135231   5.622   7.946   2.628
11663WAT     H235232   5.663   8.104   2.621
11664WAT      O35233   6.232   7.223   5.486
11664WAT     H135234   6.284   7.179   5.413
11664WAT     H235235   6.145   7.175   5.500
11665WAT      O35236   8.514   6.219   4.463
11665WAT     H135237   8.449   6.266   4.403
11665WAT     H235238   8.496   6.245   4.558
11666WAT      O35239   8.876   0.829   2.794
11666WAT     H135240   8.879   0.917   2.746
11666WAT     H235241   8.967   0.787   2.791
11667WAT      O35242   3.014   6.541   3.757
11667WAT     H135243   3.091   6.588   3.799
11667WAT     H235244   3.040   6.447   3.736
11668WAT      O35245   2.681   9.017   6.772
11668WAT     H135246   2.628   8.963   6.839
11668WAT     H235247   2.779   8.999   6.785
11669WAT      O35248   3.244   1.087   7.982
11669WAT     H135249   3.299   1.170   7.995
11669WAT     H235250   3.243   1.064   7.885
11670WAT      O35251   9.483   3.188   0.558
11670WAT     H135252   9.540   3.214   0.636
11670WAT     H235253   9.404   3.136   0.590
11671WAT      O35254   2.523   4.338   5.728
11671WAT     H135255   2.579   4.256   5.739
11671WAT     H235256   2.495   4.347   5.632
11672WAT      O35257   8.676   2.785   9.385
11672WAT     H135258   8.672   2.754   9.290
11672WAT     H235259   8.588   2.769   9.430
11673WAT      O35260   2.511   4.189   9.786
11673WAT     H135261   2.451   4.236   9.721
11673WAT     H235262   2.578   4.254   9.822
11674WAT      O35263   0.943   4.947   5.012
11674WAT     H135264   1.000   4.865   5.021
11674WAT     H235265   0.934   4.970   4.915
11675WAT      O35266   7.221   0.672   0.115
11675WAT     H135267   7.242   0.670   0.017
11675WAT     H235268   7.266   0.751   0.157
11676WAT      O35269   1.522   8.515   3.725
11676WAT     H135270   1.576   8.468   3.655
11676WAT     H235271   1.563   8.603   3.746
11677WAT      O35272   4.148   1.867   9.870
11677WAT     H135273   4.080   1.887   9.941
11677WAT     H235274   4.108   1.806   9.801
11678WAT      O35275   3.228   6.868   0.029
11678WAT     H135276   3.241   6.795  -0.038
11678WAT     H235277   3.219   6.956  -0.019
11679WAT      O35278   9.085   7.179   4.215
11679WAT     H135279   9.102   7.274   4.187
11679WAT     H235280   8.987   7.162   4.218
11680WAT      O35281   2.784   9.764   0.448
11680WAT     H135282   2.871   9.807   0.426
11680WAT     H235283   2.758   9.702   0.374
11681WAT      O35284   5.810   7.118   9.887
11681WAT     H135285   5.851   7.091   9.801
11681WAT     H235286   5.852   7.203   9.919
11682WAT      O35287   2.283   7.116   5.875
11682WAT     H135288   2.264   7.117   5.973
11682WAT     H235289   2.377   7.087   5.859
11683WAT      O35290   7.539   7.761   9.882
11683WAT     H135291   7.532   7.752   9.981
11683WAT     H235292   7.519   7.855   9.854
11684WAT      O35293   1.520   4.671   7.400
11684WAT     H135294   1.424   4.645   7.414
11684WAT     H235295   1.569   4.665   7.486
11685WAT      O35296   3.085   5.577   5.546
11685WAT     H135297   3.073   5.663   5.497
11685WAT     H235298   3.008   5.564   5.610
11686WAT      O35299   3.424   6.163   2.313
11686WAT     H135300   3.507   6.113   2.336
11686WAT     H235301   3.443   6.261   2.308
11687WAT      O35302   5.837   8.571   3.779
11687WAT     H135303   5.798   8.480   3.793
11687WAT     H235304   5.776   8.640   3.818
11688WAT      O35305   3.113   3.157   7.222
11688WAT     H135306   3.153   3.089   7.284
11688WAT     H235307   3.068   3.228   7.275
11689WAT      O35308   2.094   3.015   8.038
11689WAT     H135309   2.178   2.961   8.036
11689WAT     H235310   2.041   2.996   7.956
11690WAT      O35311   7.001   0.308   7.968
11690WAT     H135312   7.081   0.356   8.004
11690WAT     H235313   6.945   0.276   8.044
11691WAT      O35314   8.415   6.313   2.822
11691WAT     H135315   8.425   6.240   2.753
11691WAT     H235316   8.335   6.369   2.800
11692WAT      O35317   4.067   2.161   0.371
11692WAT     H135318   3.985   2.167   0.315
11692WAT     H235319   4.085   2.250   0.414
11693WAT      O35320   5.362   1.789   5.314
11693WAT     H135321   5.360   1.798   5.214
11693WAT     H235322   5.307   1.862   5.355
11694WAT      O35323   7.139   1.344   6.553
11694WAT     H135324   7.238   1.352   6.558
11694WAT     H235325   7.114   1.288   6.474
11695WAT      O35326   7.691   0.113   1.477
11695WAT     H135327   7.679   0.169   1.395
11695WAT     H235328   7.747   0.034   1.455
11696WAT      O35329   4.627   9.309   3.499
11696WAT     H135330   4.590   9.400   3.482
11696WAT     H235331   4.603   9.280   3.591
11697WAT      O35332   1.330   4.396   4.160
11697WAT     H135333   1.378   4.399   4.071
11697WAT     H235334   1.334   4.486   4.203
11698WAT      O35335   2.920   4.344   5.724
11698WAT     H135336   2.876   4.360   5.636
11698WAT     H235337   2.918   4.428   5.778
11699WAT      O35338   3.617   1.660   8.183
11699WAT     H135339   3.587   1.720   8.109
11699WAT     H235340   3.579   1.693   8.270
11700WAT      O35341   3.090   0.668   5.958
11700WAT     H135342   3.003   0.678   5.910
11700WAT     H235343   3.129   0.578   5.937
11701WAT      O35344   1.923   4.284   5.564
11701WAT     H135345   1.939   4.321   5.655
11701WAT     H235346   2.011   4.271   5.517
11702WAT      O35347   0.964   3.146   5.792
11702WAT     H135348   0.923   3.217   5.734
11702WAT     H235349   0.892   3.092   5.835
11703WAT      O35350   0.174   9.627   4.617
11703WAT     H135351   0.172   9.683   4.700
11703WAT     H235352   0.230   9.673   4.548
11704WAT      O35353   9.847   2.680   1.229
11704WAT     H135354   9.799   2.768   1.235
11704WAT     H235355   9.906   2.670   1.309
11705WAT      O35356   2.727   5.209   4.525
11705WAT     H135357   2.746   5.303   4.555
11705WAT     H235358   2.733   5.147   4.604
11706WAT      O35359   6.735   2.087   7.785
11706WAT     H135360   6.654   2.032   7.806
11706WAT     H235361   6.777   2.053   7.701
11707WAT      O35362   8.909   8.962   6.893
11707WAT     H135363   8.973   8.942   6.819
11707WAT     H235364   8.870   8.877   6.928
11708WAT      O35365   7.447   0.411   3.268
11708WAT     H135366   7.501   0.369   3.195
11708WAT     H235367   7.351   0.382   3.260
11709WAT      O35368   7.493   8.041   1.784
11709WAT     H135369   7.528   7.983   1.710
11709WAT     H235370   7.559   8.044   1.859
11710WAT      O35371   1.748   4.488   5.516
11710WAT     H135372   1.783   4.532   5.433
11710WAT     H235373   1.786   4.396   5.524
11711WAT      O35374   4.042   5.130   9.858
11711WAT     H135375   4.046   5.227   9.831
11711WAT     H235376   4.099   5.117   9.939
11712WAT      O35377   7.609   9.830   3.060
11712WAT     H135378   7.538   9.872   3.004
11712WAT     H235379   7.567   9.772   3.130
11713WAT      O35380   8.652   9.143   9.117
11713WAT     H135381   8.629   9.062   9.062
11713WAT     H235382   8.610   9.224   9.076
11714WAT      O35383   8.870   2.963   7.126
11714WAT     H135384   8.863   2.892   7.197
11714WAT     H235385   8.963   2.963   7.089
11715WAT      O35386   0.547   6.182   8.423
11715WAT     H135387   0.517   6.142   8.337
11715WAT     H235388   0.577   6.277   8.407
11716WAT      O35389   9.568   4.446   1.263
11716WAT     H135390   9.611   4.360   1.234
11716WAT     H235391   9.638   4.508   1.299
11717WAT      O35392   6.066   4.856   1.763
11717WAT     H135393   6.083   4.789   1.691
11717WAT     H235394   6.110   4.943   1.738
11718WAT      O35395   0.121   9.441   9.234
11718WAT     H135396   0.075   9.512   9.289
11718WAT     H235397   0.071   9.427   9.149
11719WAT      O35398   6.992   8.837   6.896
11719WAT     H135399   7.090   8.833   6.874
11719WAT     H235400   6.941   8.786   6.827
11720WAT      O35401   6.521   3.824   4.735
11720WAT     H135402   6.507   3.737   4.782
11720WAT     H235403   6.616   3.854   4.747
11721WAT      O35404   5.965   6.164   0.781
11721WAT     H135405   6.000   6.201   0.867
11721WAT     H235406   5.947   6.066   0.792
11722WAT      O35407   8.253   0.044   0.406
11722WAT     H135408   8.235   0.140   0.426
11722WAT     H235409   8.261   0.032   0.307
11723WAT      O35410   9.149   6.169   8.133
11723WAT     H135411   9.214   6.194   8.204
11723WAT     H235412   9.060   6.210   8.153
11724WAT      O35413   9.840   3.367   5.828
11724WAT     H135414   9.925   3.344   5.877
11724WAT     H235415   9.862   3.428   5.752
11725WAT      O35416   6.247   9.685   2.536
11725WAT     H135417   6.247   9.716   2.631
11725WAT     H235418   6.182   9.610   2.525
11726WAT      O35419   9.455   6.217   9.839
11726WAT     H135420   9.448   6.117   9.842
11726WAT     H235421   9.550   6.244   9.855
11727WAT      O35422   2.236   4.401   5.981
11727WAT     H135423   2.280   4.428   6.066
11727WAT     H235424   2.181   4.477   5.946
11728WAT      O35425   5.152   3.277   3.457
11728WAT     H135426   5.078   3.312   3.515
11728WAT     H235427   5.228   3.246   3.514
11729WAT      O35428   0.805   8.818   9.008
11729WAT     H135429   0.815   8.780   8.916
11729WAT     H235430   0.832   8.915   9.007
11730WAT      O35431   9.364   6.194   6.730
11730WAT     H135432   9.439   6.257   6.711
11730WAT     H235433   9.305   6.188   6.649
11731WAT      O35434   1.576   2.287   4.103
11731WAT     H135435   1.549   2.328   4.190
11731WAT     H235436   1.621   2.199   4.120
11732WAT      O35437   9.257   6.037   5.635
11732WAT     H135438   9.280   6.068   5.727
11732WAT     H235439   9.181   5.972   5.640
11733WAT      O35440   6.087   8.413   6.956
11733WAT     H135441   6.085   8.418   7.056
11733WAT     H235442   6.035   8.333   6.926
11734WAT      O35443   8.189   3.667   8.875
11734WAT     H135444   8.121   3.729   8.836
11734WAT     H235445   8.281   3.706   8.862
11735WAT      O35446   0.949   0.924   7.349
11735WAT     H135447   0.858   0.965   7.336
11735WAT     H235448   0.940   0.836   7.395
11736WAT      O35449   5.287   0.398   5.070
11736WAT     H135450   5.341   0.331   5.019
11736WAT     H235451   5.303   0.387   5.168
11737WAT      O35452   9.777   4.764   7.866
11737WAT     H135453   9.715   4.704   7.816
11737WAT     H235454   9.742   4.858   7.864
11738WAT      O35455   2.823   4.442   7.639
11738WAT     H135456   2.843   4.398   7.551
11738WAT     H235457   2.886   4.518   7.654
11739WAT      O35458   2.224   0.756   1.928
11739WAT     H135459   2.233   0.673   1.984
11739WAT     H235460   2.139   0.752   1.876
11740WAT      O35461   5.549   6.644   6.755
11740WAT     H135462   5.523   6.576   6.823
11740WAT     H235463   5.467   6.683   6.714
11741WAT      O35464   5.666   2.251   6.266
11741WAT     H135465   5.639   2.161   6.232
11741WAT     H235466   5.600   2.281   6.335
11742WAT      O35467   6.410   5.111   2.640
11742WAT     H135468   6.480   5.042   2.659
11742WAT     H235469   6.358   5.084   2.559
11743WAT      O35470   4.818   8.127   6.297
11743WAT     H135471   4.743   8.176   6.341
11743WAT     H235472   4.795   8.111   6.201
11744WAT      O35473   3.298   2.429   5.528
11744WAT     H135474   3.275   2.342   5.483
11744WAT     H235475   3.215   2.486   5.533
11745WAT      O35476   4.954   1.455   1.268
11745WAT     H135477   4.945   1.377   1.206
11745WAT     H235478   5.007   1.527   1.223
11746WAT      O35479   2.782   7.387   2.772
11746WAT     H135480   2.790   7.363   2.675
11746WAT     H235481   2.720   7.465   2.782
11747WAT      O35482   1.183   2.222   4.769
11747WAT     H135483   1.097   2.189   4.810
11747WAT     H235484   1.250   2.238   4.842
11748WAT      O35485   9.601   9.589   6.757
11748WAT     H135486   9.536   9.624   6.689
11748WAT     H235487   9.693   9.588   6.718
11749WAT      O35488   5.679   6.705   7.728
11749WAT     H135489   5.665   6.715   7.630
11749WAT     H235490   5.593   6.722   7.776
11750WAT      O35491   0.187   6.298   2.638
11750WAT     H135492   0.139   6.264   2.719
11750WAT     H235493   0.284   6.275   2.645
11751WAT      O35494   1.721   4.111   3.573
11751WAT     H135495   1.648   4.118   3.641
11751WAT     H235496   1.732   4.016   3.545
11752WAT      O35497   3.734   6.913   8.471
11752WAT     H135498   3.721   6.925   8.373
11752WAT     H235499   3.649   6.880   8.512
11753WAT      O35500   6.550   9.471   3.565
11753WAT     H135501   6.576   9.419   3.646
11753WAT     H235502   6.615   9.546   3.552
11754WAT      O35503   4.142   5.741   1.672
11754WAT     H135504   4.095   5.674   1.615
11754WAT     H235505   4.116   5.727   1.767
11755WAT      O35506   3.213   0.856   4.331
11755WAT     H135507   3.183   0.890   4.421
11755WAT     H235508   3.251   0.932   4.278
11756WAT      O35509   2.147   8.517   3.073
11756WAT     H135510   2.170   8.511   2.976
11756WAT     H235511   2.215   8.574   3.119
11757WAT      O35512   1.695   3.981   8.423
11757WAT     H135513   1.720   3.949   8.332
11757WAT     H235514   1.770   4.036   8.461
11758WAT      O35515   2.839   1.138   3.078
11758WAT     H135516   2.921   1.153   3.133
11758WAT     H235517   2.801   1.047   3.097
11759WAT      O35518   4.892   1.790   2.297
11759WAT     H135519   4.917   1.887   2.304
11759WAT     H235520   4.974   1.735   2.285
11760WAT      O35521   0.782   3.456   9.691
11760WAT     H135522   0.765   3.434   9.595
11760WAT     H235523   0.709   3.417   9.747
11761WAT      O35524   2.990   9.498   6.543
11761WAT     H135525   2.992   9.571   6.611
11761WAT     H235526   2.946   9.417   6.582
11762WAT      O35527   1.050   9.150   7.455
11762WAT     H135528   0.972   9.088   7.459
11762WAT     H235529   1.024   9.239   7.494
11763WAT      O35530   3.153   8.279   8.079
11763WAT     H135531   3.113   8.365   8.046
11763WAT     H235532   3.118   8.203   8.024
11764WAT      O35533   3.662   2.788   7.280
11764WAT     H135534   3.635   2.703   7.234
11764WAT     H235535   3.739   2.771   7.341
11765WAT      O35536   3.740   0.288   2.648
11765WAT     H135537   3.644   0.295   2.675
11765WAT     H235538   3.755   0.202   2.599
11766WAT      O35539   4.735   2.655   4.864
11766WAT     H135540   4.726   2.557   4.876
11766WAT     H235541   4.733   2.677   4.766
11767WAT      O35542   6.441   2.648   6.107
11767WAT     H135543   6.528   2.670   6.064
11767WAT     H235544   6.366   2.685   6.052
11768WAT      O35545   2.413   3.215   0.594
11768WAT     H135546   2.437   3.135   0.649
11768WAT     H235547   2.496   3.263   0.567
11769WAT      O35548   7.775   2.849   0.626
11769WAT     H135549   7.838   2.919   0.590
11769WAT     H235550   7.681   2.874   0.603
11770WAT      O35551   0.076   7.214   7.133
11770WAT     H135552   0.025   7.143   7.085
11770WAT     H235553   0.158   7.174   7.175
11771WAT      O35554   1.819   5.218   6.414
11771WAT     H135555   1.877   5.283   6.366
11771WAT     H235556   1.853   5.203   6.506
11772WAT      O35557   6.817   0.547   8.010
11772WAT     H135558   6.875   0.467   8.022
11772WAT     H235559   6.721   0.517   8.002
11773WAT      O35560   6.965   9.786   3.012
11773WAT     H135561   6.921   9.849   2.948
11773WAT     H235562   7.049   9.750   2.971
11774WAT      O35563   5.493   3.426   8.633
11774WAT     H135564   5.574   3.413   8.576
11774WAT     H235565   5.482   3.523   8.653
11775WAT      O35566   3.195   5.573   7.144
11775WAT     H135567   3.169   5.496   7.202
11775WAT     H235568   3.279   5.550   7.094
11776WAT      O35569   2.402   5.823   9.601
11776WAT     H135570   2.326   5.848   9.661
11776WAT     H235571   2.366   5.791   9.513
11777WAT      O35572   0.475   1.164   4.820
11777WAT     H135573   0.574   1.166   4.831
11777WAT     H235574   0.452   1.156   4.723
11778WAT      O35575   9.708   6.581   2.442
11778WAT     H135576   9.774   6.648   2.474
11778WAT     H235577   9.726   6.493   2.486
11779WAT      O35578   5.683   8.792   2.346
11779WAT     H135579   5.598   8.749   2.377
11779WAT     H235580   5.679   8.807   2.247
11780WAT      O35581   0.222   7.211   8.633
11780WAT     H135582   0.215   7.292   8.574
11780WAT     H235583   0.317   7.178   8.633
11781WAT      O35584   1.260   3.972   8.294
11781WAT     H135585   1.314   4.044   8.251
11781WAT     H235586   1.167   4.005   8.308
11782WAT      O35587   9.250   0.497   5.695
11782WAT     H135588   9.229   0.586   5.656
11782WAT     H235589   9.251   0.428   5.623
11783WAT      O35590   0.827   2.516   7.958
11783WAT     H135591   0.759   2.545   7.891
11783WAT     H235592   0.918   2.520   7.917
11784WAT      O35593   0.023   3.233   5.350
11784WAT     H135594  -0.042   3.171   5.395
11784WAT     H235595   0.011   3.226   5.251
11785WAT      O35596   4.091   6.549   2.597
11785WAT     H135597   4.016   6.502   2.551
11785WAT     H235598   4.099   6.642   2.561
11786WAT      O35599   4.613   6.382   6.313
11786WAT     H135600   4.513   6.388   6.316
11786WAT     H235601   4.639   6.289   6.287
11787WAT      O35602   4.182   1.780   8.269
11787WAT     H135603   4.210   1.719   8.195
11787WAT     H235604   4.260   1.836   8.297
11788WAT      O35605   6.974   3.317   2.706
11788WAT     H135606   7.053   3.298   2.646
11788WAT     H235607   6.890   3.292   2.659
11789WAT      O35608   4.667   2.926   3.216
11789WAT     H135609   4.568   2.925   3.229
11789WAT     H235610   4.690   2.966   3.128
11790WAT      O35611   5.431   4.130   4.733
11790WAT     H135612   5.384   4.216   4.712
11790WAT     H235613   5.479   4.139   4.820
11791WAT      O35614   3.990   5.408   3.171
11791WAT     H135615   3.945   5.415   3.083
11791WAT     H235616   4.089   5.402   3.158
11792WAT      O35617   4.923   1.789   7.656
11792WAT     H135618   4.851   1.797   7.586
11792WAT     H235619   4.881   1.779   7.746
11793WAT      O35620   5.735   5.412   2.437
11793WAT     H135621   5.804   5.484   2.436
11793WAT     H235622   5.673   5.423   2.359
11794WAT      O35623   0.140   0.259   1.087
11794WAT     H135624   0.231   0.300   1.082
11794WAT     H235625   0.073   0.328   1.114
11795WAT      O35626   1.880   1.223   2.645
11795WAT     H135627   1.975   1.193   2.656
11795WAT     H235628   1.836   1.229   2.734
11796WAT      O35629   9.738   8.387   9.148
11796WAT     H135630   9.729   8.290   9.173
11796WAT     H235631   9.648   8.428   9.141
11797WAT      O35632   3.461   0.534   5.288
11797WAT     H135633   3.364   0.520   5.269
11797WAT     H235634   3.514   0.506   5.208
11798WAT      O35635   1.438   3.862   0.113
11798WAT     H135636   1.424   3.957   0.083
11798WAT     H235637   1.382   3.845   0.194
11799WAT      O35638   7.250   6.017   4.501
11799WAT     H135639   7.280   5.945   4.439
11799WAT     H235640   7.324   6.042   4.563
11800WAT      O35641   8.905   1.939   5.839
11800WAT     H135642   8.961   1.860   5.864
11800WAT     H235643   8.913   2.009   5.910
11801WAT      O35644   5.607   4.062   8.447
11801WAT     H135645   5.523   4.047   8.395
11801WAT     H235646   5.654   4.143   8.412
11802WAT      O35647   7.535   8.623   0.645
11802WAT     H135648   7.486   8.706   0.675
11802WAT     H235649   7.554   8.565   0.724
11803WAT      O35650   9.350   8.956   2.608
11803WAT     H135651   9.251   8.944   2.612
11803WAT     H235652   9.372   9.053   2.612
11804WAT      O35653   1.737   3.107   0.499
11804WAT     H135654   1.735   3.047   0.579
11804WAT     H235655   1.651   3.158   0.494
11805WAT      O35656   8.104   5.664   4.516
11805WAT     H135657   8.148   5.742   4.471
11805WAT     H235658   8.162   5.584   4.507
11806WAT      O35659   5.540   3.888   6.099
11806WAT     H135660   5.616   3.949   6.077
11806WAT     H235661   5.560   3.840   6.185
11807WAT      O35662   7.381   4.534   2.640
11807WAT     H135663   7.283   4.550   2.644
11807WAT     H235664   7.412   4.537   2.545
11808WAT      O35665   9.855   5.741   3.726
11808WAT     H135666   9.936   5.780   3.770
11808WAT     H235667   9.860   5.757   3.628
11809WAT      O35668   3.591   9.215   0.542
11809WAT     H135669   3.534   9.143   0.581
11809WAT     H235670   3.598   9.291   0.606
11810WAT      O35671   0.069   1.943   4.449
11810WAT     H135672   0.042   1.861   4.501
11810WAT     H235673   0.006   2.017   4.470
11811WAT      O35674   6.423   9.414   0.380
11811WAT     H135675   6.415   9.512   0.362
11811WAT     H235676   6.334   9.377   0.406
11812WAT      O35677   4.493   1.279   4.865
11812WAT     H135678   4.543   1.254   4.948
11812WAT     H235679   4.487   1.379   4.859
11813WAT      O35680   1.768   4.111   4.505
11813WAT     H135681   1.743   4.082   4.598
11813WAT     H235682   1.708   4.185   4.476
11814WAT      O35683   0.331   8.915   9.337
11814WAT     H135684   0.331   8.833   9.394
11814WAT     H235685   0.412   8.971   9.358
11815WAT      O35686   1.507   5.915   2.470
11815WAT     H135687   1.480   5.937   2.376
11815WAT     H235688   1.565   5.988   2.506
11816WAT      O35689   2.543   2.429   3.751
11816WAT     H135690   2.585   2.446   3.661
11816WAT     H235691   2.463   2.487   3.762
11817WAT      O35692   1.119   2.138   5.954
11817WAT     H135693   1.191   2.136   6.023
11817WAT     H235694   1.160   2.141   5.863
11818WAT      O35695   4.165   1.042   1.203
11818WAT     H135696   4.189   0.945   1.191
11818WAT     H235697   4.150   1.061   1.300
11819WAT      O35698   6.228   0.863   2.893
11819WAT     H135699   6.315   0.888   2.936
11819WAT     H235700   6.167   0.824   2.961
11820WAT      O35701   8.405   6.536   9.398
11820WAT     H135702   8.363   6.452   9.430
11820WAT     H235703   8.444   6.586   9.476
11821WAT      O35704   3.051   2.520   5.516
11821WAT     H135705   3.008   2.488   5.600
11821WAT     H235706   2.981   2.538   5.447
11822WAT      O35707   6.064   0.612   8.909
11822WAT     H135708   6.138   0.593   8.845
11822WAT     H235709   6.101   0.611   9.002
11823WAT      O35710   2.936   2.583   9.036
11823WAT     H135711   2.984   2.631   9.110
11823WAT     H235712   2.979   2.495   9.020
11824WAT      O35713   5.459   6.516   1.172
11824WAT     H135714   5.435   6.454   1.247
11824WAT     H235715   5.399   6.498   1.094
11825WAT      O35716   4.164   2.954   7.647
11825WAT     H135717   4.142   2.990   7.557
11825WAT     H235718   4.174   2.855   7.642
11826WAT      O35719   6.545   0.712   0.769
11826WAT     H135720   6.568   0.766   0.849
11826WAT     H235721   6.611   0.637   0.759
11827WAT      O35722   0.583   8.935   6.814
11827WAT     H135723   0.609   8.990   6.893
11827WAT     H235724   0.560   8.996   6.738
11828WAT      O35725   7.937   8.915   1.942
11828WAT     H135726   7.913   8.936   1.847
11828WAT     H235727   7.900   8.986   2.002
11829WAT      O35728   0.033   8.794   2.767
11829WAT     H135729   0.133   8.786   2.761
11829WAT     H235730  -0.004   8.819   2.678
11830WAT      O35731   5.694   5.897   4.343
11830WAT     H135732   5.629   5.970   4.365
11830WAT     H235733   5.649   5.808   4.357
11831WAT      O35734   8.431   4.370   7.505
11831WAT     H135735   8.401   4.461   7.476
11831WAT     H235736   8.354   4.306   7.498
11832WAT      O35737   9.390   3.165   6.430
11832WAT     H135738   9.349   3.182   6.340
11832WAT     H235739   9.489   3.167   6.423
11833WAT      O35740   9.868   1.065   7.276
11833WAT     H135741   9.826   1.101   7.359
11833WAT     H235742   9.873   1.137   7.207
11834WAT      O35743   1.876   0.615   1.681
11834WAT     H135744   1.861   0.535   1.623
11834WAT     H235745   1.925   0.588   1.764
11835WAT      O35746   0.785   6.960   8.428
11835WAT     H135747   0.728   7.039   8.406
11835WAT     H235748   0.816   6.916   8.344
11836WAT      O35749   8.781   3.600   9.607
11836WAT     H135750   8.787   3.593   9.706
11836WAT     H235751   8.851   3.664   9.574
11837WAT      O35752   1.885   0.900   8.721
11837WAT     H135753   1.836   0.818   8.691
11837WAT     H235754   1.821   0.961   8.769
11838WAT      O35755   2.218   2.877   4.766
11838WAT     H135756   2.314   2.869   4.792
11838WAT     H235757   2.190   2.973   4.771
11839WAT      O35758   4.464   2.422   3.113
11839WAT     H135759   4.398   2.412   3.187
11839WAT     H235760   4.432   2.371   3.033
11840WAT      O35761   5.310   0.086   4.981
11840WAT     H135762   5.379   0.080   5.053
11840WAT     H235763   5.299  -0.003   4.939
11841WAT      O35764   1.086   4.692   8.932
11841WAT     H135765   0.991   4.671   8.906
11841WAT     H235766   1.129   4.746   8.861
11842WAT      O35767   7.685   5.008   0.828
11842WAT     H135768   7.709   4.954   0.908
11842WAT     H235769   7.631   5.087   0.856
11843WAT      O35770   5.985   6.709   6.161
11843WAT     H135771   6.069   6.749   6.199
11843WAT     H235772   5.906   6.750   6.205
11844WAT      O35773   9.178   3.343   7.229
11844WAT     H135774   9.246   3.306   7.165
11844WAT     H235775   9.217   3.345   7.321
11845WAT      O35776   0.720   8.115   9.051
11845WAT     H135777   0.690   8.051   8.980
11845WAT     H235778   0.806   8.157   9.022
11846WAT      O35779   1.312   5.085   2.432
11846WAT     H135780   1.391   5.036   2.395
11846WAT     H235781   1.294   5.055   2.526
11847WAT      O35782   7.574   4.257   1.347
11847WAT     H135783   7.669   4.239   1.375
11847WAT     H235784   7.538   4.335   1.397
11848WAT      O35785   2.584   7.993   8.181
11848WAT     H135786   2.597   8.082   8.138
11848WAT     H235787   2.556   8.006   8.276
11849WAT      O35788   1.634   6.910   0.392
11849WAT     H135789   1.640   6.977   0.318
11849WAT     H235790   1.555   6.850   0.376
11850WAT      O35791   4.316   4.130   2.252
11850WAT     H135792   4.239   4.120   2.315
11850WAT     H235793   4.352   4.223   2.258
11851WAT      O35794   3.859   1.076   3.213
11851WAT     H135795   3.911   0.991   3.210
11851WAT     H235796   3.786   1.068   3.281
11852WAT      O35797   0.612   0.748   8.406
11852WAT     H135798   0.678   0.684   8.369
11852WAT     H235799   0.563   0.793   8.331
11853WAT      O35800   5.681   2.494   9.307
11853WAT     H135801   5.615   2.557   9.348
11853WAT     H235802   5.663   2.487   9.209
11854WAT      O35803   7.560   2.631   3.855
11854WAT     H135804   7.567   2.547   3.802
11854WAT     H235805   7.520   2.612   3.945
11855WAT      O35806   2.149   8.873   5.361
11855WAT     H135807   2.154   8.967   5.327
11855WAT     H235808   2.056   8.855   5.396
11856WAT      O35809   0.376   8.613   6.617
11856WAT     H135810   0.321   8.569   6.688
11856WAT     H235811   0.415   8.543   6.557
11857WAT      O35812   1.319   9.012   1.487
11857WAT     H135813   1.273   8.930   1.522
11857WAT     H235814   1.251   9.076   1.452
11858WAT      O35815   1.618   4.117   6.645
11858WAT     H135816   1.616   4.017   6.635
11858WAT     H235817   1.545   4.157   6.589
11859WAT      O35818   0.717   8.802   8.460
11859WAT     H135819   0.762   8.886   8.429
11859WAT     H235820   0.713   8.737   8.385
11860WAT      O35821   0.043   0.764   0.641
11860WAT     H135822   0.047   0.790   0.738
11860WAT     H235823  -0.052   0.747   0.616
11861WAT      O35824   4.108   0.918   5.355
11861WAT     H135825   4.098   1.015   5.380
11861WAT     H235826   4.188   0.907   5.296
11862WAT      O35827   0.768   8.213   0.579
11862WAT     H135828   0.702   8.151   0.539
11862WAT     H235829   0.726   8.263   0.655
11863WAT      O35830   9.640   3.554   4.142
11863WAT     H135831   9.688   3.469   4.120
11863WAT     H235832   9.689   3.601   4.215
11864WAT      O35833   1.693   4.843   3.108
11864WAT     H135834   1.718   4.831   3.012
11864WAT     H235835   1.685   4.753   3.151
11865WAT      O35836   0.312   8.398   8.731
11865WAT     H135837   0.224   8.443   8.717
11865WAT     H235838   0.354   8.432   8.815
11866WAT      O35839   6.493   0.014   1.624
11866WAT     H135840   6.567   0.017   1.557
11866WAT     H235841   6.408  -0.016   1.580
11867WAT      O35842   6.096   0.907   3.693
11867WAT     H135843   6.031   0.833   3.676
11867WAT     H235844   6.189   0.873   3.679
11868WAT      O35845   1.045   6.725   1.064
11868WAT     H135846   1.083   6.633   1.074
11868WAT     H235847   1.048   6.753   0.968
11869WAT      O35848   8.967   6.903   3.474
11869WAT     H135849   8.943   6.999   3.490
11869WAT     H235850   8.906   6.865   3.404
11870WAT      O35851   4.757   5.098   8.614
11870WAT     H135852   4.822   5.175   8.615
11870WAT     H235853   4.665   5.132   8.635
11871WAT      O35854   2.458   8.220   1.306
11871WAT     H135855   2.493   8.126   1.311
11871WAT     H235856   2.486   8.261   1.219
11872WAT      O35857   1.500   8.637   5.626
11872WAT     H135858   1.420   8.676   5.672
11872WAT     H235859   1.583   8.666   5.673
11873WAT      O35860   3.294   3.092   3.970
11873WAT     H135861   3.258   3.115   4.061
11873WAT     H235862   3.220   3.059   3.912
11874WAT      O35863   8.891   3.102   9.779
11874WAT     H135864   8.833   3.041   9.725
11874WAT     H235865   8.953   3.048   9.836
11875WAT      O35866   5.740   0.863   5.416
11875WAT     H135867   5.713   0.815   5.333
11875WAT     H235868   5.670   0.930   5.440
11876WAT      O35869   6.157   8.808   0.376
11876WAT     H135870   6.070   8.765   0.402
11876WAT     H235871   6.172   8.889   0.434
11877WAT      O35872   6.022   6.349   8.358
11877WAT     H135873   5.971   6.410   8.419
11877WAT     H235874   6.002   6.373   8.263
11878WAT      O35875   6.937   0.622   4.877
11878WAT     H135876   7.000   0.599   4.803
11878WAT     H235877   6.843   0.613   4.845
11879WAT      O35878   4.472   8.277   8.502
11879WAT     H135879   4.571   8.268   8.486
11879WAT     H235880   4.422   8.227   8.432
11880WAT      O35881   3.929   2.196   1.526
11880WAT     H135882   4.019   2.229   1.500
11880WAT     H235883   3.938   2.130   1.601
11881WAT      O35884   7.708   9.656   2.070
11881WAT     H135885   7.666   9.668   1.980
11881WAT     H235886   7.639   9.669   2.141
11882WAT      O35887   8.458   7.079   1.008
11882WAT     H135888   8.528   7.012   0.984
11882WAT     H235889   8.502   7.166   1.030
11883WAT      O35890   0.366   2.664   2.095
11883WAT     H135891   0.419   2.693   2.174
11883WAT     H235892   0.290   2.605   2.125
11884WAT      O35893   9.421   5.820   3.647
11884WAT     H135894   9.330   5.838   3.686
11884WAT     H235895   9.477   5.902   3.655
11885WAT      O35896   6.282   9.819   2.318
11885WAT     H135897   6.270   9.765   2.401
11885WAT     H235898   6.222   9.783   2.246
11886WAT      O35899   8.429   6.114   3.998
11886WAT     H135900   8.331   6.117   4.016
11886WAT     H235901   8.475   6.189   4.046
11887WAT      O35902   3.490   0.166   4.664
11887WAT     H135903   3.416   0.099   4.669
11887WAT     H235904   3.545   0.149   4.582
11888WAT      O35905   2.568   5.240   8.252
11888WAT     H135906   2.509   5.312   8.217
11888WAT     H235907   2.526   5.151   8.234
11889WAT      O35908   6.007   8.356   9.521
11889WAT     H135909   6.047   8.324   9.435
11889WAT     H235910   5.980   8.452   9.511
11890WAT      O35911   0.720   5.499   0.196
11890WAT     H135912   0.731   5.401   0.179
11890WAT     H235913   0.640   5.533   0.147
11891WAT      O35914   1.402   8.757   7.218
11891WAT     H135915   1.484   8.771   7.273
11891WAT     H235916   1.393   8.660   7.195
11892WAT      O35917   4.060   7.829   2.401
11892WAT     H135918   4.069   7.780   2.487
11892WAT     H235919   4.042   7.764   2.327
11893WAT      O35920   7.862   8.670   4.949
11893WAT     H135921   7.906   8.750   4.990
11893WAT     H235922   7.881   8.668   4.851
11894WAT      O35923   8.000   3.024   0.904
11894WAT     H135924   7.926   3.056   0.963
11894WAT     H235925   8.027   3.097   0.841
11895WAT      O35926   8.660   6.341   1.389
11895WAT     H135927   8.697   6.285   1.463
11895WAT     H235928   8.602   6.413   1.427
11896WAT      O35929   9.667   1.440   1.735
11896WAT     H135930   9.594   1.480   1.680
11896WAT     H235931   9.634   1.429   1.829
11897WAT      O35932   2.199   8.692   6.414
11897WAT     H135933   2.275   8.628   6.407
11897WAT     H235934   2.139   8.665   6.489
11898WAT      O35935   3.008   0.420   0.007
11898WAT     H135936   2.937   0.415   0.078
11898WAT     H235937   3.073   0.345   0.020
11899WAT      O35938   3.471   0.069   3.079
11899WAT     H135939   3.538  -0.005   3.072
11899WAT     H235940   3.472   0.106   3.172
11900WAT      O35941   0.261   7.567   3.552
11900WAT     H135942   0.319   7.510   3.611
11900WAT     H235943   0.265   7.534   3.458
11901WAT      O35944   4.874   3.398   9.441
11901WAT     H135945   4.933   3.319   9.459
11901WAT     H235946   4.916   3.456   9.371
11902WAT      O35947   5.085   5.116   9.684
11902WAT     H135948   5.128   5.199   9.719
11902WAT     H235949   4.987   5.133   9.669
11903WAT      O35950   8.557   7.402   1.947
11903WAT     H135951   8.640   7.347   1.957
11903WAT     H235952   8.486   7.367   2.008
11904WAT      O35953   1.377   1.954   7.327
11904WAT     H135954   1.379   2.017   7.405
11904WAT     H235955   1.408   2.003   7.245
11905WAT      O35956   4.485   2.335   6.222
11905WAT     H135957   4.579   2.302   6.231
11905WAT     H235958   4.453   2.369   6.311
11906WAT      O35959   1.126   9.391   6.426
11906WAT     H135960   1.202   9.398   6.361
11906WAT     H235961   1.139   9.458   6.499
11907WAT      O35962   8.174   4.181   6.859
11907WAT     H135963   8.252   4.158   6.801
11907WAT     H235964   8.205   4.197   6.952
11908WAT      O35965   2.076   6.324   4.957
11908WAT     H135966   2.048   6.304   4.863
11908WAT     H235967   2.114   6.241   4.999
11909WAT      O35968   5.581   7.353   3.505
11909WAT     H135969   5.612   7.283   3.569
11909WAT     H235970   5.655   7.377   3.443
11910WAT      O35971   9.523   1.903   8.946
11910WAT     H135972   9.528   1.805   8.964
11910WAT     H235973   9.615   1.940   8.930
11911WAT      O35974   4.065   3.675   1.976
11911WAT     H135975   4.139   3.615   2.006
11911WAT     H235976   4.011   3.627   1.907
11912WAT      O35977   0.616   8.650   0.724
11912WAT     H135978   0.695   8.653   0.663
11912WAT     H235979   0.533   8.671   0.672
11913WAT      O35980   7.368   5.676   3.036
11913WAT     H135981   7.333   5.770   3.043
11913WAT     H235982   7.292   5.614   3.019
11914WAT      O35983   9.339   9.270   7.298
11914WAT     H135984   9.389   9.355   7.288
11914WAT     H235985   9.277   9.258   7.220
11915WAT      O35986   1.323   7.390   2.963
11915WAT     H135987   1.417   7.365   2.984
11915WAT     H235988   1.262   7.314   2.987
11916WAT      O35989   1.235   9.299   9.255
11916WAT     H135990   1.274   9.391   9.254
11916WAT     H235991   1.262   9.252   9.339
11917WAT      O35992   9.396   3.097   7.269
11917WAT     H135993   9.360   3.151   7.193
11917WAT     H235994   9.449   3.157   7.330
11918WAT      O35995   5.301   0.992   6.978
11918WAT     H135996   5.399   0.987   6.998
11918WAT     H235997   5.281   0.941   6.893
11919WAT      O35998   6.700   1.182   8.172
11919WAT     H135999   6.741   1.265   8.134
11919WAT     H236000   6.701   1.110   8.104
11920WAT      O36001   3.924   6.592   4.111
11920WAT     H136002   3.905   6.575   4.014
11920WAT     H236003   3.854   6.548   4.167
11921WAT      O36004   4.671   4.594   9.365
11921WAT     H136005   4.759   4.634   9.340
11921WAT     H236006   4.672   4.496   9.346
11922WAT      O36007   3.330   1.168   5.471
11922WAT     H136008   3.358   1.258   5.439
11922WAT     H236009   3.254   1.178   5.535
11923WAT      O36010   1.092   9.482   1.097
11923WAT     H136011   1.041   9.510   1.179
11923WAT     H236012   1.164   9.548   1.079
11924WAT      O36013   1.744   7.119   1.484
11924WAT     H136014   1.839   7.135   1.511
11924WAT     H236015   1.700   7.206   1.462
11925WAT      O36016   8.211   5.820   5.838
11925WAT     H136017   8.285   5.858   5.782
11925WAT     H236018   8.241   5.818   5.934
11926WAT      O36019   7.100   2.358   2.696
11926WAT     H136020   7.154   2.405   2.626
11926WAT     H236021   7.120   2.260   2.693
11927WAT      O36022   8.797   0.132   2.854
11927WAT     H136023   8.810   0.231   2.857
11927WAT     H236024   8.859   0.088   2.919
11928WAT      O36025   7.796   1.857   5.599
11928WAT     H136026   7.757   1.858   5.691
11928WAT     H236027   7.729   1.818   5.535
11929WAT      O36028   6.217   3.262   4.142
11929WAT     H136029   6.200   3.338   4.205
11929WAT     H236030   6.249   3.298   4.054
11930WAT      O36031   5.444   6.464   8.793
11930WAT     H136032   5.359   6.514   8.813
11930WAT     H236033   5.486   6.433   8.878
11931WAT      O36034   8.989   8.782   5.312
11931WAT     H136035   9.041   8.864   5.334
11931WAT     H236036   8.892   8.798   5.332
11932WAT      O36037   7.960   8.258   0.009
11932WAT     H136038   7.931   8.175   0.057
11932WAT     H236039   7.880   8.307  -0.024
11933WAT      O36040   7.617   1.850   1.548
11933WAT     H136041   7.586   1.758   1.574
11933WAT     H236042   7.683   1.843   1.474
11934WAT      O36043   8.281   7.786   5.016
11934WAT     H136044   8.350   7.733   4.966
11934WAT     H236045   8.207   7.725   5.046
11935WAT      O36046   3.191   1.880   8.188
11935WAT     H136047   3.101   1.923   8.190
11935WAT     H236048   3.260   1.944   8.220
11936WAT      O36049   1.592   8.218   1.493
11936WAT     H136050   1.612   8.224   1.591
11936WAT     H236051   1.565   8.308   1.459
11937WAT      O36052   5.102   4.526   1.089
11937WAT     H136053   5.134   4.539   0.995
11937WAT     H236054   5.124   4.607   1.143
11938WAT      O36055   0.804   4.485   5.387
11938WAT     H136056   0.901   4.466   5.402
11938WAT     H236057   0.762   4.515   5.473
11939WAT      O36058   0.529   7.199   7.966
11939WAT     H136059   0.522   7.212   7.867
11939WAT     H236060   0.602   7.256   8.002
11940WAT      O36061   3.078   4.219   3.083
11940WAT     H136062   3.071   4.233   2.984
11940WAT     H236063   3.087   4.122   3.102
11941WAT      O36064   2.126   7.237   9.012
11941WAT     H136065   2.095   7.312   9.070
11941WAT     H236066   2.048   7.190   8.972
11942WAT      O36067   9.044   1.520   0.031
11942WAT     H136068   8.971   1.586   0.017
11942WAT     H236069   9.130   1.558  -0.001
11943WAT      O36070   8.138   6.454   1.048
11943WAT     H136071   8.060   6.405   1.010
11943WAT     H236072   8.217   6.392   1.052
11944WAT      O36073   3.632   0.209   7.934
11944WAT     H136074   3.587   0.292   7.967
11944WAT     H236075   3.731   0.222   7.939
11945WAT      O36076   8.333   9.478   1.826
11945WAT     H136077   8.359   9.391   1.784
11945WAT     H236078   8.241   9.470   1.866
11946WAT      O36079   5.102   0.905   4.603
11946WAT     H136080   5.161   0.933   4.679
11946WAT     H236081   5.101   0.977   4.533
11947WAT      O36082   6.398   2.484   5.383
11947WAT     H136083   6.490   2.484   5.343
11947WAT     H236084   6.366   2.390   5.393
11948WAT      O36085   5.020   8.526   5.821
11948WAT     H136086   4.928   8.516   5.859
11948WAT     H236087   5.064   8.437   5.817
11949WAT      O36088   5.620   1.165   5.945
11949WAT     H136089   5.620   1.190   6.041
11949WAT     H236090   5.619   1.065   5.936
11950WAT      O36091   2.076   4.494   3.925
11950WAT     H136092   2.001   4.452   3.975
11950WAT     H236093   2.116   4.568   3.980
11951WAT      O36094   0.459   3.850   4.446
11951WAT     H136095   0.441   3.752   4.457
11951WAT     H236096   0.548   3.862   4.402
11952WAT      O36097   3.206   7.349   5.421
11952WAT     H136098   3.113   7.339   5.385
11952WAT     H236099   3.204   7.346   5.521
11953WAT      O36100   1.007   8.779   8.103
11953WAT     H136101   0.981   8.832   8.022
11953WAT     H236102   1.078   8.829   8.154
11954WAT      O36103   1.364   6.798   5.143
11954WAT     H136104   1.298   6.867   5.113
11954WAT     H236105   1.366   6.795   5.243
11955WAT      O36106   3.565   6.724   4.432
11955WAT     H136107   3.510   6.784   4.491
11955WAT     H236108   3.596   6.645   4.485
11956WAT      O36109   5.627   3.150   7.682
11956WAT     H136110   5.647   3.080   7.751
11956WAT     H236111   5.662   3.238   7.714
11957WAT      O36112   5.605   7.316   5.115
11957WAT     H136113   5.563   7.242   5.062
11957WAT     H236114   5.653   7.278   5.194
11958WAT      O36115   6.983   6.652   9.056
11958WAT     H136116   7.081   6.655   9.040
11958WAT     H236117   6.964   6.608   9.144
11959WAT      O36118   7.386   9.102   4.038
11959WAT     H136119   7.483   9.108   4.059
11959WAT     H236120   7.365   9.164   3.963
11960WAT      O36121   2.821   5.648   0.406
11960WAT     H136122   2.813   5.652   0.307
11960WAT     H236123   2.886   5.578   0.433
11961WAT      O36124   6.458   9.015   5.342
11961WAT     H136125   6.551   9.030   5.374
11961WAT     H236126   6.436   8.917   5.346
11962WAT      O36127   6.981   0.041   8.256
11962WAT     H136128   7.050  -0.024   8.288
11962WAT     H236129   6.899  -0.010   8.228
11963WAT      O36130   9.220   9.742   9.508
11963WAT     H136131   9.310   9.765   9.544
11963WAT     H236132   9.214   9.644   9.494
11964WAT      O36133   0.048   4.764   5.994
11964WAT     H136134   0.113   4.820   5.942
11964WAT     H236135  -0.045   4.796   5.976
11965WAT      O36136   0.067   7.431   7.745
11965WAT     H136137   0.033   7.488   7.670
11965WAT     H236138  -0.006   7.416   7.812
11966WAT      O36139   1.046   0.928   4.948
11966WAT     H136140   0.951   0.919   4.976
11966WAT     H236141   1.051   0.945   4.850
11967WAT      O36142   4.601   1.153   4.403
11967WAT     H136143   4.520   1.210   4.390
11967WAT     H236144   4.587   1.094   4.483
11968WAT      O36145   1.918   1.925   5.074
11968WAT     H136146   1.830   1.961   5.041
11968WAT     H236147   1.909   1.900   5.170
11969WAT      O36148   1.631   0.188   3.236
11969WAT     H136149   1.611   0.131   3.315
11969WAT     H236150   1.727   0.174   3.209
11970WAT      O36151   6.452   2.979   8.351
11970WAT     H136152   6.410   2.910   8.410
11970WAT     H236153   6.535   3.013   8.394
11971WAT      O36154   1.109   9.740   9.358
11971WAT     H136155   1.160   9.658   9.329
11971WAT     H236156   1.133   9.762   9.452
11972WAT      O36157   5.502   3.333   6.889
11972WAT     H136158   5.413   3.338   6.844
11972WAT     H236159   5.562   3.273   6.836
11973WAT      O36160   0.230   1.499   0.982
11973WAT     H136161   0.211   1.521   1.078
11973WAT     H236162   0.157   1.442   0.945
11974WAT      O36163   4.367   6.556   4.384
11974WAT     H136164   4.432   6.480   4.380
11974WAT     H236165   4.287   6.534   4.328
11975WAT      O36166   9.808   2.673   0.157
11975WAT     H136167   9.798   2.765   0.195
11975WAT     H236168   9.904   2.647   0.158
11976WAT      O36169   1.718   7.076   0.948
11976WAT     H136170   1.731   7.096   0.851
11976WAT     H236171   1.625   7.101   0.974
11977WAT      O36172   5.279   0.436   9.508
11977WAT     H136173   5.348   0.381   9.462
11977WAT     H236174   5.303   0.533   9.501
11978WAT      O36175   7.283   2.483   2.938
11978WAT     H136176   7.223   2.426   2.882
11978WAT     H236177   7.353   2.426   2.981
11979WAT      O36178   5.163   5.449   8.802
11979WAT     H136179   5.136   5.451   8.898
11979WAT     H236180   5.156   5.355   8.767
11980WAT      O36181   3.058   6.969   4.950
11980WAT     H136182   2.998   6.938   5.024
11980WAT     H236183   3.007   7.029   4.889
11981WAT      O36184   9.641   0.974   4.567
11981WAT     H136185   9.649   0.936   4.659
11981WAT     H236186   9.545   0.987   4.543
11982WAT      O36187   9.661   4.342   8.345
11982WAT     H136188   9.670   4.375   8.439
11982WAT     H236189   9.722   4.395   8.286
11983WAT      O36190   1.832   1.544   8.388
11983WAT     H136191   1.890   1.471   8.423
11983WAT     H236192   1.888   1.624   8.364
11984WAT      O36193   8.245   5.252   5.589
11984WAT     H136194   8.300   5.234   5.507
11984WAT     H236195   8.290   5.320   5.646
11985WAT      O36196   6.801   5.730   5.419
11985WAT     H136197   6.851   5.659   5.470
11985WAT     H236198   6.705   5.703   5.409
11986WAT      O36199   6.692   0.910   5.164
11986WAT     H136200   6.766   0.939   5.103
11986WAT     H236201   6.725   0.911   5.258
11987WAT      O36202   0.362   5.160   2.476
11987WAT     H136203   0.296   5.144   2.548
11987WAT     H236204   0.377   5.076   2.424
11988WAT      O36205   2.082   0.578   0.036
11988WAT     H136206   2.139   0.513   0.086
11988WAT     H236207   1.987   0.549   0.038
11989WAT      O36208   8.177   4.421   0.932
11989WAT     H136209   8.250   4.363   0.895
11989WAT     H236210   8.121   4.457   0.858
11990WAT      O36211   2.337   4.488   7.611
11990WAT     H136212   2.263   4.464   7.548
11990WAT     H236213   2.423   4.494   7.561
11991WAT      O36214   8.405   7.215   0.403
11991WAT     H136215   8.354   7.200   0.487
11991WAT     H236216   8.440   7.309   0.402
11992WAT      O36217   0.240   3.514   7.969
11992WAT     H136218   0.250   3.437   8.032
11992WAT     H236219   0.276   3.489   7.879
11993WAT      O36220   3.056   8.665   2.279
11993WAT     H136221   3.028   8.750   2.324
11993WAT     H236222   2.996   8.590   2.307
11994WAT      O36223   8.134   8.711   7.725
11994WAT     H136224   8.114   8.748   7.815
11994WAT     H236225   8.054   8.723   7.666
11995WAT      O36226   7.376   2.336   6.201
11995WAT     H136227   7.344   2.242   6.187
11995WAT     H236228   7.388   2.353   6.298
11996WAT      O36229   2.619   5.103   6.076
11996WAT     H136230   2.705   5.063   6.107
11996WAT     H236231   2.571   5.143   6.154
11997WAT      O36232   1.230   6.361   2.503
11997WAT     H136233   1.243   6.439   2.442
11997WAT     H236234   1.186   6.286   2.453
11998WAT      O36235   8.363   1.541   2.498
11998WAT     H136236   8.326   1.511   2.411
11998WAT     H236237   8.421   1.469   2.537
11999WAT      O36238   4.413   2.711   5.416
11999WAT     H136239   4.500   2.714   5.366
11999WAT     H236240   4.385   2.804   5.440
12000WAT      O36241   9.849   8.660   6.674
12000WAT     H136242   9.919   8.596   6.642
12000WAT     H236243   9.877   8.754   6.652
12001WAT      O36244   3.478   0.917   2.521
12001WAT     H136245   3.476   0.860   2.603
12001WAT     H236246   3.494   0.859   2.441
12002WAT      O36247   7.109   5.539   3.048
12002WAT     H136248   7.149   5.503   3.133
12002WAT     H236249   7.067   5.463   2.997
12003WAT      O36250   6.739   7.052   9.662
12003WAT     H136251   6.666   6.992   9.696
12003WAT     H236252   6.801   7.074   9.738
12004WAT      O36253   7.673   8.149   6.133
12004WAT     H136254   7.738   8.076   6.113
12004WAT     H236255   7.587   8.132   6.084
12005WAT      O36256   0.796   4.648   0.295
12005WAT     H136257   0.735   4.701   0.353
12005WAT     H236258   0.763   4.650   0.201
12006WAT      O36259   6.536   6.806   2.789
12006WAT     H136260   6.574   6.755   2.712
12006WAT     H236261   6.609   6.862   2.830
12007WAT      O36262   5.851   6.140   0.122
12007WAT     H136263   5.897   6.181   0.044
12007WAT     H236264   5.832   6.210   0.190
12008WAT      O36265   8.153   8.495   5.608
12008WAT     H136266   8.128   8.468   5.515
12008WAT     H236267   8.077   8.544   5.651
12009WAT      O36268   7.147   7.456   1.458
12009WAT     H136269   7.142   7.555   1.443
12009WAT     H236270   7.225   7.420   1.407
12010WAT      O36271   3.920   6.078   8.161
12010WAT     H136272   3.970   6.049   8.080
12010WAT     H236273   3.954   6.028   8.241
12011WAT      O36274   9.415   0.963   6.011
12011WAT     H136275   9.433   0.927   5.919
12011WAT     H236276   9.370   0.893   6.065
12012WAT      O36277   4.447   8.441   7.255
12012WAT     H136278   4.478   8.350   7.282
12012WAT     H236279   4.348   8.439   7.239
12013WAT      O36280   5.886   6.519   4.369
12013WAT     H136281   5.919   6.598   4.420
12013WAT     H236282   5.953   6.493   4.300
12014WAT      O36283   0.442   4.728   6.841
12014WAT     H136284   0.408   4.675   6.919
12014WAT     H236285   0.530   4.691   6.811
12015WAT      O36286   8.776   5.809   3.630
12015WAT     H136287   8.730   5.758   3.557
12015WAT     H236288   8.822   5.745   3.691
12016WAT      O36289   0.620   3.312   8.548
12016WAT     H136290   0.585   3.236   8.603
12016WAT     H236291   0.606   3.398   8.596
12017WAT      O36292   6.641   0.367   2.248
12017WAT     H136293   6.669   0.314   2.168
12017WAT     H236294   6.572   0.315   2.299
12018WAT      O36295   6.155   2.560   0.282
12018WAT     H136296   6.083   2.492   0.264
12018WAT     H236297   6.244   2.517   0.268
12019WAT      O36298   7.352   3.505   1.122
12019WAT     H136299   7.324   3.413   1.095
12019WAT     H236300   7.390   3.553   1.043
12020WAT      O36301   2.405   4.724   9.203
12020WAT     H136302   2.389   4.625   9.200
12020WAT     H236303   2.325   4.771   9.166
12021WAT      O36304   3.465   8.315   5.046
12021WAT     H136305   3.479   8.311   5.145
12021WAT     H236306   3.531   8.256   5.001
12022WAT      O36307   5.307   7.087   7.910
12022WAT     H136308   5.371   7.068   7.836
12022WAT     H236309   5.280   7.002   7.954
12023WAT      O36310   7.415   3.715   8.189
12023WAT     H136311   7.462   3.769   8.119
12023WAT     H236312   7.319   3.745   8.194
12024WAT      O36313   0.645   6.412   2.782
12024WAT     H136314   0.655   6.497   2.731
12024WAT     H236315   0.689   6.421   2.871
12025WAT      O36316   9.367   1.657   6.960
12025WAT     H136317   9.380   1.574   6.907
12025WAT     H236318   9.375   1.737   6.899
12026WAT      O36319   6.529   7.746   9.881
12026WAT     H136320   6.597   7.819   9.868
12026WAT     H236321   6.523   7.691   9.798
12027WAT      O36322   7.808   6.068   5.873
12027WAT     H136323   7.780   6.003   5.803
12027WAT     H236324   7.904   6.094   5.858
12028WAT      O36325   1.970   2.223   4.074
12028WAT     H136326   1.913   2.177   4.006
12028WAT     H236327   2.001   2.156   4.142
12029WAT      O36328   4.737   3.019   7.674
12029WAT     H136329   4.715   3.070   7.757
12029WAT     H236330   4.836   3.026   7.656
12030WAT      O36331   1.592   2.552   8.812
12030WAT     H136332   1.659   2.520   8.879
12030WAT     H236333   1.621   2.640   8.775
12031WAT      O36334   4.360   3.951   7.838
12031WAT     H136335   4.334   3.887   7.909
12031WAT     H236336   4.458   3.970   7.844
12032WAT      O36337   9.416   0.900   3.962
12032WAT     H136338   9.496   0.877   4.017
12032WAT     H236339   9.430   0.989   3.918
12033WAT      O36340   3.493   2.656   3.467
12033WAT     H136341   3.573   2.706   3.499
12033WAT     H236342   3.491   2.565   3.510
12034WAT      O36343   0.617   1.587   0.653
12034WAT     H136344   0.587   1.496   0.624
12034WAT     H236345   0.646   1.639   0.573
12035WAT      O36346   5.499   4.055   7.910
12035WAT     H136347   5.585   4.023   7.870
12035WAT     H236348   5.511   4.148   7.943
12036WAT      O36349   7.425   3.652   8.446
12036WAT     H136350   7.396   3.557   8.453
12036WAT     H236351   7.460   3.670   8.354
12037WAT      O36352   8.170   8.624   0.068
12037WAT     H136353   8.184   8.645  -0.029
12037WAT     H236354   8.074   8.601   0.084
12038WAT      O36355   1.978   0.671   5.297
12038WAT     H136356   2.024   0.747   5.344
12038WAT     H236357   2.044   0.599   5.276
12039WAT      O36358   5.652   4.928   2.871
12039WAT     H136359   5.558   4.919   2.839
12039WAT     H236360   5.658   4.906   2.968
12040WAT      O36361   0.953   7.077   7.194
12040WAT     H136362   0.933   7.082   7.292
12040WAT     H236363   0.869   7.088   7.142
12041WAT      O36364   7.542   9.396   5.557
12041WAT     H136365   7.608   9.342   5.608
12041WAT     H236366   7.584   9.429   5.472
12042WAT      O36367   6.350   9.531   1.626
12042WAT     H136368   6.420   9.529   1.554
12042WAT     H236369   6.390   9.565   1.711
12043WAT      O36370   1.130   8.275   5.867
12043WAT     H136371   1.224   8.253   5.840
12043WAT     H236372   1.067   8.210   5.825
12044WAT      O36373   4.311   8.439   2.265
12044WAT     H136374   4.341   8.511   2.328
12044WAT     H236375   4.215   8.418   2.281
12045WAT      O36376   1.632   6.188   9.304
12045WAT     H136377   1.566   6.118   9.332
12045WAT     H236378   1.698   6.148   9.240
12046WAT      O36379   4.030   1.419   7.182
12046WAT     H136380   3.974   1.343   7.217
12046WAT     H236381   4.110   1.383   7.134
12047WAT      O36382   2.734   1.078   6.948
12047WAT     H136383   2.741   1.160   6.891
12047WAT     H236384   2.791   1.089   7.029
12048WAT      O36385   4.493   2.485   3.634
12048WAT     H136386   4.590   2.504   3.618
12048WAT     H236387   4.459   2.426   3.560
12049WAT      O36388   8.794   9.203   6.909
12049WAT     H136389   8.759   9.236   6.821
12049WAT     H236390   8.831   9.111   6.898
12050WAT      O36391   3.933   1.613   4.023
12050WAT     H136392   3.945   1.624   3.924
12050WAT     H236393   4.014   1.569   4.062
12051WAT      O36394   7.238   4.532   8.735
12051WAT     H136395   7.315   4.588   8.764
12051WAT     H236396   7.230   4.453   8.796
12052WAT      O36397   7.749   6.632   7.824
12052WAT     H136398   7.718   6.537   7.824
12052WAT     H236399   7.849   6.634   7.818
12053WAT      O36400   1.491   7.605   3.193
12053WAT     H136401   1.551   7.574   3.267
12053WAT     H236402   1.409   7.647   3.231
12054WAT      O36403   4.564   3.168   5.760
12054WAT     H136404   4.653   3.209   5.739
12054WAT     H236405   4.564   3.135   5.854
12055WAT      O36406   2.593   9.263   6.709
12055WAT     H136407   2.577   9.312   6.795
12055WAT     H236408   2.630   9.172   6.728
12056WAT      O36409   4.947   5.681   4.583
12056WAT     H136410   4.883   5.604   4.587
12056WAT     H236411   4.940   5.724   4.493
12057WAT      O36412   7.301   7.789   6.921
12057WAT     H136413   7.319   7.702   6.875
12057WAT     H236414   7.388   7.833   6.945
12058WAT      O36415   1.006   1.231   4.452
12058WAT     H136416   1.075   1.201   4.518
12058WAT     H236417   0.970   1.321   4.478
12059WAT      O36418   2.099   3.678   7.982
12059WAT     H136419   2.016   3.678   7.926
12059WAT     H236420   2.082   3.729   8.066
12060WAT      O36421   3.044   9.316   9.764
12060WAT     H136422   3.024   9.220   9.741
12060WAT     H236423   3.114   9.351   9.702
12061WAT      O36424   1.322   3.176   6.619
12061WAT     H136425   1.273   3.154   6.703
12061WAT     H236426   1.326   3.275   6.608
12062WAT      O36427   2.181   5.179   8.687
12062WAT     H136428   2.238   5.163   8.768
12062WAT     H236429   2.115   5.104   8.678
12063WAT      O36430   8.206   7.509   5.901
12063WAT     H136431   8.109   7.497   5.880
12063WAT     H236432   8.256   7.427   5.873
12064WAT      O36433   7.502   4.358   6.785
12064WAT     H136434   7.503   4.452   6.818
12064WAT     H236435   7.580   4.308   6.822
12065WAT      O36436   5.399   2.199   3.476
12065WAT     H136437   5.433   2.247   3.395
12065WAT     H236438   5.469   2.134   3.507
12066WAT      O36439   3.180   2.243   4.712
12066WAT     H136440   3.191   2.339   4.739
12066WAT     H236441   3.105   2.235   4.646
12067WAT      O36442   5.857   2.921   7.005
12067WAT     H136443   5.942   2.871   6.987
12067WAT     H236444   5.808   2.878   7.081
12068WAT      O36445   2.854   5.066   1.255
12068WAT     H136446   2.910   5.008   1.314
12068WAT     H236447   2.762   5.026   1.247
12069WAT      O36448   5.899   0.343   0.216
12069WAT     H136449   5.806   0.308   0.222
12069WAT     H236450   5.963   0.267   0.212
12070WAT      O36451   0.811   9.698   2.109
12070WAT     H136452   0.811   9.654   2.019
12070WAT     H236453   0.807   9.797   2.097
12071WAT      O36454   9.175   9.748   7.076
12071WAT     H136455   9.222   9.690   7.011
12071WAT     H236456   9.131   9.824   7.028
12072WAT      O36457   6.566   9.019   1.797
12072WAT     H136458   6.468   9.005   1.784
12072WAT     H236459   6.594   8.983   1.886
12073WAT      O36460   1.103   8.294   9.560
12073WAT     H136461   1.122   8.392   9.563
12073WAT     H236462   1.177   8.244   9.604
12074WAT      O36463   0.536   2.126   8.766
12074WAT     H136464   0.567   2.046   8.713
12074WAT     H236465   0.588   2.132   8.851
12075WAT      O36466   7.593   7.276   8.135
12075WAT     H136467   7.557   7.328   8.213
12075WAT     H236468   7.679   7.233   8.161
12076WAT      O36469   8.103   5.539   0.096
12076WAT     H136470   8.060   5.549   0.186
12076WAT     H236471   8.161   5.618   0.077
12077WAT      O36472   0.885   6.999   0.761
12077WAT     H136473   0.797   7.021   0.720
12077WAT     H236474   0.884   7.026   0.858
12078WAT      O36475   6.411   4.059   2.565
12078WAT     H136476   6.393   3.979   2.508
12078WAT     H236477   6.432   4.138   2.508
12079WAT      O36478   0.209   6.332   2.225
12079WAT     H136479   0.140   6.269   2.260
12079WAT     H236480   0.214   6.325   2.125
12080WAT      O36481   5.400   7.252   3.313
12080WAT     H136482   5.434   7.161   3.291
12080WAT     H236483   5.468   7.301   3.368
12081WAT      O36484   1.684   4.522   7.233
12081WAT     H136485   1.667   4.595   7.299
12081WAT     H236486   1.610   4.520   7.165
12082WAT      O36487   3.000   4.764   6.231
12082WAT     H136488   2.999   4.672   6.190
12082WAT     H236489   2.953   4.761   6.319
12083WAT      O36490   7.229   2.868   7.306
12083WAT     H136491   7.261   2.958   7.275
12083WAT     H236492   7.283   2.839   7.385
12084WAT      O36493   6.027   1.718   8.040
12084WAT     H136494   6.044   1.781   7.964
12084WAT     H236495   6.084   1.637   8.030
12085WAT      O36496   2.854   3.689   0.449
12085WAT     H136497   2.863   3.787   0.435
12085WAT     H236498   2.804   3.672   0.534
12086WAT      O36499   5.191   5.851   8.182
12086WAT     H136500   5.288   5.827   8.168
12086WAT     H236501   5.168   5.841   8.279
12087WAT      O36502   2.828   4.921   5.799
12087WAT     H136503   2.840   5.020   5.791
12087WAT     H236504   2.861   4.876   5.716
12088WAT      O36505   4.253   8.147   7.394
12088WAT     H136506   4.207   8.092   7.324
12088WAT     H236507   4.218   8.123   7.484
12089WAT      O36508   9.406   5.904   9.555
12089WAT     H136509   9.428   5.921   9.651
12089WAT     H236510   9.489   5.914   9.500
12090WAT      O36511   9.474   7.467   3.629
12090WAT     H136512   9.411   7.434   3.559
12090WAT     H236513   9.551   7.404   3.638
12091WAT      O36514   6.655   2.122   9.867
12091WAT     H136515   6.560   2.113   9.837
12091WAT     H236516   6.668   2.209   9.914
12092WAT      O36517   4.890   6.933   0.984
12092WAT     H136518   4.951   7.012   0.970
12092WAT     H236519   4.804   6.965   1.024
12093WAT      O36520   0.829   7.856   5.687
12093WAT     H136521   0.770   7.903   5.621
12093WAT     H236522   0.923   7.854   5.652
12094WAT      O36523   4.490   9.528   9.017
12094WAT     H136524   4.400   9.517   9.059
12094WAT     H236525   4.525   9.620   9.035
12095WAT      O36526   3.533   9.046   7.428
12095WAT     H136527   3.519   9.050   7.329
12095WAT     H236528   3.548   9.139   7.463
12096WAT      O36529   4.160   8.293   6.970
12096WAT     H136530   4.135   8.330   6.880
12096WAT     H236531   4.252   8.254   6.966
12097WAT      O36532   2.436   4.929   0.755
12097WAT     H136533   2.350   4.884   0.780
12097WAT     H236534   2.418   5.024   0.730
12098WAT      O36535   2.333   1.453   7.399
12098WAT     H136536   2.287   1.450   7.487
12098WAT     H236537   2.267   1.435   7.326
12099WAT      O36538   3.919   3.288   8.227
12099WAT     H136539   3.937   3.209   8.286
12099WAT     H236540   3.991   3.295   8.158
12100WAT      O36541   5.153   2.468   1.942
12100WAT     H136542   5.204   2.508   1.866
12100WAT     H236543   5.208   2.396   1.985
12101WAT      O36544   4.701   3.365   5.043
12101WAT     H136545   4.795   3.391   5.064
12101WAT     H236546   4.685   3.370   4.945
12102WAT      O36547   3.733   0.353   6.901
12102WAT     H136548   3.666   0.424   6.878
12102WAT     H236549   3.710   0.269   6.853
12103WAT      O36550   2.584   4.119   8.899
12103WAT     H136551   2.623   4.093   8.811
12103WAT     H236552   2.611   4.213   8.921
12104WAT      O36553   8.095   1.904   7.435
12104WAT     H136554   8.023   1.835   7.441
12104WAT     H236555   8.054   1.994   7.423
12105WAT      O36556   6.464   9.725   7.500
12105WAT     H136557   6.390   9.677   7.452
12105WAT     H236558   6.552   9.685   7.473
12106WAT      O36559   8.940   8.481   2.081
12106WAT     H136560   8.882   8.420   2.136
12106WAT     H236561   8.905   8.483   1.987
12107WAT      O36562   7.007   7.263   9.017
12107WAT     H136563   7.035   7.231   8.926
12107WAT     H236564   7.086   7.304   9.063
12108WAT      O36565   7.138   2.510   6.291
12108WAT     H136566   7.210   2.507   6.222
12108WAT     H236567   7.117   2.417   6.322
12109WAT      O36568   5.802   6.691   7.205
12109WAT     H136569   5.838   6.646   7.124
12109WAT     H236570   5.869   6.686   7.279
12110WAT      O36571   4.038   3.602   6.401
12110WAT     H136572   4.103   3.602   6.325
12110WAT     H236573   4.077   3.652   6.479
12111WAT      O36574   8.531   4.351   2.124
12111WAT     H136575   8.458   4.361   2.055
12111WAT     H236576   8.606   4.413   2.102
12112WAT      O36577   3.174   5.663   2.478
12112WAT     H136578   3.128   5.747   2.448
12112WAT     H236579   3.273   5.679   2.483
12113WAT      O36580   5.627   6.507   0.250
12113WAT     H136581   5.552   6.480   0.311
12113WAT     H236582   5.679   6.582   0.292
12114WAT      O36583   4.986   0.307   5.367
12114WAT     H136584   4.931   0.224   5.362
12114WAT     H236585   4.950   0.374   5.302
12115WAT      O36586   2.012   1.698   2.082
12115WAT     H136587   2.012   1.605   2.045
12115WAT     H236588   2.087   1.750   2.040
12116WAT      O36589   4.858   8.316   4.566
12116WAT     H136590   4.795   8.251   4.609
12116WAT     H236591   4.952   8.286   4.580
12117WAT      O36592   7.722   1.513   0.409
12117WAT     H136593   7.803   1.455   0.400
12117WAT     H236594   7.645   1.457   0.440
12118WAT      O36595   9.868   7.151   5.915
12118WAT     H136596   9.798   7.164   5.985
12118WAT     H236597   9.850   7.213   5.838
12119WAT      O36598   8.559   4.093   9.158
12119WAT     H136599   8.499   4.088   9.078
12119WAT     H236600   8.638   4.034   9.144
12120WAT      O36601   5.929   8.497   3.427
12120WAT     H136602   5.850   8.452   3.385
12120WAT     H236603   5.949   8.581   3.377
12121WAT      O36604   9.189   3.036   1.024
12121WAT     H136605   9.251   2.989   0.961
12121WAT     H236606   9.178   2.981   1.107
12122WAT      O36607   3.638   1.138   4.974
12122WAT     H136608   3.708   1.190   5.024
12122WAT     H236609   3.664   1.133   4.877
12123WAT      O36610   6.584   2.770   1.414
12123WAT     H136611   6.620   2.685   1.376
12123WAT     H236612   6.636   2.848   1.378
12124WAT      O36613   8.527   5.452   8.378
12124WAT     H136614   8.479   5.365   8.386
12124WAT     H236615   8.467   5.526   8.409
12125WAT      O36616   9.259   8.684   7.639
12125WAT     H136617   9.327   8.630   7.688
12125WAT     H236618   9.296   8.775   7.621
12126WAT      O36619   7.442   9.161   9.586
12126WAT     H136620   7.362   9.220   9.574
12126WAT     H236621   7.444   9.092   9.514
12127WAT      O36622   7.574   4.400   3.841
12127WAT     H136623   7.614   4.473   3.785
12127WAT     H236624   7.633   4.384   3.920
12128WAT      O36625   4.578   0.885   0.643
12128WAT     H136626   4.546   0.817   0.709
12128WAT     H236627   4.653   0.846   0.589
12129WAT      O36628   5.567   0.497   2.036
12129WAT     H136629   5.477   0.457   2.050
12129WAT     H236630   5.579   0.518   1.939
12130WAT      O36631   7.360   9.520   4.832
12130WAT     H136632   7.338   9.550   4.739
12130WAT     H236633   7.288   9.550   4.894
12131WAT      O36634   6.483   1.583   6.244
12131WAT     H136635   6.446   1.571   6.336
12131WAT     H236636   6.505   1.679   6.229
12132WAT      O36637   5.006   0.578   8.213
12132WAT     H136638   4.926   0.625   8.176
12132WAT     H236639   5.074   0.567   8.141
12133WAT      O36640   7.917   8.579   0.101
12133WAT     H136641   7.887   8.656   0.158
12133WAT     H236642   7.845   8.555   0.036
12134WAT      O36643   4.516   7.009   0.677
12134WAT     H136644   4.609   7.036   0.699
12134WAT     H236645   4.515   6.957   0.592
12135WAT      O36646   5.393   7.263   1.129
12135WAT     H136647   5.484   7.257   1.089
12135WAT     H236648   5.393   7.333   1.201
12136WAT      O36649   8.031   5.466   5.826
12136WAT     H136650   7.957   5.421   5.777
12136WAT     H236651   8.033   5.433   5.921
12137WAT      O36652   3.142   8.464   5.115
12137WAT     H136653   3.184   8.389   5.064
12137WAT     H236654   3.079   8.513   5.055
12138WAT      O36655  -0.001   7.688   5.487
12138WAT     H136656   0.032   7.775   5.451
12138WAT     H236657   0.018   7.682   5.584
12139WAT      O36658   4.982   9.702   8.203
12139WAT     H136659   4.989   9.793   8.245
12139WAT     H236660   5.064   9.684   8.149
12140WAT      O36661   4.257   2.862   3.834
12140WAT     H136662   4.237   2.780   3.781
12140WAT     H236663   4.310   2.838   3.915
12141WAT      O36664   1.684   9.830   6.836
12141WAT     H136665   1.637   9.889   6.770
12141WAT     H236666   1.754   9.883   6.883
12142WAT      O36667   2.369   7.562   4.474
12142WAT     H136668   2.465   7.583   4.493
12142WAT     H236669   2.331   7.508   4.549
12143WAT      O36670   9.567   1.204   1.246
12143WAT     H136671   9.610   1.136   1.306
12143WAT     H236672   9.501   1.258   1.298
12144WAT      O36673   4.719   7.753   5.225
12144WAT     H136674   4.655   7.830   5.221
12144WAT     H236675   4.813   7.788   5.224
12145WAT      O36676   3.873   5.404   2.927
12145WAT     H136677   3.861   5.308   2.901
12145WAT     H236678   3.804   5.460   2.881
12146WAT      O36679   3.699   3.447   7.473
12146WAT     H136680   3.768   3.406   7.412
12146WAT     H236681   3.690   3.544   7.452
12147WAT      O36682   8.857   8.101   7.383
12147WAT     H136683   8.888   8.193   7.361
12147WAT     H236684   8.811   8.061   7.304
12148WAT      O36685   5.885   5.572   1.088
12148WAT     H136686   5.906   5.514   1.009
12148WAT     H236687   5.935   5.540   1.168
12149WAT      O36688   7.016   1.918   4.681
12149WAT     H136689   6.964   1.847   4.634
12149WAT     H236690   6.995   2.007   4.641
12150WAT      O36691   6.733   5.514   1.147
12150WAT     H136692   6.760   5.419   1.137
12150WAT     H236693   6.735   5.540   1.244
12151WAT      O36694   9.531   4.001   6.779
12151WAT     H136695   9.607   3.975   6.718
12151WAT     H236696   9.541   3.953   6.866
12152WAT      O36697   1.881   1.111   3.308
12152WAT     H136698   1.901   1.196   3.259
12152WAT     H236699   1.906   1.034   3.250
12153WAT      O36700   3.477   7.205   4.347
12153WAT     H136701   3.537   7.229   4.423
12153WAT     H236702   3.528   7.158   4.277
12154WAT      O36703   7.732   4.819   5.461
12154WAT     H136704   7.646   4.857   5.494
12154WAT     H236705   7.717   4.724   5.432
12155WAT      O36706   5.642   7.147   6.920
12155WAT     H136707   5.703   7.223   6.897
12155WAT     H236708   5.695   7.063   6.930
12156WAT      O36709   8.071   8.842   8.979
12156WAT     H136710   8.050   8.919   9.039
12156WAT     H236711   8.045   8.756   9.024
12157WAT      O36712   4.467   9.302   7.854
12157WAT     H136713   4.405   9.293   7.932
12157WAT     H236714   4.423   9.267   7.772
12158WAT      O36715   7.340   9.225   0.905
12158WAT     H136716   7.378   9.315   0.926
12158WAT     H236717   7.304   9.224   0.812
12159WAT      O36718   1.379   4.912   0.186
12159WAT     H136719   1.308   4.955   0.131
12159WAT     H236720   1.370   4.813   0.182
12160WAT      O36721   7.123   0.181   9.452
12160WAT     H136722   7.093   0.258   9.395
12160WAT     H236723   7.216   0.154   9.426
12161WAT      O36724   7.806   3.973   5.956
12161WAT     H136725   7.722   4.026   5.944
12161WAT     H236726   7.871   3.998   5.885
12162WAT      O36727   8.105   8.767   2.565
12162WAT     H136728   8.185   8.811   2.525
12162WAT     H236729   8.077   8.816   2.648
12163WAT      O36730   5.269   9.011   3.799
12163WAT     H136731   5.280   8.932   3.738
12163WAT     H236732   5.354   9.024   3.851
12164WAT      O36733   3.880   6.837   7.061
12164WAT     H136734   3.850   6.746   7.087
12164WAT     H236735   3.971   6.832   7.020
12165WAT      O36736   2.455   7.544   2.288
12165WAT     H136737   2.452   7.568   2.385
12165WAT     H236738   2.425   7.449   2.277
12166WAT      O36739   0.655   7.641   3.570
12166WAT     H136740   0.620   7.724   3.613
12166WAT     H236741   0.613   7.630   3.480
12167WAT      O36742   9.338   1.189   9.425
12167WAT     H136743   9.412   1.123   9.412
12167WAT     H236744   9.347   1.231   9.515
12168WAT      O36745   3.396   5.933   7.168
12168WAT     H136746   3.473   5.981   7.211
12168WAT     H236747   3.315   5.991   7.170
12169WAT      O36748   8.324   4.624   7.460
12169WAT     H136749   8.386   4.700   7.477
12169WAT     H236750   8.333   4.595   7.365
12170WAT      O36751   7.612   0.141   6.647
12170WAT     H136752   7.576   0.171   6.559
12170WAT     H236753   7.712   0.150   6.646
12171WAT      O36754   4.196   0.636   2.345
12171WAT     H136755   4.162   0.615   2.437
12171WAT     H236756   4.181   0.558   2.285
12172WAT      O36757   5.772   8.397   2.330
12172WAT     H136758   5.767   8.297   2.339
12172WAT     H236759   5.742   8.439   2.415
12173WAT      O36760   7.832   8.727   8.360
12173WAT     H136761   7.836   8.628   8.347
12173WAT     H236762   7.866   8.773   8.278
12174WAT      O36763   7.066   1.992   4.022
12174WAT     H136764   7.057   1.973   3.924
12174WAT     H236765   7.111   2.081   4.034
12175WAT      O36766   5.734   6.218   4.145
12175WAT     H136767   5.729   6.230   4.245
12175WAT     H236768   5.646   6.245   4.105
12176WAT      O36769   9.011   9.490   5.255
12176WAT     H136770   9.026   9.442   5.342
12176WAT     H236771   9.050   9.436   5.181
12177WAT      O36772   2.322   5.812   2.752
12177WAT     H136773   2.384   5.751   2.802
12177WAT     H236774   2.227   5.784   2.769
12178WAT      O36775   1.595   7.353   1.493
12178WAT     H136776   1.689   7.373   1.523
12178WAT     H236777   1.568   7.420   1.423
12179WAT      O36778   6.009   2.846   6.299
12179WAT     H136779   6.042   2.751   6.294
12179WAT     H236780   6.079   2.903   6.341
12180WAT      O36781   0.996   0.303   6.038
12180WAT     H136782   1.041   0.216   6.019
12180WAT     H236783   0.918   0.315   5.976
12181WAT      O36784   5.121   9.272   2.119
12181WAT     H136785   5.104   9.222   2.203
12181WAT     H236786   5.038   9.322   2.092
12182WAT      O36787   8.871   9.587   9.400
12182WAT     H136788   8.935   9.551   9.468
12182WAT     H236789   8.820   9.664   9.440
12183WAT      O36790   3.278   2.044   6.750
12183WAT     H136791   3.188   2.024   6.788
12183WAT     H236792   3.268   2.102   6.669
12184WAT      O36793   9.385   3.279   2.811
12184WAT     H136794   9.423   3.260   2.720
12184WAT     H236795   9.339   3.197   2.846
12185WAT      O36796   3.513   9.546   2.179
12185WAT     H136797   3.477   9.505   2.095
12185WAT     H236798   3.613   9.542   2.178
12186WAT      O36799   2.040   3.197   8.732
12186WAT     H136800   1.946   3.165   8.740
12186WAT     H236801   2.048   3.288   8.772
12187WAT      O36802   9.374   0.512   2.438
12187WAT     H136803   9.380   0.428   2.384
12187WAT     H236804   9.455   0.520   2.496
12188WAT      O36805   9.206   5.397   3.223
12188WAT     H136806   9.209   5.414   3.322
12188WAT     H236807   9.288   5.435   3.180
12189WAT      O36808   2.795   6.621   1.182
12189WAT     H136809   2.715   6.655   1.132
12189WAT     H236810   2.765   6.581   1.269
12190WAT      O36811   8.902   1.987   3.063
12190WAT     H136812   8.961   1.922   3.110
12190WAT     H236813   8.876   2.060   3.126
12191WAT      O36814   7.601   4.763   4.369
12191WAT     H136815   7.656   4.746   4.451
12191WAT     H236816   7.527   4.696   4.364
12192WAT      O36817   4.366   3.011   8.075
12192WAT     H136818   4.352   3.043   7.981
12192WAT     H236819   4.459   2.978   8.085
12193WAT      O36820   7.830   4.069   7.691
12193WAT     H136821   7.731   4.068   7.678
12193WAT     H236822   7.856   3.993   7.751
12194WAT      O36823   7.069   8.679   4.298
12194WAT     H136824   7.166   8.668   4.272
12194WAT     H236825   7.053   8.633   4.385
12195WAT      O36826   8.990   0.060   3.070
12195WAT     H136827   8.971   0.143   3.123
12195WAT     H236828   8.964  -0.020   3.123
12196WAT      O36829   7.930   6.452   6.781
12196WAT     H136830   7.898   6.524   6.719
12196WAT     H236831   7.868   6.446   6.859
12197WAT      O36832   5.206   9.828   6.517
12197WAT     H136833   5.281   9.777   6.475
12197WAT     H236834   5.126   9.825   6.456
12198WAT      O36835   7.718   2.764   6.977
12198WAT     H136836   7.625   2.752   7.011
12198WAT     H236837   7.715   2.809   6.887
12199WAT      O36838   3.272   2.500   8.483
12199WAT     H136839   3.333   2.427   8.512
12199WAT     H236840   3.313   2.549   8.406
12200WAT      O36841   1.229   2.453   9.404
12200WAT     H136842   1.300   2.522   9.411
12200WAT     H236843   1.190   2.454   9.312
12201WAT      O36844   6.088   2.371   4.827
12201WAT     H136845   6.011   2.392   4.767
12201WAT     H236846   6.156   2.319   4.775
12202WAT      O36847   2.614   7.115   2.353
12202WAT     H136848   2.647   7.047   2.419
12202WAT     H236849   2.648   7.093   2.262
12203WAT      O36850   7.208   8.171   7.162
12203WAT     H136851   7.157   8.214   7.088
12203WAT     H236852   7.305   8.167   7.137
12204WAT      O36853   9.773   9.634   4.277
12204WAT     H136854   9.857   9.686   4.263
12204WAT     H236855   9.720   9.675   4.351
12205WAT      O36856   2.851   2.309   1.096
12205WAT     H136857   2.876   2.284   1.003
12205WAT     H236858   2.865   2.407   1.110
12206WAT      O36859   6.511   8.541   4.768
12206WAT     H136860   6.590   8.573   4.821
12206WAT     H236861   6.516   8.577   4.675
12207WAT      O36862   6.149   3.513   1.413
12207WAT     H136863   6.224   3.577   1.434
12207WAT     H236864   6.184   3.420   1.412
12208WAT      O36865   4.786   8.779   5.422
12208WAT     H136866   4.723   8.805   5.495
12208WAT     H236867   4.835   8.696   5.448
12209WAT      O36868   7.656   3.655   2.793
12209WAT     H136869   7.715   3.725   2.752
12209WAT     H236870   7.619   3.597   2.721
12210WAT      O36871   1.542   7.457   2.577
12210WAT     H136872   1.527   7.553   2.554
12210WAT     H236873   1.575   7.450   2.671
12211WAT      O36874   2.710   7.340   2.499
12211WAT     H136875   2.755   7.414   2.450
12211WAT     H236876   2.692   7.264   2.436
12212WAT      O36877   9.368   7.952   0.555
12212WAT     H136878   9.290   7.962   0.494
12212WAT     H236879   9.433   7.887   0.515
12213WAT      O36880   3.026   9.276   8.714
12213WAT     H136881   3.081   9.338   8.771
12213WAT     H236882   3.023   9.311   8.621
12214WAT      O36883   1.544   7.588   3.857
12214WAT     H136884   1.554   7.679   3.817
12214WAT     H236885   1.593   7.522   3.800
12215WAT      O36886   7.138   4.341   5.182
12215WAT     H136887   7.057   4.300   5.224
12215WAT     H236888   7.116   4.372   5.090
12216WAT      O36889   9.059   6.031   0.313
12216WAT     H136890   9.116   5.952   0.294
12216WAT     H236891   9.113   6.115   0.304
12217WAT      O36892   4.797   9.772   3.073
12217WAT     H136893   4.755   9.770   2.982
12217WAT     H236894   4.787   9.682   3.116
12218WAT      O36895   6.617   5.086   1.343
12218WAT     H136896   6.667   5.032   1.410
12218WAT     H236897   6.609   5.033   1.258
12219WAT      O36898   0.471   0.272   7.272
12219WAT     H136899   0.566   0.283   7.244
12219WAT     H236900   0.417   0.349   7.239
12220WAT      O36901   4.543   7.359   7.161
12220WAT     H136902   4.566   7.291   7.231
12220WAT     H236903   4.508   7.313   7.079
12221WAT      O36904   6.998   7.678   2.877
12221WAT     H136905   7.090   7.674   2.915
12221WAT     H236906   6.934   7.706   2.948
12222WAT      O36907   2.418   3.691   9.408
12222WAT     H136908   2.364   3.608   9.402
12222WAT     H236909   2.367   3.761   9.458
12223WAT      O36910   0.365   9.817   5.645
12223WAT     H136911   0.300   9.754   5.601
12223WAT     H236912   0.367   9.800   5.743
12224WAT      O36913   6.706   0.916   3.526
12224WAT     H136914   6.784   0.863   3.491
12224WAT     H236915   6.728   0.950   3.617
12225WAT      O36916   6.349   3.111   0.256
12225WAT     H136917   6.374   3.081   0.348
12225WAT     H236918   6.271   3.058   0.223
12226WAT      O36919   6.679   0.519   1.959
12226WAT     H136920   6.719   0.440   2.006
12226WAT     H236921   6.752   0.584   1.936
12227WAT      O36922   3.796   1.570   9.628
12227WAT     H136923   3.793   1.517   9.543
12227WAT     H236924   3.708   1.616   9.642
12228WAT      O36925   6.107   5.539   1.724
12228WAT     H136926   6.020   5.587   1.713
12228WAT     H236927   6.161   5.549   1.640
12229WAT      O36928   0.338   3.933   0.569
12229WAT     H136929   0.428   3.891   0.558
12229WAT     H236930   0.333   4.015   0.511
12230WAT      O36931   1.059   4.473   2.559
12230WAT     H136932   1.127   4.400   2.572
12230WAT     H236933   1.086   4.530   2.482
12231WAT      O36934   4.754   1.576   2.359
12231WAT     H136935   4.807   1.652   2.323
12231WAT     H236936   4.691   1.543   2.288
12232WAT      O36937   4.799   5.814   1.860
12232WAT     H136938   4.834   5.819   1.953
12232WAT     H236939   4.717   5.758   1.858
12233WAT      O36940   8.714   3.834   1.333
12233WAT     H136941   8.758   3.829   1.244
12233WAT     H236942   8.735   3.751   1.385
12234WAT      O36943   3.576   4.267   3.113
12234WAT     H136944   3.551   4.362   3.129
12234WAT     H236945   3.653   4.263   3.049
12235WAT      O36946   2.828   5.023   4.966
12235WAT     H136947   2.729   5.025   4.974
12235WAT     H236948   2.868   5.084   5.034
12236WAT      O36949   8.784   9.325   3.864
12236WAT     H136950   8.813   9.249   3.921
12236WAT     H236951   8.864   9.375   3.832
12237WAT      O36952   8.581   1.425   0.515
12237WAT     H136953   8.598   1.391   0.423
12237WAT     H236954   8.531   1.512   0.509
12238WAT      O36955   9.626   7.643   4.524
12238WAT     H136956   9.702   7.580   4.532
12238WAT     H236957   9.627   7.708   4.599
12239WAT      O36958   4.459   9.739   8.115
12239WAT     H136959   4.558   9.733   8.106
12239WAT     H236960   4.426   9.821   8.068
12240WAT      O36961   4.284   5.142   1.335
12240WAT     H136962   4.273   5.043   1.324
12240WAT     H236963   4.363   5.161   1.394
12241WAT      O36964   6.999   2.652   9.006
12241WAT     H136965   7.071   2.654   9.075
12241WAT     H236966   6.912   2.677   9.048
12242WAT      O36967   1.770   8.012   2.684
12242WAT     H136968   1.853   8.049   2.726
12242WAT     H236969   1.770   7.912   2.691
12243WAT      O36970   8.602   0.600   2.272
12243WAT     H136971   8.521   0.596   2.329
12243WAT     H236972   8.621   0.695   2.247
12244WAT      O36973   8.842   7.620   1.806
12244WAT     H136974   8.848   7.529   1.765
12244WAT     H236975   8.809   7.685   1.737
12245WAT      O36976   7.508   8.836   7.212
12245WAT     H136977   7.477   8.758   7.158
12245WAT     H236978   7.588   8.877   7.168
12246WAT      O36979   1.695   9.518   4.355
12246WAT     H136980   1.598   9.539   4.368
12246WAT     H236981   1.722   9.535   4.261
12247WAT      O36982   0.267   7.263   2.864
12247WAT     H136983   0.314   7.346   2.893
12247WAT     H236984   0.335   7.190   2.850
12248WAT      O36985   4.840   9.037   4.990
12248WAT     H136986   4.760   9.051   5.048
12248WAT     H236987   4.832   9.091   4.907
12249WAT      O36988   2.540   7.857   9.414
12249WAT     H136989   2.598   7.937   9.400
12249WAT     H236990   2.571   7.783   9.354
12250WAT      O36991   8.494   3.195   8.853
12250WAT     H136992   8.541   3.271   8.898
12250WAT     H236993   8.397   3.196   8.879
12251WAT      O36994   2.132   4.626   7.245
12251WAT     H136995   2.228   4.599   7.252
12251WAT     H236996   2.123   4.723   7.268
12252WAT      O36997   8.964   2.980   7.861
12252WAT     H136998   9.021   2.949   7.785
12252WAT     H236999   8.968   3.080   7.867
12253WAT      O37000   9.748   4.303   7.736
12253WAT     H137001   9.784   4.372   7.673
12253WAT     H237002   9.648   4.313   7.742
12254WAT      O37003   3.606   7.750   3.343
12254WAT     H137004   3.596   7.820   3.272
12254WAT     H237005   3.671   7.681   3.312
12255WAT      O37006   9.424   1.314   8.953
12255WAT     H137007   9.506   1.263   8.978
12255WAT     H237008   9.439   1.412   8.968
12256WAT      O37009   2.640   6.465   5.376
12256WAT     H137010   2.663   6.372   5.350
12256WAT     H237011   2.549   6.489   5.342
12257WAT      O37012   9.414   5.551   4.137
12257WAT     H137013   9.394   5.648   4.125
12257WAT     H237014   9.370   5.499   4.064
12258WAT      O37015   9.256   8.435   9.309
12258WAT     H137016   9.249   8.533   9.325
12258WAT     H237017   9.263   8.417   9.210
12259WAT      O37018   7.911   5.616   4.255
12259WAT     H137019   7.880   5.619   4.160
12259WAT     H237020   8.011   5.611   4.257
12260WAT      O37021   8.988   0.240   4.377
12260WAT     H137022   9.057   0.208   4.312
12260WAT     H237023   8.915   0.173   4.386
12261WAT      O37024   7.138   2.913   5.277
12261WAT     H137025   7.125   2.833   5.335
12261WAT     H237026   7.096   2.993   5.321
12262WAT      O37027   2.854   3.020   0.388
12262WAT     H137028   2.846   3.119   0.377
12262WAT     H237029   2.939   2.989   0.344
12263WAT      O37030   0.799   9.843   2.382
12263WAT     H137031   0.820   9.880   2.473
12263WAT     H237032   0.880   9.797   2.346
12264WAT      O37033   6.914   1.515   8.317
12264WAT     H137034   6.932   1.597   8.264
12264WAT     H237035   6.858   1.539   8.397
12265WAT      O37036   6.123   5.458   7.561
12265WAT     H137037   6.059   5.533   7.581
12265WAT     H237038   6.071   5.376   7.537
12266WAT      O37039   9.868   0.887   0.983
12266WAT     H137040   9.911   0.963   1.031
12266WAT     H237041   9.930   0.808   0.983
12267WAT      O37042   8.642   7.960   4.645
12267WAT     H137043   8.693   8.011   4.575
12267WAT     H237044   8.550   7.940   4.611
12268WAT      O37045   9.052   3.609   8.104
12268WAT     H137046   9.145   3.611   8.068
12268WAT     H237047   9.013   3.517   8.093
12269WAT      O37048   7.742   2.732   3.346
12269WAT     H137049   7.672   2.711   3.279
12269WAT     H237050   7.807   2.656   3.353
12270WAT      O37051   8.924   5.861   7.919
12270WAT     H137052   8.889   5.770   7.898
12270WAT     H237053   8.888   5.927   7.853
12271WAT      O37054   2.647   6.380   4.332
12271WAT     H137055   2.717   6.351   4.267
12271WAT     H237056   2.620   6.474   4.311
12272WAT      O37057   4.171   7.820   0.520
12272WAT     H137058   4.159   7.721   0.517
12272WAT     H237059   4.088   7.863   0.554
12273WAT      O37060   7.094   1.318   1.570
12273WAT     H137061   7.008   1.364   1.592
12273WAT     H237062   7.119   1.256   1.645
12274WAT      O37063   9.857   0.150   0.918
12274WAT     H137064   9.771   0.150   0.969
12274WAT     H237065   9.933   0.168   0.980
12275WAT      O37066   1.089   1.385   8.653
12275WAT     H137067   1.165   1.410   8.593
12275WAT     H237068   1.003   1.418   8.614
12276WAT      O37069   0.184   5.274   6.022
12276WAT     H137070   0.123   5.229   6.087
12276WAT     H237071   0.144   5.363   5.996
12277WAT      O37072   3.091   3.887   5.915
12277WAT     H137073   3.005   3.846   5.886
12277WAT     H237074   3.083   3.986   5.913
12278WAT      O37075   2.351   5.265   0.370
12278WAT     H137076   2.292   5.343   0.390
12278WAT     H237077   2.330   5.230   0.278
12279WAT      O37078   5.188   8.713   1.486
12279WAT     H137079   5.263   8.657   1.520
12279WAT     H237080   5.222   8.804   1.462
12280WAT      O37081   5.914   5.885   7.255
12280WAT     H137082   5.953   5.899   7.346
12280WAT     H237083   5.905   5.787   7.237
12281WAT      O37084   6.670   7.505   7.970
12281WAT     H137085   6.692   7.433   7.904
12281WAT     H237086   6.610   7.572   7.926
12282WAT      O37087   4.104   0.669   3.670
12282WAT     H137088   4.201   0.655   3.649
12282WAT     H237089   4.094   0.754   3.722
12283WAT      O37090   5.277   4.912   1.015
12283WAT     H137091   5.298   4.887   0.920
12283WAT     H237092   5.187   4.955   1.019
12284WAT      O37093   8.339   1.383   4.919
12284WAT     H137094   8.266   1.447   4.894
12284WAT     H237095   8.404   1.377   4.843
12285WAT      O37096   8.520   3.832   7.180
12285WAT     H137097   8.552   3.737   7.188
12285WAT     H237098   8.581   3.882   7.119
12286WAT      O37099   1.624   4.703   8.071
12286WAT     H137100   1.721   4.689   8.051
12286WAT     H237101   1.568   4.653   8.005
12287WAT      O37102   7.038   9.019   5.753
12287WAT     H137103   7.094   8.978   5.681
12287WAT     H237104   7.092   9.087   5.803
12288WAT      O37105   1.194   2.416   8.284
12288WAT     H137106   1.233   2.450   8.199
12288WAT     H237107   1.096   2.434   8.286
12289WAT      O37108   7.951   8.667   5.696
12289WAT     H137109   7.995   8.752   5.667
12289WAT     H237110   7.869   8.689   5.749
12290WAT      O37111   4.935   4.508   6.444
12290WAT     H137112   4.879   4.489   6.364
12290WAT     H237113   4.922   4.603   6.473
12291WAT      O37114   3.156   7.900   1.432
12291WAT     H137115   3.057   7.891   1.418
12291WAT     H237116   3.198   7.931   1.347
12292WAT      O37117   4.327   4.971   2.806
12292WAT     H137118   4.307   4.982   2.708
12292WAT     H237119   4.310   5.057   2.854
12293WAT      O37120   6.918   8.293   3.444
12293WAT     H137121   6.979   8.356   3.493
12293WAT     H237122   6.873   8.343   3.370
12294WAT      O37123   6.086   2.625   9.621
12294WAT     H137124   6.038   2.606   9.707
12294WAT     H237125   6.108   2.539   9.575
12295WAT      O37126   6.456   4.913   4.339
12295WAT     H137127   6.384   4.852   4.373
12295WAT     H237128   6.425   4.958   4.255
12296WAT      O37129   1.957   7.016   3.117
12296WAT     H137130   2.012   7.052   3.042
12296WAT     H237131   2.011   6.948   3.168
12297WAT      O37132   5.506   0.756   8.667
12297WAT     H137133   5.465   0.730   8.580
12297WAT     H237134   5.582   0.694   8.687
12298WAT      O37135   4.687   2.147   2.285
12298WAT     H137136   4.621   2.093   2.338
12298WAT     H237137   4.650   2.163   2.194
12299WAT      O37138   9.565   6.754   1.408
12299WAT     H137139   9.497   6.827   1.403
12299WAT     H237140   9.625   6.768   1.486
12300WAT      O37141   3.516   2.822   2.597
12300WAT     H137142   3.462   2.858   2.521
12300WAT     H237143   3.460   2.819   2.680
12301WAT      O37144   8.792   7.249   0.168
12301WAT     H137145   8.779   7.226   0.265
12301WAT     H237146   8.757   7.341   0.150
12302WAT      O37147   8.856   8.130   2.931
12302WAT     H137148   8.798   8.203   2.966
12302WAT     H237149   8.947   8.137   2.973
12303WAT      O37150   4.114   4.051   8.081
12303WAT     H137151   4.177   3.976   8.061
12303WAT     H237152   4.087   4.048   8.177
12304WAT      O37153   9.236   8.006   7.067
12304WAT     H137154   9.236   8.094   7.114
12304WAT     H237155   9.141   7.979   7.048
12305WAT      O37156   6.274   6.733   1.930
12305WAT     H137157   6.247   6.781   1.847
12305WAT     H237158   6.311   6.643   1.906
12306WAT      O37159   7.444   0.924   4.309
12306WAT     H137160   7.427   0.983   4.388
12306WAT     H237161   7.502   0.972   4.243
12307WAT      O37162   0.895   6.052   4.335
12307WAT     H137163   0.887   6.055   4.235
12307WAT     H237164   0.829   6.115   4.375
12308WAT      O37165   5.059   3.296   1.567
12308WAT     H137166   5.081   3.390   1.595
12308WAT     H237167   5.038   3.242   1.648
12309WAT      O37168   4.522   7.288   8.402
12309WAT     H137169   4.605   7.337   8.376
12309WAT     H237170   4.460   7.284   8.324
12310WAT      O37171   0.136   8.210   7.805
12310WAT     H137172   0.173   8.299   7.777
12310WAT     H237173   0.211   8.147   7.821
12311WAT      O37174   6.631   0.983   5.738
12311WAT     H137175   6.549   0.986   5.682
12311WAT     H237176   6.613   0.930   5.821
12312WAT      O37177   3.648   1.959   4.190
12312WAT     H137178   3.685   2.035   4.244
12312WAT     H237179   3.688   1.873   4.222
12313WAT      O37180   1.526   5.376   3.587
12313WAT     H137181   1.495   5.355   3.494
12313WAT     H237182   1.623   5.401   3.585
12314WAT      O37183   6.989   2.467   1.638
12314WAT     H137184   7.007   2.378   1.680
12314WAT     H237185   7.060   2.532   1.666
12315WAT      O37186   9.543   5.213   3.095
12315WAT     H137187   9.509   5.297   3.051
12315WAT     H237188   9.503   5.205   3.186
12316WAT      O37189   3.575   8.955   5.199
12316WAT     H137190   3.518   9.037   5.187
12316WAT     H237191   3.516   8.875   5.206
12317WAT      O37192   9.886   1.363   3.138
12317WAT     H137193   9.941   1.403   3.212
12317WAT     H237194   9.842   1.437   3.087
12318WAT      O37195   0.819   3.793   4.881
12318WAT     H137196   0.822   3.768   4.978
12318WAT     H237197   0.731   3.835   4.860
12319WAT      O37198   9.675   7.035   9.008
12319WAT     H137199   9.703   6.941   8.988
12319WAT     H237200   9.602   7.035   9.077
12320WAT      O37201   1.892   0.131   0.617
12320WAT     H137202   1.985   0.165   0.630
12320WAT     H237203   1.834   0.163   0.692
12321WAT      O37204   5.458   4.941   7.279
12321WAT     H137205   5.363   4.940   7.309
12321WAT     H237206   5.478   5.027   7.233
12322WAT      O37207   8.785   9.330   5.613
12322WAT     H137208   8.865   9.277   5.642
12322WAT     H237209   8.745   9.288   5.531
12323WAT      O37210   1.993   2.729   8.615
12323WAT     H137211   2.061   2.803   8.614
12323WAT     H237212   1.927   2.743   8.541
12324WAT      O37213   9.202   1.810   3.364
12324WAT     H137214   9.208   1.891   3.305
12324WAT     H237215   9.137   1.745   3.325
12325WAT      O37216   8.370   1.102   5.882
12325WAT     H137217   8.306   1.152   5.824
12325WAT     H237218   8.352   1.004   5.876
12326WAT      O37219   7.595   5.696   5.971
12326WAT     H137220   7.593   5.766   5.899
12326WAT     H237221   7.678   5.707   6.025
12327WAT      O37222   2.555   2.216   6.963
12327WAT     H137223   2.493   2.157   6.911
12327WAT     H237224   2.617   2.263   6.899
12328WAT      O37225   9.099   9.487   8.504
12328WAT     H137226   9.071   9.537   8.586
12328WAT     H237227   9.142   9.401   8.531
12329WAT      O37228   1.319   3.328   9.378
12329WAT     H137229   1.389   3.303   9.311
12329WAT     H237230   1.329   3.425   9.401
12330WAT      O37231   7.915   6.428   4.776
12330WAT     H137232   7.918   6.330   4.796
12330WAT     H237233   7.984   6.476   4.829
12331WAT      O37234   6.941   1.098   2.912
12331WAT     H137235   7.014   1.166   2.905
12331WAT     H237236   6.853   1.145   2.918
12332WAT      O37237   6.684   4.816   1.219
12332WAT     H137238   6.626   4.809   1.137
12332WAT     H237239   6.726   4.727   1.237
12333WAT      O37240   6.956   7.828   9.593
12333WAT     H137241   6.896   7.877   9.657
12333WAT     H237242   6.931   7.852   9.499
12334WAT      O37243   8.430   6.519   0.759
12334WAT     H137244   8.346   6.465   0.754
12334WAT     H237245   8.426   6.594   0.692
12335WAT      O37246   5.432   4.477   1.678
12335WAT     H137247   5.501   4.450   1.611
12335WAT     H237248   5.475   4.485   1.768
12336WAT      O37249   9.432   7.406   2.253
12336WAT     H137250   9.426   7.325   2.194
12336WAT     H237251   9.340   7.439   2.273
12337WAT      O37252   0.032   9.841   7.077
12337WAT     H137253   0.057   9.807   7.167
12337WAT     H237254   0.093   9.916   7.051
12338WAT      O37255   9.374   2.233   8.031
12338WAT     H137256   9.282   2.256   8.000
12338WAT     H237257   9.432   2.216   7.951
12339WAT      O37258   4.915   5.086   2.086
12339WAT     H137259   4.821   5.118   2.072
12339WAT     H237260   4.934   5.079   2.184
12340WAT      O37261   1.105   0.454   3.135
12340WAT     H137262   1.044   0.528   3.161
12340WAT     H237263   1.199   0.488   3.133
12341WAT      O37264   2.081   5.811   9.171
12341WAT     H137265   2.002   5.800   9.111
12341WAT     H237266   2.122   5.901   9.157
12342WAT      O37267   2.173   4.232   0.315
12342WAT     H137268   2.088   4.194   0.278
12342WAT     H237269   2.244   4.230   0.245
12343WAT      O37270   5.145   7.671   0.419
12343WAT     H137271   5.047   7.690   0.418
12343WAT     H237272   5.185   7.698   0.331
12344WAT      O37273   4.700   2.366   8.729
12344WAT     H137274   4.637   2.289   8.720
12344WAT     H237275   4.663   2.446   8.682
12345WAT      O37276   0.228   3.719   0.291
12345WAT     H137277   0.325   3.694   0.299
12345WAT     H237278   0.218   3.817   0.308
12346WAT      O37279   6.018   0.118   2.488
12346WAT     H137280   5.980   0.027   2.475
12346WAT     H237281   6.118   0.113   2.486
12347WAT      O37282   4.243   9.468   9.138
12347WAT     H137283   4.181   9.405   9.184
12347WAT     H237284   4.196   9.554   9.120
12348WAT      O37285   3.893   3.588   4.172
12348WAT     H137286   3.929   3.528   4.243
12348WAT     H237287   3.810   3.633   4.205
12349WAT      O37288   7.441   4.945   7.710
12349WAT     H137289   7.479   4.908   7.625
12349WAT     H237290   7.452   4.878   7.783
12350WAT      O37291   9.713   2.792   8.793
12350WAT     H137292   9.794   2.851   8.783
12350WAT     H237293   9.742   2.701   8.823
12351WAT      O37294   8.733   5.503   7.336
12351WAT     H137295   8.662   5.539   7.275
12351WAT     H237296   8.704   5.515   7.431
12352WAT      O37297   0.103   8.738   3.444
12352WAT     H137298   0.193   8.782   3.442
12352WAT     H237299   0.099   8.677   3.524
12353WAT      O37300   5.999   5.141   7.845
12353WAT     H137301   5.900   5.133   7.858
12353WAT     H237302   6.045   5.061   7.884
12354WAT      O37303   7.604   0.232   9.633
12354WAT     H137304   7.589   0.141   9.594
12354WAT     H237305   7.580   0.230   9.730
12355WAT      O37306   1.783   0.781   7.545
12355WAT     H137307   1.768   0.682   7.539
12355WAT     H237308   1.790   0.819   7.453
12356WAT      O37309   7.213   5.952   5.086
12356WAT     H137310   7.313   5.958   5.089
12356WAT     H237311   7.183   5.878   5.147
12357WAT      O37312   4.161   4.672   2.652
12357WAT     H137313   4.071   4.632   2.667
12357WAT     H237314   4.215   4.663   2.736
12358WAT      O37315   2.418   5.039   8.136
12358WAT     H137316   2.430   4.997   8.046
12358WAT     H237317   2.329   5.085   8.140
12359WAT      O37318   6.869   2.294   6.218
12359WAT     H137319   6.800   2.362   6.191
12359WAT     H237320   6.876   2.223   6.148
12360WAT      O37321   8.747   8.127   8.088
12360WAT     H137322   8.756   8.222   8.059
12360WAT     H237323   8.720   8.123   8.184
12361WAT      O37324   3.101   2.625   6.708
12361WAT     H137325   3.004   2.649   6.701
12361WAT     H237326   3.157   2.705   6.684
12362WAT      O37327   7.776   0.875   1.557
12362WAT     H137328   7.773   0.955   1.498
12362WAT     H237329   7.797   0.794   1.503
12363WAT      O37330   0.889   5.641   1.457
12363WAT     H137331   0.951   5.629   1.535
12363WAT     H237332   0.942   5.663   1.376
12364WAT      O37333   6.473   8.195   4.518
12364WAT     H137334   6.476   8.101   4.553
12364WAT     H237335   6.377   8.225   4.514
12365WAT      O37336   1.804   1.783   2.974
12365WAT     H137337   1.847   1.694   2.986
12365WAT     H237338   1.849   1.833   2.900
12366WAT      O37339   7.008   1.919   6.634
12366WAT     H137340   7.011   1.830   6.589
12366WAT     H237341   7.043   1.911   6.727
12367WAT      O37342   6.865   5.429   6.321
12367WAT     H137343   6.811   5.486   6.384
12367WAT     H237344   6.803   5.375   6.265
12368WAT      O37345   0.756   9.103   8.972
12368WAT     H137346   0.810   9.163   9.030
12368WAT     H237347   0.660   9.109   8.998
12369WAT      O37348   5.265   4.639   9.130
12369WAT     H137349   5.168   4.637   9.105
12369WAT     H237350   5.299   4.733   9.125
12370WAT      O37351   7.372   4.470   1.751
12370WAT     H137352   7.275   4.494   1.754
12370WAT     H237353   7.418   4.508   1.832
12371WAT      O37354   6.724   7.606   1.264
12371WAT     H137355   6.665   7.669   1.314
12371WAT     H237356   6.796   7.657   1.217
12372WAT      O37357   9.822   6.817   3.616
12372WAT     H137358   9.806   6.856   3.525
12372WAT     H237359   9.919   6.795   3.626
12373WAT      O37360   1.806   4.739   0.135
12373WAT     H137361   1.870   4.690   0.194
12373WAT     H237362   1.754   4.673   0.080
12374WAT      O37363   4.765   0.024   8.955
12374WAT     H137364   4.671   0.034   8.921
12374WAT     H237365   4.762   0.006   9.054
12375WAT      O37366   2.477   7.888   3.414
12375WAT     H137367   2.527   7.963   3.370
12375WAT     H237368   2.397   7.925   3.461
12376WAT      O37369   0.541   0.811   0.224
12376WAT     H137370   0.537   0.833   0.126
12376WAT     H237371   0.462   0.755   0.248
12377WAT      O37372   3.553   6.345   9.090
12377WAT     H137373   3.542   6.344   8.990
12377WAT     H237374   3.477   6.394   9.131
12378WAT      O37375   3.508   6.274   5.298
12378WAT     H137376   3.412   6.302   5.286
12378WAT     H237377   3.543   6.314   5.383
12379WAT      O37378   2.605   2.725   2.627
12379WAT     H137379   2.635   2.649   2.570
12379WAT     H237380   2.550   2.690   2.703
12380WAT      O37381   7.697   5.605   8.102
12380WAT     H137382   7.605   5.576   8.127
12380WAT     H237383   7.701   5.622   8.003
12381WAT      O37384   6.110   4.503   1.490
12381WAT     H137385   6.135   4.435   1.422
12381WAT     H237386   6.033   4.470   1.544
12382WAT      O37387   0.605   6.091   1.775
12382WAT     H137388   0.692   6.050   1.746
12382WAT     H237389   0.556   6.027   1.834
12383WAT      O37390   6.706   2.008   3.191
12383WAT     H137391   6.685   2.062   3.272
12383WAT     H237392   6.790   2.042   3.149
12384WAT      O37393   9.741   1.262   5.742
12384WAT     H137394   9.710   1.331   5.677
12384WAT     H237395   9.678   1.184   5.740
12385WAT      O37396   2.423   8.652   0.625
12385WAT     H137397   2.394   8.571   0.574
12385WAT     H237398   2.465   8.718   0.563
12386WAT      O37399   6.385   2.229   0.134
12386WAT     H137400   6.412   2.178   0.052
12386WAT     H237401   6.364   2.164   0.208
12387WAT      O37402   2.325   4.137   1.444
12387WAT     H137403   2.370   4.167   1.360
12387WAT     H237404   2.255   4.069   1.423
12388WAT      O37405   3.069   0.306   4.676
12388WAT     H137406   3.073   0.206   4.684
12388WAT     H237407   3.160   0.341   4.653
12389WAT      O37408   6.184   4.296   8.626
12389WAT     H137409   6.206   4.199   8.612
12389WAT     H237410   6.228   4.350   8.554
12390WAT      O37411   9.449   6.213   4.945
12390WAT     H137412   9.358   6.174   4.959
12390WAT     H237413   9.513   6.140   4.923
12391WAT      O37414   6.958   1.644   8.698
12391WAT     H137415   6.939   1.719   8.634
12391WAT     H237416   7.056   1.642   8.719
12392WAT      O37417   9.673   2.091   4.496
12392WAT     H137418   9.589   2.038   4.498
12392WAT     H237419   9.690   2.130   4.587
12393WAT      O37420   5.049   2.730   8.060
12393WAT     H137421   5.008   2.778   7.983
12393WAT     H237422   5.028   2.632   8.053
12394WAT      O37423   0.708   1.466   4.215
12394WAT     H137424   0.635   1.515   4.167
12394WAT     H237425   0.744   1.523   4.289
12395WAT      O37426   5.763   9.141   4.880
12395WAT     H137427   5.681   9.167   4.929
12395WAT     H237428   5.756   9.045   4.851
12396WAT      O37429   7.624   2.192   2.078
12396WAT     H137430   7.587   2.238   1.998
12396WAT     H237431   7.696   2.129   2.050
12397WAT      O37432   6.560   1.886   4.712
12397WAT     H137433   6.646   1.842   4.684
12397WAT     H237434   6.547   1.970   4.659
12398WAT      O37435   2.991   4.606   3.279
12398WAT     H137436   2.893   4.603   3.297
12398WAT     H237437   3.008   4.598   3.181
12399WAT      O37438   4.224   2.784   8.604
12399WAT     H137439   4.250   2.729   8.524
12399WAT     H237440   4.274   2.870   8.603
12400WAT      O37441   0.319   2.720   9.155
12400WAT     H137442   0.417   2.708   9.140
12400WAT     H237443   0.291   2.811   9.124
12401WAT      O37444   3.616   2.581   7.092
12401WAT     H137445   3.692   2.633   7.052
12401WAT     H237446   3.536   2.587   7.032
12402WAT      O37447   4.377   9.761   1.509
12402WAT     H137448   4.423   9.673   1.520
12402WAT     H237449   4.331   9.786   1.594
12403WAT      O37450   7.645   1.029   4.143
12403WAT     H137451   7.687   1.118   4.161
12403WAT     H237452   7.701   0.957   4.183
12404WAT      O37453   0.269   5.061   5.786
12404WAT     H137454   0.306   5.151   5.809
12404WAT     H237455   0.175   5.071   5.754
12405WAT      O37456   1.817   7.796   1.439
12405WAT     H137457   1.765   7.868   1.392
12405WAT     H237458   1.764   7.763   1.518
12406WAT      O37459   7.114   5.266   2.045
12406WAT     H137460   7.041   5.333   2.054
12406WAT     H237461   7.114   5.205   2.125
12407WAT      O37462   6.560   5.796   7.356
12407WAT     H137463   6.487   5.858   7.325
12407WAT     H237464   6.561   5.715   7.298
12408WAT      O37465   5.563   0.761   4.004
12408WAT     H137466   5.488   0.755   4.070
12408WAT     H237467   5.624   0.683   4.017
12409WAT      O37468   9.233   7.754   6.937
12409WAT     H137469   9.199   7.769   6.844
12409WAT     H237470   9.273   7.839   6.972
12410WAT      O37471   8.667   2.033   7.793
12410WAT     H137472   8.660   2.068   7.700
12410WAT     H237473   8.646   2.105   7.859
12411WAT      O37474   9.201   2.040   3.194
12411WAT     H137475   9.208   2.140   3.186
12411WAT     H237476   9.219   1.999   3.105
12412WAT      O37477   8.328   3.706   0.665
12412WAT     H137478   8.340   3.749   0.576
12412WAT     H237479   8.230   3.695   0.684
12413WAT      O37480   2.183   2.006   2.986
12413WAT     H137481   2.237   1.945   3.045
12413WAT     H237482   2.152   2.085   3.038
12414WAT      O37483   6.896   1.847   0.319
12414WAT     H137484   6.842   1.812   0.396
12414WAT     H237485   6.841   1.842   0.235
12415WAT      O37486   4.605   5.533   2.174
12415WAT     H137487   4.524   5.567   2.222
12415WAT     H237488   4.582   5.514   2.079
12416WAT      O37489   2.061   9.601   2.817
12416WAT     H137490   2.100   9.602   2.909
12416WAT     H237491   1.987   9.667   2.811
12417WAT      O37492   1.458   0.315   3.464
12417WAT     H137493   1.548   0.273   3.476
12417WAT     H237494   1.403   0.300   3.546
12418WAT      O37495   3.477   2.146   4.612
12418WAT     H137496   3.553   2.171   4.671
12418WAT     H237497   3.395   2.197   4.639
12419WAT      O37498   3.719   6.119   2.361
12419WAT     H137499   3.695   6.073   2.447
12419WAT     H237500   3.767   6.055   2.302
12420WAT      O37501   5.892   8.009   9.720
12420WAT     H137502   5.842   8.059   9.649
12420WAT     H237503   5.975   8.059   9.744
12421WAT      O37504   7.791   4.195   9.429
12421WAT     H137505   7.772   4.267   9.362
12421WAT     H237506   7.718   4.194   9.498
12422WAT      O37507   8.122   9.542   8.765
12422WAT     H137508   8.107   9.582   8.855
12422WAT     H237509   8.218   9.517   8.755
12423WAT      O37510   5.199   3.365   2.160
12423WAT     H137511   5.222   3.459   2.187
12423WAT     H237512   5.219   3.352   2.063
12424WAT      O37513   7.148   3.993   1.475
12424WAT     H137514   7.096   3.947   1.548
12424WAT     H237515   7.220   4.049   1.516
12425WAT      O37516   8.788   6.805   9.392
12425WAT     H137517   8.743   6.876   9.446
12425WAT     H237518   8.798   6.835   9.298
12426WAT      O37519   3.354   2.124   8.236
12426WAT     H137520   3.299   2.198   8.275
12426WAT     H237521   3.385   2.150   8.145
12427WAT      O37522   6.530   6.161   2.489
12427WAT     H137523   6.620   6.146   2.448
12427WAT     H237524   6.496   6.251   2.463
12428WAT      O37525   2.776   7.068   6.459
12428WAT     H137526   2.825   7.119   6.528
12428WAT     H237527   2.791   7.109   6.369
12429WAT      O37528   7.008   5.907   7.585
12429WAT     H137529   7.050   5.956   7.662
12429WAT     H237530   7.064   5.828   7.561
12430WAT      O37531   5.215   6.607   8.767
12430WAT     H137532   5.241   6.588   8.672
12430WAT     H237533   5.116   6.615   8.773
12431WAT      O37534   7.225   4.149   7.033
12431WAT     H137535   7.179   4.065   7.003
12431WAT     H237536   7.251   4.203   6.952
12432WAT      O37537   9.852   7.743   9.637
12432WAT     H137538   9.772   7.711   9.688
12432WAT     H237539   9.901   7.811   9.692
12433WAT      O37540   0.816   3.514   3.179
12433WAT     H137541   0.768   3.584   3.128
12433WAT     H237542   0.914   3.536   3.183
12434WAT      O37543   7.965   7.802   8.845
12434WAT     H137544   7.946   7.890   8.801
12434WAT     H237545   8.050   7.764   8.810
12435WAT      O37546   1.580   6.929   8.676
12435WAT     H137547   1.571   6.872   8.595
12435WAT     H237548   1.641   6.885   8.742
12436WAT      O37549   2.801   4.024   1.078
12436WAT     H137550   2.705   4.001   1.095
12436WAT     H237551   2.859   3.967   1.137
12437WAT      O37552   6.624   4.401   5.238
12437WAT     H137553   6.642   4.305   5.257
12437WAT     H237554   6.544   4.431   5.291
12438WAT      O37555   8.530   0.203   7.136
12438WAT     H137556   8.584   0.124   7.167
12438WAT     H237557   8.434   0.178   7.131
12439WAT      O37558   4.765   5.027   3.423
12439WAT     H137559   4.796   5.076   3.342
12439WAT     H237560   4.771   5.088   3.503
12440WAT      O37561   4.520   9.726   9.213
12440WAT     H137562   4.620   9.731   9.212
12440WAT     H237563   4.492   9.641   9.257
12441WAT      O37564   6.890   0.553   8.870
12441WAT     H137565   6.840   0.632   8.907
12441WAT     H237566   6.970   0.535   8.928
12442WAT      O37567   8.624   1.404   8.269
12442WAT     H137568   8.550   1.464   8.237
12442WAT     H237569   8.628   1.323   8.211
12443WAT      O37570   7.266   5.115   6.115
12443WAT     H137571   7.228   5.030   6.077
12443WAT     H237572   7.227   5.131   6.205
12444WAT      O37573   2.309   1.829   3.140
12444WAT     H137574   2.305   1.744   3.191
12444WAT     H237575   2.404   1.850   3.118
12445WAT      O37576   3.580   6.793   0.275
12445WAT     H137577   3.568   6.881   0.228
12445WAT     H237578   3.523   6.791   0.357
12446WAT      O37579   0.583   9.040   4.222
12446WAT     H137580   0.522   8.988   4.282
12446WAT     H237581   0.606   8.984   4.143
12447WAT      O37582   3.068   2.263   3.957
12447WAT     H137583   3.055   2.216   3.870
12447WAT     H237584   3.141   2.331   3.949
12448WAT      O37585   9.007   4.107   9.584
12448WAT     H137586   9.027   4.045   9.509
12448WAT     H237587   8.949   4.182   9.551
12449WAT      O37588   4.726   8.513   8.421
12449WAT     H137589   4.716   8.544   8.515
12449WAT     H237590   4.817   8.539   8.387
12450WAT      O37591   2.759   5.891   0.484
12450WAT     H137592   2.789   5.803   0.447
12450WAT     H237593   2.700   5.876   0.563
12451WAT      O37594   5.242   6.451   3.228
12451WAT     H137595   5.149   6.418   3.247
12451WAT     H237596   5.289   6.469   3.314
12452WAT      O37597   3.097   5.673   0.987
12452WAT     H137598   3.057   5.763   0.971
12452WAT     H237599   3.093   5.618   0.903
12453WAT      O37600   6.626   4.124   7.294
12453WAT     H137601   6.722   4.106   7.274
12453WAT     H237602   6.603   4.218   7.269
12454WAT      O37603   3.289   6.452   7.802
12454WAT     H137604   3.296   6.468   7.901
12454WAT     H237605   3.377   6.421   7.768
12455WAT      O37606   4.117   1.785   7.291
12455WAT     H137607   4.137   1.865   7.349
12455WAT     H237608   4.020   1.762   7.298
12456WAT      O37609   3.579   0.521   0.572
12456WAT     H137610   3.577   0.448   0.504
12456WAT     H237611   3.550   0.607   0.530
12457WAT      O37612   4.490   1.471   3.352
12457WAT     H137613   4.579   1.431   3.332
12457WAT     H237614   4.502   1.551   3.410
12458WAT      O37615   3.856   6.423   5.290
12458WAT     H137616   3.926   6.369   5.244
12458WAT     H237617   3.820   6.491   5.227
12459WAT      O37618   8.499   3.477   2.854
12459WAT     H137619   8.536   3.545   2.918
12459WAT     H237620   8.501   3.387   2.897
12460WAT      O37621   4.967   7.871   6.977
12460WAT     H137622   5.059   7.835   6.965
12460WAT     H237623   4.928   7.894   6.888
12461WAT      O37624   7.239   5.148   9.554
12461WAT     H137625   7.226   5.091   9.473
12461WAT     H237626   7.314   5.111   9.610
12462WAT      O37627   6.191   3.156   7.438
12462WAT     H137628   6.181   3.239   7.492
12462WAT     H237629   6.141   3.081   7.482
12463WAT      O37630   7.396   1.640   3.388
12463WAT     H137631   7.300   1.650   3.362
12463WAT     H237632   7.406   1.563   3.451
12464WAT      O37633   8.504   0.132   5.043
12464WAT     H137634   8.596   0.106   5.070
12464WAT     H237635   8.465   0.062   4.983
12465WAT      O37636   5.919   7.313   8.298
12465WAT     H137637   5.955   7.365   8.375
12465WAT     H237638   5.922   7.370   8.216
12466WAT      O37639   2.147   8.726   6.866
12466WAT     H137640   2.104   8.689   6.783
12466WAT     H237641   2.215   8.661   6.899
12467WAT      O37642   4.079   6.211   1.454
12467WAT     H137643   4.001   6.215   1.391
12467WAT     H237644   4.075   6.125   1.506
12468WAT      O37645   5.067   5.817   9.664
12468WAT     H137646   5.164   5.793   9.665
12468WAT     H237647   5.054   5.903   9.713
12469WAT      O37648   8.738   9.613   5.947
12469WAT     H137649   8.820   9.572   5.985
12469WAT     H237650   8.757   9.709   5.923
12470WAT      O37651   1.089   6.379   7.193
12470WAT     H137652   1.112   6.321   7.272
12470WAT     H237653   1.132   6.341   7.111
12471WAT      O37654   0.123   3.945   6.266
12471WAT     H137655   0.032   3.984   6.253
12471WAT     H237656   0.116   3.863   6.324
12472WAT      O37657   6.244   6.151   8.282
12472WAT     H137658   6.278   6.085   8.349
12472WAT     H237659   6.157   6.189   8.313
12473WAT      O37660   3.507   2.079   7.545
12473WAT     H137661   3.529   2.175   7.566
12473WAT     H237662   3.583   2.021   7.574
12474WAT      O37663   7.416   3.579   4.300
12474WAT     H137664   7.380   3.488   4.285
12474WAT     H237665   7.350   3.647   4.270
12475WAT      O37666   8.661   2.887   4.279
12475WAT     H137667   8.694   2.812   4.222
12475WAT     H237668   8.729   2.960   4.279
12476WAT      O37669   3.340   5.161   1.371
12476WAT     H137670   3.279   5.085   1.351
12476WAT     H237671   3.322   5.237   1.308
12477WAT      O37672   3.773   6.855   1.535
12477WAT     H137673   3.864   6.831   1.568
12477WAT     H237674   3.763   6.954   1.534
12478WAT      O37675   5.614   3.444   4.205
12478WAT     H137676   5.533   3.394   4.238
12478WAT     H237677   5.693   3.383   4.206
12479WAT      O37678   4.318   3.174   0.912
12479WAT     H137679   4.218   3.169   0.914
12479WAT     H237680   4.355   3.084   0.890
12480WAT      O37681   0.692   7.010   4.182
12480WAT     H137682   0.684   7.103   4.217
12480WAT     H237683   0.605   6.982   4.141
12481WAT      O37684   0.563   4.905   0.011
12481WAT     H137685   0.466   4.904  -0.013
12481WAT     H237686   0.574   4.929   0.107
12482WAT      O37687   6.349   8.325   4.843
12482WAT     H137688   6.330   8.274   4.758
12482WAT     H237689   6.404   8.406   4.822
12483WAT      O37690   8.137   3.983   2.605
12483WAT     H137691   8.094   4.053   2.547
12483WAT     H237692   8.067   3.938   2.660
12484WAT      O37693   6.706   0.822   7.197
12484WAT     H137694   6.634   0.891   7.210
12484WAT     H237695   6.665   0.735   7.172
12485WAT      O37696   5.790   6.768   5.310
12485WAT     H137697   5.789   6.696   5.380
12485WAT     H237698   5.709   6.761   5.253
12486WAT      O37699   0.220   6.286   1.466
12486WAT     H137700   0.183   6.232   1.390
12486WAT     H237701   0.289   6.232   1.514
12487WAT      O37702   9.187   7.854   1.036
12487WAT     H137703   9.253   7.859   0.961
12487WAT     H237704   9.100   7.892   1.007
12488WAT      O37705   2.508   0.594   8.464
12488WAT     H137706   2.469   0.507   8.495
12488WAT     H237707   2.608   0.586   8.460
12489WAT      O37708   4.407   2.066   5.398
12489WAT     H137709   4.357   2.122   5.331
12489WAT     H237710   4.403   2.111   5.487
12490WAT      O37711   0.159   4.674   7.208
12490WAT     H137712   0.146   4.663   7.307
12490WAT     H237713   0.073   4.659   7.161
12491WAT      O37714   5.993   4.452   7.075
12491WAT     H137715   5.936   4.378   7.037
12491WAT     H237716   5.934   4.528   7.103
12492WAT      O37717   1.606   2.373   7.009
12492WAT     H137718   1.635   2.464   6.979
12492WAT     H237719   1.542   2.335   6.943
12493WAT      O37720   2.452   6.506   0.544
12493WAT     H137721   2.512   6.578   0.580
12493WAT     H237722   2.443   6.433   0.611
12494WAT      O37723   2.353   4.897   5.148
12494WAT     H137724   2.330   4.913   5.244
12494WAT     H237725   2.383   4.803   5.135
12495WAT      O37726   0.102   8.675   4.146
12495WAT     H137727   0.118   8.675   4.245
12495WAT     H237728   0.022   8.731   4.125
12496WAT      O37729   1.697   8.286   1.781
12496WAT     H137730   1.792   8.305   1.808
12496WAT     H237731   1.670   8.195   1.815
12497WAT      O37732   6.215   3.068   4.936
12497WAT     H137733   6.232   3.022   4.850
12497WAT     H237734   6.181   3.003   5.004
12498WAT      O37735   6.890   9.022   3.151
12498WAT     H137736   6.959   8.974   3.096
12498WAT     H237737   6.889   8.983   3.243
12499WAT      O37738   6.773   4.157   1.304
12499WAT     H137739   6.834   4.219   1.353
12499WAT     H237740   6.826   4.082   1.264
12500WAT      O37741   1.324   6.818   1.622
12500WAT     H137742   1.400   6.881   1.604
12500WAT     H237743   1.306   6.764   1.540
12501WAT      O37744   6.923   4.530   5.481
12501WAT     H137745   6.893   4.563   5.392
12501WAT     H237746   6.871   4.576   5.553
12502WAT      O37747   9.842   1.897   3.729
12502WAT     H137748   9.930   1.915   3.772
12502WAT     H237749   9.774   1.874   3.799
12503WAT      O37750   0.994   2.595   6.526
12503WAT     H137751   0.961   2.676   6.478
12503WAT     H237752   0.921   2.527   6.532
12504WAT      O37753   1.942   3.445   8.151
12504WAT     H137754   1.998   3.404   8.079
12504WAT     H237755   1.927   3.378   8.224
12505WAT      O37756   1.548   5.117   1.393
12505WAT     H137757   1.546   5.205   1.345
12505WAT     H237758   1.640   5.099   1.426
12506WAT      O37759   1.412   3.366   8.503
12506WAT     H137760   1.453   3.424   8.434
12506WAT     H237761   1.399   3.274   8.466
12507WAT      O37762   4.267   2.501   4.253
12507WAT     H137763   4.212   2.446   4.191
12507WAT     H237764   4.298   2.584   4.206
12508WAT      O37765   2.998   1.757   6.191
12508WAT     H137766   3.029   1.783   6.282
12508WAT     H237767   2.997   1.838   6.132
12509WAT      O37768   4.460   4.422   2.021
12509WAT     H137769   4.403   4.433   2.102
12509WAT     H237770   4.508   4.334   2.025
12510WAT      O37771   3.929   6.043   7.416
12510WAT     H137772   3.921   6.004   7.324
12510WAT     H237773   3.912   5.972   7.484
12511WAT      O37774   2.711   4.984   4.237
12511WAT     H137775   2.719   4.975   4.138
12511WAT     H237776   2.634   5.043   4.259
12512WAT      O37777   3.957   0.934   9.320
12512WAT     H137778   4.056   0.937   9.311
12512WAT     H237779   3.930   0.859   9.380
12513WAT      O37780   3.166   8.864   7.750
12513WAT     H137781   3.211   8.833   7.834
12513WAT     H237782   3.214   8.944   7.713
12514WAT      O37783   6.659   3.922   8.049
12514WAT     H137784   6.638   3.951   7.956
12514WAT     H237785   6.747   3.876   8.051
12515WAT      O37786   2.993   6.815   0.419
12515WAT     H137787   3.050   6.855   0.347
12515WAT     H237788   3.010   6.717   0.425
12516WAT      O37789   3.250   9.704   6.070
12516WAT     H137790   3.253   9.706   6.170
12516WAT     H237791   3.169   9.654   6.040
12517WAT      O37792   8.669   4.922   8.064
12517WAT     H137793   8.582   4.946   8.020
12517WAT     H237794   8.656   4.840   8.120
12518WAT      O37795   7.087   1.510   1.165
12518WAT     H137796   7.185   1.492   1.173
12518WAT     H237797   7.069   1.555   1.077
12519WAT      O37798   1.520   8.200   2.627
12519WAT     H137799   1.502   8.122   2.567
12519WAT     H237800   1.607   8.241   2.603
12520WAT      O37801   3.192   6.358   0.996
12520WAT     H137802   3.248   6.411   1.059
12520WAT     H237803   3.095   6.373   1.015
12521WAT      O37804   4.367   4.010   4.870
12521WAT     H137805   4.285   4.065   4.877
12521WAT     H237806   4.344   3.920   4.832
12522WAT      O37807   3.439   9.017   9.551
12522WAT     H137808   3.504   9.088   9.581
12522WAT     H237809   3.444   9.007   9.452
12523WAT      O37810   6.940   9.676   2.278
12523WAT     H137811   6.915   9.771   2.296
12523WAT     H237812   6.858   9.623   2.257
12524WAT      O37813   5.729   6.307   9.746
12524WAT     H137814   5.631   6.329   9.743
12524WAT     H237815   5.779   6.382   9.789
12525WAT      O37816   4.054   8.178   0.795
12525WAT     H137817   3.993   8.104   0.766
12525WAT     H237818   4.137   8.176   0.738
12526WAT      O37819   5.455   3.087   3.634
12526WAT     H137820   5.377   3.031   3.660
12526WAT     H237821   5.464   3.087   3.534
12527WAT      O37822   2.934   2.170   8.833
12527WAT     H137823   2.970   2.236   8.767
12527WAT     H237824   2.936   2.078   8.793
12528WAT      O37825   6.814   5.531   1.480
12528WAT     H137826   6.852   5.439   1.473
12528WAT     H237827   6.742   5.532   1.549
12529WAT      O37828   1.286   3.782   3.256
12529WAT     H137829   1.305   3.788   3.158
12529WAT     H237830   1.199   3.735   3.270
12530WAT      O37831   2.668   8.225   0.238
12530WAT     H137832   2.681   8.191   0.331
12530WAT     H237833   2.662   8.325   0.240
12531WAT      O37834   1.773   9.555   1.440
12531WAT     H137835   1.805   9.579   1.532
12531WAT     H237836   1.752   9.457   1.436
12532WAT      O37837   1.038   4.705   7.996
12532WAT     H137838   0.959   4.713   7.935
12532WAT     H237839   1.015   4.743   8.085
12533WAT      O37840   3.650   7.050   5.458
12533WAT     H137841   3.626   6.967   5.508
12533WAT     H237842   3.591   7.060   5.378
12534WAT      O37843   5.107   3.195   9.079
12534WAT     H137844   5.161   3.231   9.004
12534WAT     H237845   5.012   3.226   9.070
12535WAT      O37846   0.044   2.752   8.086
12535WAT     H137847   0.089   2.786   8.169
12535WAT     H237848  -0.042   2.801   8.072
12536WAT      O37849   6.076   6.891   0.450
12536WAT     H137850   6.085   6.795   0.422
12536WAT     H237851   5.981   6.911   0.473
12537WAT      O37852   6.113   2.061   2.918
12537WAT     H137853   6.066   2.120   2.852
12537WAT     H237854   6.138   2.115   2.998
12538WAT      O37855   7.457   4.502   7.922
12538WAT     H137856   7.413   4.413   7.930
12538WAT     H237857   7.512   4.519   8.004
12539WAT      O37858   5.682   7.018   4.604
12539WAT     H137859   5.691   6.967   4.518
12539WAT     H237860   5.591   7.000   4.643
12540WAT      O37861   4.157   7.969   8.349
12540WAT     H137862   4.065   7.947   8.381
12540WAT     H237863   4.169   7.937   8.255
12541WAT      O37864   3.288   5.238   5.406
12541WAT     H137865   3.203   5.286   5.383
12541WAT     H237866   3.354   5.303   5.444
12542WAT      O37867   2.563   2.714   6.636
12542WAT     H137868   2.544   2.625   6.679
12542WAT     H237869   2.496   2.781   6.668
12543WAT      O37870   6.541   4.763   0.757
12543WAT     H137871   6.520   4.687   0.818
12543WAT     H237872   6.563   4.728   0.666
12544WAT      O37873   3.340   4.655   1.994
12544WAT     H137874   3.249   4.646   2.034
12544WAT     H237875   3.374   4.565   1.967
12545WAT      O37876   0.576   5.815   3.218
12545WAT     H137877   0.590   5.725   3.176
12545WAT     H237878   0.663   5.864   3.222
12546WAT      O37879   9.619   4.017   4.640
12546WAT     H137880   9.598   4.046   4.733
12546WAT     H237881   9.680   4.084   4.598
12547WAT      O37882   7.194   6.873   7.891
12547WAT     H137883   7.281   6.855   7.938
12547WAT     H237884   7.122   6.888   7.959
12548WAT      O37885   0.446   0.057   0.232
12548WAT     H137886   0.437   0.048   0.133
12548WAT     H237887   0.377   0.001   0.278
12549WAT      O37888   9.797   5.658   8.077
12549WAT     H137889   9.813   5.652   7.979
12549WAT     H237890   9.711   5.613   8.099
12550WAT      O37891   6.576   0.596   7.050
12550WAT     H137892   6.554   0.504   7.084
12550WAT     H237893   6.572   0.596   6.950
12551WAT      O37894   6.934   7.032   0.713
12551WAT     H137895   6.994   7.002   0.787
12551WAT     H237896   6.841   7.002   0.731
12552WAT      O37897   2.543   7.267   5.550
12552WAT     H137898   2.619   7.298   5.492
12552WAT     H237899   2.494   7.194   5.504
12553WAT      O37900   5.041   5.532   2.368
12553WAT     H137901   4.992   5.472   2.304
12553WAT     H237902   5.127   5.562   2.328
12554WAT      O37903   7.734   7.160   2.510
12554WAT     H137904   7.717   7.246   2.462
12554WAT     H237905   7.653   7.136   2.564
12555WAT      O37906   5.707   0.162   8.405
12555WAT     H137907   5.688   0.147   8.502
12555WAT     H237908   5.782   0.101   8.377
12556WAT      O37909   1.692   0.302   8.048
12556WAT     H137910   1.594   0.285   8.060
12556WAT     H237911   1.705   0.390   8.002
12557WAT      O37912   0.399   8.632   0.521
12557WAT     H137913   0.424   8.721   0.483
12557WAT     H237914   0.301   8.617   0.510
12558WAT      O37915   5.844   5.890   8.418
12558WAT     H137916   5.939   5.858   8.420
12558WAT     H237917   5.841   5.989   8.431
12559WAT      O37918   6.305   4.774   8.986
12559WAT     H137919   6.370   4.849   8.976
12559WAT     H237920   6.322   4.704   8.916
12560WAT      O37921   9.553   8.705   2.350
12560WAT     H137922   9.486   8.772   2.316
12560WAT     H237923   9.536   8.687   2.446
12561WAT      O37924   9.804   7.314   8.184
12561WAT     H137925   9.869   7.250   8.142
12561WAT     H237926   9.742   7.264   8.244
12562WAT      O37927   3.385   9.443   4.477
12562WAT     H137928   3.436   9.425   4.392
12562WAT     H237929   3.360   9.540   4.480
12563WAT      O37930   2.071   1.759   8.320
12563WAT     H137931   2.126   1.722   8.245
12563WAT     H237932   1.991   1.806   8.283
12564WAT      O37933   2.235   6.307   3.336
12564WAT     H137934   2.304   6.342   3.273
12564WAT     H237935   2.237   6.207   3.336
12565WAT      O37936   2.336   2.426   5.308
12565WAT     H137937   2.337   2.456   5.403
12565WAT     H237938   2.409   2.360   5.293
12566WAT      O37939   9.162   1.693   8.953
12566WAT     H137940   9.181   1.791   8.964
12566WAT     H237941   9.248   1.644   8.944
12567WAT      O37942   9.448   9.586  -0.000
12567WAT     H137943   9.396   9.521   0.056
12567WAT     H237944   9.500   9.647   0.060
12568WAT      O37945   0.969   7.608   1.673
12568WAT     H137946   0.995   7.584   1.767
12568WAT     H237947   0.895   7.675   1.676
12569WAT      O37948   2.454   9.287   0.989
12569WAT     H137949   2.484   9.194   1.011
12569WAT     H237950   2.367   9.283   0.940
12570WAT      O37951   6.777   1.689   9.249
12570WAT     H137952   6.767   1.768   9.189
12570WAT     H237953   6.811   1.611   9.197
12571WAT      O37954   3.239   4.023   0.304
12571WAT     H137955   3.192   4.023   0.216
12571WAT     H237956   3.272   3.931   0.324
12572WAT      O37957   6.763   9.196   0.190
12572WAT     H137958   6.699   9.271   0.206
12572WAT     H237959   6.737   9.117   0.246
12573WAT      O37960   3.001   0.353   1.493
12573WAT     H137961   3.095   0.375   1.520
12573WAT     H237962   2.961   0.290   1.559
12574WAT      O37963   2.192   1.625   7.882
12574WAT     H137964   2.200   1.613   7.981
12574WAT     H237965   2.276   1.665   7.846
12575WAT      O37966   6.096   2.930   5.128
12575WAT     H137967   6.117   2.833   5.136
12575WAT     H237968   6.009   2.942   5.080
12576WAT      O37969   9.751   4.098   3.665
12576WAT     H137970   9.784   4.010   3.633
12576WAT     H237971   9.823   4.144   3.717
12577WAT      O37972   9.342   7.372   5.188
12577WAT     H137973   9.414   7.407   5.248
12577WAT     H237974   9.265   7.340   5.242
12578WAT      O37975   0.541   6.972   3.349
12578WAT     H137976   0.604   7.024   3.406
12578WAT     H237977   0.449   6.976   3.387
12579WAT      O37978   9.763   4.705   8.133
12579WAT     H137979   9.815   4.770   8.188
12579WAT     H237980   9.768   4.731   8.036
12580WAT      O37981   5.395   2.044   7.227
12580WAT     H137982   5.375   2.021   7.323
12580WAT     H237983   5.309   2.056   7.178
12581WAT      O37984   9.246   1.731   3.622
12581WAT     H137985   9.246   1.755   3.525
12581WAT     H237986   9.181   1.656   3.638
12582WAT      O37987   2.874   4.309   8.338
12582WAT     H137988   2.809   4.268   8.402
12582WAT     H237989   2.891   4.404   8.365
12583WAT      O37990   3.454   4.677   7.877
12583WAT     H137991   3.481   4.704   7.969
12583WAT     H237992   3.535   4.669   7.819
12584WAT      O37993   6.066   9.120   9.304
12584WAT     H137994   6.082   9.043   9.242
12584WAT     H237995   6.112   9.201   9.268
12585WAT      O37996   5.285   8.924   6.301
12585WAT     H137997   5.334   8.925   6.388
12585WAT     H237998   5.302   9.009   6.252
12586WAT      O37999   1.344   7.152   7.609
12586WAT     H138000   1.295   7.196   7.534
12586WAT     H238001   1.442   7.160   7.593
12587WAT      O38002   1.715   5.791   2.189
12587WAT     H138003   1.789   5.816   2.252
12587WAT     H238004   1.747   5.720   2.127
12588WAT      O38005   8.617   8.391   9.228
12588WAT     H138006   8.579   8.324   9.165
12588WAT     H238007   8.596   8.364   9.322
12589WAT      O38008   7.748   7.342   2.301
12589WAT     H138009   7.688   7.386   2.234
12589WAT     H238010   7.843   7.365   2.281
12590WAT      O38011   8.731   0.862   5.848
12590WAT     H138012   8.644   0.891   5.808
12590WAT     H238013   8.804   0.921   5.814
12591WAT      O38014   7.035   9.783   5.880
12591WAT     H138015   7.014   9.695   5.839
12591WAT     H238016   7.133   9.803   5.869
12592WAT      O38017   3.289   9.649   4.169
12592WAT     H138018   3.309   9.682   4.261
12592WAT     H238019   3.362   9.588   4.139
12593WAT      O38020   5.182   1.564   3.116
12593WAT     H138021   5.112   1.620   3.072
12593WAT     H238022   5.165   1.559   3.214
12594WAT      O38023   3.282   5.486   9.334
12594WAT     H138024   3.254   5.448   9.246
12594WAT     H238025   3.348   5.559   9.319
12595WAT      O38026   0.081   1.653   0.801
12595WAT     H138027   0.132   1.603   0.871
12595WAT     H238028   0.133   1.653   0.716
12596WAT      O38029   1.566   8.219   1.035
12596WAT     H138030   1.627   8.189   1.108
12596WAT     H238031   1.526   8.139   0.991
12597WAT      O38032   5.281   6.125   5.448
12597WAT     H138033   5.287   6.123   5.348
12597WAT     H238034   5.324   6.043   5.485
12598WAT      O38035   6.758   2.284   1.528
12598WAT     H138036   6.833   2.347   1.552
12598WAT     H238037   6.796   2.204   1.481
12599WAT      O38038   3.390   7.413   5.207
12599WAT     H138039   3.355   7.412   5.113
12599WAT     H238040   3.314   7.398   5.270
12600WAT      O38041   3.675   5.345   4.373
12600WAT     H138042   3.639   5.385   4.289
12600WAT     H238043   3.600   5.302   4.423
12601WAT      O38044   5.638   3.923   1.448
12601WAT     H138045   5.710   3.916   1.518
12601WAT     H238046   5.637   3.840   1.393
12602WAT      O38047   8.217   8.314   9.829
12602WAT     H138048   8.228   8.395   9.771
12602WAT     H238049   8.124   8.311   9.865
12603WAT      O38050   5.433   7.747   2.323
12603WAT     H138051   5.477   7.820   2.376
12603WAT     H238052   5.449   7.659   2.368
12604WAT      O38053   8.639   6.323   2.242
12604WAT     H138054   8.713   6.324   2.308
12604WAT     H238055   8.640   6.407   2.188
12605WAT      O38056   2.677   3.726   0.142
12605WAT     H138057   2.754   3.781   0.109
12605WAT     H238058   2.662   3.650   0.079
12606WAT      O38059   3.623   9.272   5.085
12606WAT     H138060   3.533   9.233   5.104
12606WAT     H238061   3.693   9.217   5.130
12607WAT      O38062   1.577   5.458   0.868
12607WAT     H138063   1.619   5.374   0.904
12607WAT     H238064   1.480   5.460   0.893
12608WAT      O38065   2.607   2.900   8.530
12608WAT     H138066   2.557   2.986   8.523
12608WAT     H238067   2.559   2.829   8.479
12609WAT      O38068   5.200   9.820   0.285
12609WAT     H138069   5.258   9.837   0.365
12609WAT     H238070   5.216   9.726   0.253
12610WAT      O38071   3.056   5.302   3.494
12610WAT     H138072   3.085   5.208   3.477
12610WAT     H238073   3.052   5.352   3.407
12611WAT      O38074   6.557   8.357   0.371
12611WAT     H138075   6.478   8.357   0.433
12611WAT     H238076   6.538   8.418   0.294
12612WAT      O38077   1.296   9.175   5.651
12612WAT     H138078   1.328   9.089   5.610
12612WAT     H238079   1.374   9.236   5.665
12613WAT      O38080   5.543   6.844   2.959
12613WAT     H138081   5.499   6.797   2.882
12613WAT     H238082   5.619   6.900   2.924
12614WAT      O38083   8.633   4.708   6.911
12614WAT     H138084   8.662   4.641   6.980
12614WAT     H238085   8.644   4.668   6.820
12615WAT      O38086   6.524   6.271   6.531
12615WAT     H138087   6.558   6.257   6.624
12615WAT     H238088   6.593   6.240   6.465
12616WAT      O38089   4.641   0.402   7.270
12616WAT     H138090   4.708   0.419   7.342
12616WAT     H238091   4.552   0.439   7.298
12617WAT      O38092   4.685   4.197   4.626
12617WAT     H138093   4.774   4.159   4.648
12617WAT     H238094   4.685   4.231   4.532
12618WAT      O38095   0.149   1.323   1.735
12618WAT     H138096   0.210   1.343   1.658
12618WAT     H238097   0.075   1.390   1.737
12619WAT      O38098   1.101   1.581   5.037
12619WAT     H138099   1.111   1.658   5.100
12619WAT     H238100   1.175   1.515   5.054
12620WAT      O38101   6.958   9.714   8.559
12620WAT     H138102   6.913   9.800   8.582
12620WAT     H238103   6.967   9.658   8.642
12621WAT      O38104   6.219   8.980   8.690
12621WAT     H138105   6.157   8.995   8.612
12621WAT     H238106   6.288   9.051   8.692
12622WAT      O38107   1.968   2.977   3.648
12622WAT     H138108   1.985   3.053   3.711
12622WAT     H238109   1.921   2.903   3.696
12623WAT      O38110   8.529   6.576   1.507
12623WAT     H138111   8.569   6.641   1.572
12623WAT     H238112   8.452   6.619   1.459
12624WAT      O38113   4.456   8.486   8.943
12624WAT     H138114   4.370   8.436   8.930
12624WAT     H238115   4.521   8.429   8.992
12625WAT      O38116   6.875   6.260   3.404
12625WAT     H138117   6.855   6.354   3.376
12625WAT     H238118   6.854   6.248   3.501
12626WAT      O38119   2.304   2.656   0.208
12626WAT     H138120   2.206   2.656   0.190
12626WAT     H238121   2.329   2.740   0.257
12627WAT      O38122   1.155   4.760   5.167
12627WAT     H138123   1.162   4.661   5.172
12627WAT     H238124   1.243   4.798   5.139
12628WAT      O38125   1.731   0.548   5.401
12628WAT     H138126   1.806   0.608   5.373
12628WAT     H238127   1.769   0.461   5.433
12629WAT      O38128   1.976   3.456   4.925
12629WAT     H138129   1.933   3.418   4.843
12629WAT     H238130   2.065   3.496   4.901
12630WAT      O38131   5.149   6.277   1.757
12630WAT     H138132   5.144   6.360   1.813
12630WAT     H238133   5.090   6.288   1.676
12631WAT      O38134   0.865   7.484   9.716
12631WAT     H138135   0.877   7.466   9.619
12631WAT     H238136   0.933   7.432   9.769
12632WAT      O38137   3.387   7.855   0.299
12632WAT     H138138   3.397   7.755   0.303
12632WAT     H238139   3.392   7.892   0.391
12633WAT      O38140   0.189   5.774   6.707
12633WAT     H138141   0.254   5.699   6.723
12633WAT     H238142   0.238   5.861   6.703
12634WAT      O38143   2.026   5.634   6.898
12634WAT     H138144   1.963   5.616   6.974
12634WAT     H238145   2.117   5.653   6.934
12635WAT      O38146   2.117   7.314   5.524
12635WAT     H138147   2.202   7.368   5.521
12635WAT     H238148   2.057   7.351   5.595
12636WAT      O38149   1.779   7.251   4.205
12636WAT     H138150   1.832   7.335   4.215
12636WAT     H238151   1.784   7.198   4.290
12637WAT      O38152   0.702   1.891   3.974
12637WAT     H138153   0.790   1.928   3.946
12637WAT     H238154   0.714   1.796   4.004
12638WAT      O38155   1.073   5.906   9.042
12638WAT     H138156   1.023   5.927   8.958
12638WAT     H238157   1.094   5.990   9.091
12639WAT      O38158   5.096   4.758   3.547
12639WAT     H138159   5.004   4.766   3.585
12639WAT     H238160   5.133   4.850   3.531
12640WAT      O38161   5.286   1.012   2.612
12640WAT     H138162   5.263   0.919   2.641
12640WAT     H238163   5.353   1.008   2.538
12641WAT      O38164   0.310   3.634   9.666
12641WAT     H138165   0.346   3.567   9.602
12641WAT     H238166   0.372   3.713   9.670
12642WAT      O38167   0.522   0.728   5.830
12642WAT     H138168   0.464   0.709   5.750
12642WAT     H238169   0.493   0.813   5.873
12643WAT      O38170   4.789   7.005   6.938
12643WAT     H138171   4.831   7.032   7.025
12643WAT     H238172   4.700   6.963   6.956
12644WAT      O38173   4.400   7.664   0.255
12644WAT     H138174   4.437   7.573   0.274
12644WAT     H238175   4.451   7.733   0.306
12645WAT      O38176   5.948   6.163   6.786
12645WAT     H138177   5.859   6.144   6.828
12645WAT     H238178   5.950   6.257   6.752
12646WAT      O38179   5.210   9.694   5.289
12646WAT     H138180   5.146   9.681   5.365
12646WAT     H238181   5.213   9.791   5.265
12647WAT      O38182   6.764   7.140   2.563
12647WAT     H138183   6.710   7.174   2.640
12647WAT     H238184   6.707   7.080   2.506
12648WAT      O38185   1.607   4.296   2.053
12648WAT     H138186   1.581   4.390   2.078
12648WAT     H238187   1.645   4.296   1.961
12649WAT      O38188   9.067   2.052   7.331
12649WAT     H138189   9.006   1.998   7.388
12649WAT     H238190   9.014   2.107   7.266
12650WAT      O38191   8.804   2.259   3.129
12650WAT     H138192   8.819   2.351   3.164
12650WAT     H238193   8.786   2.196   3.205
12651WAT      O38194   0.424   9.426   5.075
12651WAT     H138195   0.370   9.497   5.029
12651WAT     H238196   0.521   9.441   5.058
12652WAT      O38197   9.085   2.037   8.746
12652WAT     H138198   9.038   2.115   8.706
12652WAT     H238199   9.181   2.037   8.718
12653WAT      O38200   9.292   7.827   2.712
12653WAT     H138201   9.390   7.811   2.701
12653WAT     H238202   9.249   7.746   2.751
12654WAT      O38203   0.454   6.232   2.756
12654WAT     H138204   0.522   6.305   2.766
12654WAT     H238205   0.492   6.157   2.703
12655WAT      O38206   6.165   8.539   4.585
12655WAT     H138207   6.227   8.589   4.525
12655WAT     H238208   6.155   8.588   4.672
12656WAT      O38209   2.431   3.042   7.443
12656WAT     H138210   2.370   3.073   7.516
12656WAT     H238211   2.465   3.122   7.392
12657WAT      O38212   4.525   4.723   4.781
12657WAT     H138213   4.601   4.673   4.740
12657WAT     H238214   4.496   4.676   4.864
12658WAT      O38215   0.484   5.568   7.522
12658WAT     H138216   0.545   5.491   7.541
12658WAT     H238217   0.471   5.622   7.606
12659WAT      O38218   5.946   4.338   5.814
12659WAT     H138219   6.021   4.280   5.782
12659WAT     H238220   5.911   4.392   5.738
12660WAT      O38221   4.388   4.452   9.024
12660WAT     H138222   4.322   4.513   9.067
12660WAT     H238223   4.347   4.407   8.945
12661WAT      O38224   2.150   7.348   6.090
12661WAT     H138225   2.203   7.427   6.058
12661WAT     H238226   2.212   7.271   6.106
12662WAT      O38227   6.199   9.259   0.729
12662WAT     H138228   6.262   9.303   0.793
12662WAT     H238229   6.251   9.220   0.653
12663WAT      O38230   5.081   3.858   9.393
12663WAT     H138231   5.169   3.902   9.374
12663WAT     H238232   5.090   3.759   9.382
12664WAT      O38233   8.969   1.705   6.415
12664WAT     H138234   9.018   1.791   6.403
12664WAT     H238235   8.956   1.687   6.513
12665WAT      O38236   6.166   5.510   8.313
12665WAT     H138237   6.069   5.502   8.290
12665WAT     H238238   6.195   5.429   8.364
12666WAT      O38239   1.994   8.672   7.514
12666WAT     H138240   1.901   8.679   7.549
12666WAT     H238241   1.994   8.619   7.430
12667WAT      O38242   6.870   0.323   6.459
12667WAT     H138243   6.917   0.313   6.372
12667WAT     H238244   6.932   0.365   6.526
12668WAT      O38245   5.188   4.403   6.418
12668WAT     H138246   5.092   4.429   6.431
12668WAT     H238247   5.193   4.332   6.347
12669WAT      O38248   3.654   2.899   0.689
12669WAT     H138249   3.711   2.845   0.627
12669WAT     H238250   3.658   2.858   0.780
12670WAT      O38251   3.944   4.721   4.941
12670WAT     H138252   3.892   4.739   4.857
12670WAT     H238253   4.041   4.709   4.918
12671WAT      O38254   4.753   1.379   7.542
12671WAT     H138255   4.850   1.395   7.556
12671WAT     H238256   4.700   1.431   7.609
12672WAT      O38257   8.630   0.858   9.656
12672WAT     H138258   8.647   0.778   9.598
12672WAT     H238259   8.686   0.934   9.623
12673WAT      O38260   3.793   4.510   9.815
12673WAT     H138261   3.853   4.434   9.840
12673WAT     H238262   3.760   4.498   9.722
12674WAT      O38263   0.609   6.701   3.365
12674WAT     H138264   0.582   6.797   3.354
12674WAT     H238265   0.708   6.693   3.356
12675WAT      O38266   6.618   9.413   3.224
12675WAT     H138267   6.583   9.504   3.249
12675WAT     H238268   6.586   9.389   3.132
12676WAT      O38269   6.277   0.904   2.089
12676WAT     H138270   6.337   0.976   2.053
12676WAT     H238271   6.185   0.942   2.103
12677WAT      O38272   1.672   7.188   0.704
12677WAT     H138273   1.582   7.190   0.662
12677WAT     H238274   1.742   7.207   0.635
12678WAT      O38275   2.170   4.832   8.273
12678WAT     H138276   2.218   4.855   8.357
12678WAT     H238277   2.074   4.813   8.293
12679WAT      O38278   3.280   2.847   3.373
12679WAT     H138279   3.200   2.793   3.351
12679WAT     H238280   3.354   2.787   3.402
12680WAT      O38281   4.401   2.529   0.547
12680WAT     H138282   4.475   2.533   0.480
12680WAT     H238283   4.435   2.486   0.631
12681WAT      O38284   4.840   2.367   4.625
12681WAT     H138285   4.920   2.315   4.655
12681WAT     H238286   4.868   2.460   4.603
12682WAT      O38287   4.998   2.654   6.750
12682WAT     H138288   5.083   2.706   6.747
12682WAT     H238289   4.971   2.628   6.657
12683WAT      O38290   3.559   9.015   3.608
12683WAT     H138291   3.647   8.969   3.617
12683WAT     H238292   3.494   8.976   3.673
12684WAT      O38293   5.882   6.082   4.368
12684WAT     H138294   5.912   6.118   4.279
12684WAT     H238295   5.821   6.004   4.354
12685WAT      O38296   0.155   2.314   9.695
12685WAT     H138297   0.100   2.397   9.709
12685WAT     H238298   0.095   2.235   9.688
12686WAT      O38299   3.536   3.588   0.286
12686WAT     H138300   3.493   3.526   0.352
12686WAT     H238301   3.617   3.629   0.327
12687WAT      O38302   2.695   5.526   1.570
12687WAT     H138303   2.762   5.452   1.564
12687WAT     H238304   2.631   5.506   1.644
12688WAT      O38305   7.258   0.697   3.754
12688WAT     H138306   7.349   0.735   3.773
12688WAT     H238307   7.266   0.626   3.684
12689WAT      O38308   9.144   9.476   5.803
12689WAT     H138309   9.213   9.545   5.828
12689WAT     H238310   9.182   9.385   5.817
12690WAT      O38311   5.399   0.293   2.548
12690WAT     H138312   5.485   0.343   2.540
12690WAT     H238313   5.324   0.357   2.565
12691WAT      O38314   1.817   3.381   4.717
12691WAT     H138315   1.720   3.379   4.692
12691WAT     H238316   1.868   3.435   4.649
12692WAT      O38317   2.292   3.816   5.197
12692WAT     H138318   2.310   3.870   5.115
12692WAT     H238319   2.320   3.868   5.278
12693WAT      O38320   3.919   9.611   5.186
12693WAT     H138321   3.976   9.592   5.266
12693WAT     H238322   3.835   9.657   5.216
12694WAT      O38323   3.174   0.787   6.176
12694WAT     H138324   3.222   0.712   6.220
12694WAT     H238325   3.140   0.757   6.087
12695WAT      O38326   0.082   3.692   6.689
12695WAT     H138327   0.029   3.616   6.727
12695WAT     H238328   0.167   3.702   6.739
12696WAT      O38329   7.657   8.973   5.247
12696WAT     H138330   7.581   8.908   5.238
12696WAT     H238331   7.729   8.934   5.304
12697WAT      O38332   8.176   3.615   1.302
12697WAT     H138333   8.243   3.545   1.277
12697WAT     H238334   8.222   3.704   1.311
12698WAT      O38335   7.391   8.667   2.254
12698WAT     H138336   7.438   8.748   2.288
12698WAT     H238337   7.458   8.601   2.219
12699WAT      O38338   7.790   5.449   3.520
12699WAT     H138339   7.760   5.541   3.546
12699WAT     H238340   7.753   5.427   3.430
12700WAT      O38341   6.716   9.671   2.525
12700WAT     H138342   6.668   9.684   2.438
12700WAT     H238343   6.774   9.590   2.519
12701WAT      O38344   8.783   7.142   6.870
12701WAT     H138345   8.843   7.062   6.870
12701WAT     H238346   8.736   7.149   6.781
12702WAT      O38347   3.459   3.869   8.061
12702WAT     H138348   3.528   3.815   8.109
12702WAT     H238349   3.504   3.944   8.012
12703WAT      O38350   7.905   7.891   6.347
12703WAT     H138351   7.905   7.895   6.447
12703WAT     H238352   7.979   7.832   6.316
12704WAT      O38353   5.404   2.799   2.216
12704WAT     H138354   5.455   2.873   2.171
12704WAT     H238355   5.407   2.717   2.159
12705WAT      O38356   2.120   8.058   6.944
12705WAT     H138357   2.095   7.972   6.899
12705WAT     H238358   2.083   8.135   6.892
12706WAT      O38359   0.979   3.586   2.086
12706WAT     H138360   1.048   3.514   2.077
12706WAT     H238361   0.928   3.573   2.172
12707WAT      O38362   2.176   5.029   6.541
12707WAT     H138363   2.143   5.085   6.618
12707WAT     H238364   2.102   4.971   6.508
12708WAT      O38365   4.178   9.593   7.468
12708WAT     H138366   4.136   9.504   7.486
12708WAT     H238367   4.249   9.610   7.536
12709WAT      O38368   1.580   0.220   2.566
12709WAT     H138369   1.592   0.193   2.662
12709WAT     H238370   1.669   0.230   2.523
12710WAT      O38371   4.370   6.562   2.206
12710WAT     H138372   4.319   6.476   2.213
12710WAT     H238373   4.310   6.634   2.172
12711WAT      O38374   6.242   0.673   3.943
12711WAT     H138375   6.320   0.726   3.976
12711WAT     H238376   6.181   0.651   4.019
12712WAT      O38377   9.591   0.520   2.576
12712WAT     H138378   9.665   0.453   2.578
12712WAT     H238379   9.629   0.612   2.577
12713WAT      O38380   3.329   7.003   6.785
12713WAT     H138381   3.422   6.991   6.821
12713WAT     H238382   3.333   7.005   6.685
12714WAT      O38383   2.303   0.912   6.649
12714WAT     H138384   2.217   0.929   6.696
12714WAT     H238385   2.287   0.857   6.567
12715WAT      O38386   6.777   0.124   8.934
12715WAT     H138387   6.856   0.112   8.995
12715WAT     H238388   6.741   0.035   8.908
12716WAT      O38389   2.962   9.594   5.633
12716WAT     H138390   2.903   9.514   5.636
12716WAT     H238391   2.906   9.677   5.629
12717WAT      O38392   5.201   5.176   9.451
12717WAT     H138393   5.150   5.174   9.537
12717WAT     H238394   5.266   5.252   9.453
12718WAT      O38395   0.721   7.709   3.032
12718WAT     H138396   0.699   7.666   2.944
12718WAT     H238397   0.812   7.679   3.062
12719WAT      O38398   7.114   7.975   3.249
12719WAT     H138399   7.140   7.883   3.279
12719WAT     H238400   7.022   7.995   3.280
12720WAT      O38401   3.935   4.825   5.627
12720WAT     H138402   3.844   4.843   5.664
12720WAT     H238403   3.999   4.894   5.663
12721WAT      O38404   7.315   5.517   5.344
12721WAT     H138405   7.342   5.442   5.284
12721WAT     H238406   7.270   5.481   5.425
12722WAT      O38407   5.784   6.715   3.277
12722WAT     H138408   5.782   6.707   3.376
12722WAT     H238409   5.695   6.691   3.239
12723WAT      O38410   0.392   6.149   0.268
12723WAT     H138411   0.329   6.214   0.226
12723WAT     H238412   0.417   6.181   0.360
12724WAT      O38413   4.741   7.665   3.468
12724WAT     H138414   4.780   7.642   3.557
12724WAT     H238415   4.712   7.761   3.468
12725WAT      O38416   5.385   1.198   8.351
12725WAT     H138417   5.353   1.122   8.295
12725WAT     H238418   5.349   1.284   8.315
12726WAT      O38419   1.672   7.508   0.373
12726WAT     H138420   1.576   7.513   0.399
12726WAT     H238421   1.724   7.465   0.447
12727WAT      O38422   4.483   5.558   6.263
12727WAT     H138423   4.555   5.541   6.330
12727WAT     H238424   4.518   5.620   6.192
12728WAT      O38425   4.859   1.487   5.183
12728WAT     H138426   4.810   1.488   5.269
12728WAT     H238427   4.869   1.581   5.149
12729WAT      O38428   1.422   4.498   4.563
12729WAT     H138429   1.338   4.472   4.515
12729WAT     H238430   1.414   4.472   4.660
12730WAT      O38431   3.995   6.364   2.112
12730WAT     H138432   4.011   6.320   2.023
12730WAT     H238433   4.059   6.327   2.179
12731WAT      O38434   0.337   7.518   1.246
12731WAT     H138435   0.426   7.483   1.276
12731WAT     H238436   0.336   7.526   1.146
12732WAT      O38437   8.187   1.529   4.100
12732WAT     H138438   8.270   1.558   4.149
12732WAT     H238439   8.145   1.609   4.057
12733WAT      O38440   5.309   0.087   7.248
12733WAT     H138441   5.377   0.159   7.260
12733WAT     H238442   5.326   0.013   7.314
12734WAT      O38443   2.219   6.569   8.797
12734WAT     H138444   2.313   6.537   8.788
12734WAT     H238445   2.208   6.656   8.749
12735WAT      O38446   2.979   8.813   7.503
12735WAT     H138447   2.996   8.787   7.598
12735WAT     H238448   2.986   8.732   7.445
12736WAT      O38449   1.220   0.668   3.889
12736WAT     H138450   1.161   0.716   3.954
12736WAT     H238451   1.285   0.611   3.940
12737WAT      O38452   0.278   7.335   5.245
12737WAT     H138453   0.226   7.252   5.265
12737WAT     H238454   0.286   7.391   5.327
12738WAT      O38455   0.103   6.336   8.779
12738WAT     H138456   0.022   6.376   8.822
12738WAT     H238457   0.112   6.369   8.686
12739WAT      O38458   2.058   3.162   3.854
12739WAT     H138459   2.071   3.073   3.897
12739WAT     H238460   2.140   3.217   3.866
12740WAT      O38461   3.547   0.538   6.759
12740WAT     H138462   3.489   0.601   6.810
12740WAT     H238463   3.492   0.490   6.690
12741WAT      O38464   3.511   8.603   9.720
12741WAT     H138465   3.511   8.535   9.793
12741WAT     H238466   3.553   8.687   9.753
12742WAT      O38467   7.039   2.924   8.289
12742WAT     H138468   7.065   2.829   8.305
12742WAT     H238469   7.119   2.977   8.263
12743WAT      O38470   4.246   7.677   2.962
12743WAT     H138471   4.249   7.725   3.051
12743WAT     H238472   4.290   7.734   2.893
12744WAT      O38473   7.117   5.287   1.041
12744WAT     H138474   7.020   5.308   1.031
12744WAT     H238475   7.155   5.341   1.117
12745WAT      O38476   5.015   8.087   1.299
12745WAT     H138477   5.084   8.096   1.228
12745WAT     H238478   5.004   7.991   1.324
12746WAT      O38479   6.688   6.690   0.526
12746WAT     H138480   6.615   6.740   0.573
12746WAT     H238481   6.738   6.634   0.593
12747WAT      O38482   3.409   5.495   7.815
12747WAT     H138483   3.338   5.565   7.808
12747WAT     H238484   3.400   5.446   7.902
12748WAT      O38485   9.715   3.169   4.143
12748WAT     H138486   9.782   3.098   4.120
12748WAT     H238487   9.714   3.183   4.242
12749WAT      O38488   3.328   3.598   7.313
12749WAT     H138489   3.416   3.644   7.305
12749WAT     H238490   3.335   3.507   7.272
12750WAT      O38491   9.802   1.933   1.831
12750WAT     H138492   9.819   1.940   1.733
12750WAT     H238493   9.833   2.017   1.876
12751WAT      O38494   0.533   0.661   9.144
12751WAT     H138495   0.630   0.641   9.133
12751WAT     H238496   0.508   0.648   9.240
12752WAT      O38497   6.308   5.620   1.881
12752WAT     H138498   6.369   5.542   1.899
12752WAT     H238499   6.239   5.593   1.814
12753WAT      O38500   6.585   5.961   3.100
12753WAT     H138501   6.600   6.028   3.173
12753WAT     H238502   6.594   5.869   3.137
12754WAT      O38503   2.581   0.118   0.016
12754WAT     H138504   2.554   0.138   0.110
12754WAT     H238505   2.670   0.072   0.015
12755WAT      O38506   9.127   9.509   6.340
12755WAT     H138507   9.207   9.490   6.283
12755WAT     H238508   9.103   9.606   6.333
12756WAT      O38509   2.299   0.219   2.696
12756WAT     H138510   2.337   0.218   2.788
12756WAT     H238511   2.300   0.313   2.661
12757WAT      O38512   2.395   6.557   2.640
12757WAT     H138513   2.469   6.500   2.676
12757WAT     H238514   2.323   6.498   2.604
12758WAT      O38515   8.329   0.065   7.471
12758WAT     H138516   8.403   0.030   7.528
12758WAT     H238517   8.259   0.107   7.529
12759WAT      O38518   1.008   5.580   1.694
12759WAT     H138519   0.933   5.530   1.736
12759WAT     H238520   1.094   5.534   1.712
12760WAT      O38521   5.805   8.465   5.470
12760WAT     H138522   5.775   8.550   5.426
12760WAT     H238523   5.765   8.387   5.421
12761WAT      O38524   2.292   0.901   9.287
12761WAT     H138525   2.238   0.933   9.365
12761WAT     H238526   2.285   0.801   9.280
12762WAT      O38527   3.637   0.424   4.642
12762WAT     H138528   3.698   0.412   4.563
12762WAT     H238529   3.644   0.344   4.701
12763WAT      O38530   7.976   3.226   7.973
12763WAT     H138531   8.061   3.269   8.003
12763WAT     H238532   7.901   3.256   8.033
12764WAT      O38533   3.653   7.796   1.590
12764WAT     H138534   3.577   7.850   1.626
12764WAT     H238535   3.619   7.708   1.558
12765WAT      O38536   1.253   3.327   0.051
12765WAT     H138537   1.159   3.329   0.018
12765WAT     H238538   1.315   3.307  -0.025
12766WAT      O38539   7.468   5.884   8.273
12766WAT     H138540   7.480   5.875   8.174
12766WAT     H238541   7.399   5.820   8.304
12767WAT      O38542   6.705   1.785   7.967
12767WAT     H138543   6.686   1.777   8.065
12767WAT     H238544   6.630   1.833   7.922
12768WAT      O38545   3.312   5.231   6.765
12768WAT     H138546   3.267   5.142   6.752
12768WAT     H238547   3.363   5.255   6.683
12769WAT      O38548   4.642   8.452   5.031
12769WAT     H138549   4.653   8.518   5.106
12769WAT     H238550   4.719   8.459   4.969
12770WAT      O38551   2.855   9.676   1.262
12770WAT     H138552   2.840   9.629   1.176
12770WAT     H238553   2.822   9.620   1.338
12771WAT      O38554   6.440   7.982   1.312
12771WAT     H138555   6.450   7.890   1.350
12771WAT     H238556   6.345   8.012   1.324
12772WAT      O38557   7.359   6.687   4.906
12772WAT     H138558   7.334   6.614   4.970
12772WAT     H238559   7.420   6.651   4.836
12773WAT      O38560   7.660   3.611   3.931
12773WAT     H138561   7.730   3.625   3.861
12773WAT     H238562   7.616   3.522   3.917
12774WAT      O38563   8.287   1.229   9.809
12774WAT     H138564   8.210   1.265   9.755
12774WAT     H238565   8.252   1.189   9.893
12775WAT      O38566   0.172   1.004   2.348
12775WAT     H138567   0.169   0.929   2.415
12775WAT     H238568   0.159   0.966   2.256
12776WAT      O38569   8.551   7.340   2.327
12776WAT     H138570   8.543   7.283   2.245
12776WAT     H238571   8.633   7.396   2.321
12777WAT      O38572   3.243   4.046   6.615
12777WAT     H138573   3.162   3.987   6.623
12777WAT     H238574   3.272   4.075   6.706
12778WAT      O38575   5.700   6.664   1.136
12778WAT     H138576   5.613   6.619   1.157
12778WAT     H238577   5.700   6.692   1.040
12779WAT      O38578   8.280   8.461   2.247
12779WAT     H138579   8.221   8.381   2.234
12779WAT     H238580   8.284   8.513   2.161
12780WAT      O38581   9.758   8.461   8.497
12780WAT     H138582   9.778   8.374   8.452
12780WAT     H238583   9.660   8.467   8.516
12781WAT      O38584   6.260   6.853   0.649
12781WAT     H138585   6.168   6.858   0.610
12781WAT     H238586   6.326   6.889   0.583
12782WAT      O38587   0.740   6.238   4.003
12782WAT     H138588   0.664   6.293   3.970
12782WAT     H238589   0.812   6.297   4.037
12783WAT      O38590   6.679   5.575   3.625
12783WAT     H138591   6.705   5.652   3.568
12783WAT     H238592   6.751   5.557   3.692
12784WAT      O38593   4.967   6.007   7.505
12784WAT     H138594   4.915   5.990   7.589
12784WAT     H238595   4.910   5.985   7.425
12785WAT      O38596   7.718   9.158   6.529
12785WAT     H138597   7.722   9.122   6.436
12785WAT     H238598   7.634   9.212   6.540
12786WAT      O38599   0.399   4.292   0.954
12786WAT     H138600   0.408   4.201   0.993
12786WAT     H238601   0.467   4.353   0.995
12787WAT      O38602   9.218   7.304   3.606
12787WAT     H138603   9.139   7.339   3.556
12787WAT     H238604   9.224   7.349   3.695
12788WAT      O38605   5.265   6.148   9.042
12788WAT     H138606   5.197   6.178   9.109
12788WAT     H238607   5.223   6.079   8.982
12789WAT      O38608   5.826   1.725   3.640
12789WAT     H138609   5.826   1.631   3.674
12789WAT     H238610   5.920   1.755   3.624
12790WAT      O38611   8.852   1.539   8.224
12790WAT     H138612   8.920   1.530   8.296
12790WAT     H238613   8.779   1.472   8.239
12791WAT      O38614   4.983   8.522   8.312
12791WAT     H138615   5.066   8.558   8.356
12791WAT     H238616   5.002   8.430   8.278
12792WAT      O38617   6.914   6.961   5.431
12792WAT     H138618   6.991   6.980   5.370
12792WAT     H238619   6.932   6.877   5.482
12793WAT      O38620   7.964   5.534   9.468
12793WAT     H138621   8.040   5.511   9.528
12793WAT     H238622   7.940   5.630   9.480
12794WAT      O38623   0.945   8.181   5.625
12794WAT     H138624   0.938   8.093   5.577
12794WAT     H238625   1.002   8.243   5.571
12795WAT      O38626   9.082   5.995   3.418
12795WAT     H138627   9.115   6.015   3.326
12795WAT     H238628   9.013   5.922   3.414
12796WAT      O38629   7.485   3.884   2.164
12796WAT     H138630   7.527   3.944   2.232
12796WAT     H238631   7.422   3.938   2.107
12797WAT      O38632   0.747   2.905   0.105
12797WAT     H138633   0.686   2.831   0.077
12797WAT     H238634   0.819   2.916   0.037
12798WAT      O38635   0.106   1.021   8.767
12798WAT     H138636   0.021   0.971   8.784
12798WAT     H238637   0.115   1.094   8.835
12799WAT      O38638   2.799   4.999   3.812
12799WAT     H138639   2.898   4.989   3.809
12799WAT     H238640   2.775   5.095   3.823
12800WAT      O38641   1.090   2.169   2.976
12800WAT     H138642   1.053   2.248   2.928
12800WAT     H238643   1.026   2.092   2.967
12801WAT      O38644   9.758   2.515   5.258
12801WAT     H138645   9.748   2.476   5.166
12801WAT     H238646   9.705   2.600   5.263
12802WAT      O38647   6.322   7.069   7.328
12802WAT     H138648   6.364   7.046   7.240
12802WAT     H238649   6.347   7.163   7.352
12803WAT      O38650   1.753   6.664   3.183
12803WAT     H138651   1.679   6.598   3.191
12803WAT     H238652   1.715   6.756   3.172
12804WAT      O38653   2.927   6.057   0.665
12804WAT     H138654   2.897   5.992   0.595
12804WAT     H238655   2.848   6.111   0.696
12805WAT      O38656   2.416   1.051   1.582
12805WAT     H138657   2.379   1.074   1.671
12805WAT     H238658   2.412   0.952   1.569
12806WAT      O38659   5.895   6.412   3.502
12806WAT     H138660   5.845   6.337   3.458
12806WAT     H238661   5.903   6.489   3.439
12807WAT      O38662   1.408   9.571   4.449
12807WAT     H138663   1.380   9.622   4.530
12807WAT     H238664   1.430   9.636   4.375
12808WAT      O38665   0.160   0.268   5.778
12808WAT     H138666   0.230   0.282   5.848
12808WAT     H238667   0.128   0.173   5.781
12809WAT      O38668   2.776   7.919   5.387
12809WAT     H138669   2.831   7.975   5.324
12809WAT     H238670   2.805   7.824   5.380
12810WAT      O38671   8.921   1.438   3.142
12810WAT     H138672   8.990   1.384   3.095
12810WAT     H238673   8.831   1.399   3.126
12811WAT      O38674   9.576   4.911   1.667
12811WAT     H138675   9.602   5.006   1.686
12811WAT     H238676   9.524   4.875   1.744
12812WAT      O38677   2.155   5.178   3.388
12812WAT     H138678   2.093   5.142   3.458
12812WAT     H238679   2.248   5.180   3.425
12813WAT      O38680   0.310   4.196   5.904
12813WAT     H138681   0.307   4.101   5.933
12813WAT     H238682   0.247   4.250   5.960
12814WAT      O38683   4.150   6.906   4.385
12814WAT     H138684   4.075   6.938   4.445
12814WAT     H238685   4.235   6.952   4.412
12815WAT      O38686   5.021   3.395   4.013
12815WAT     H138687   4.931   3.432   4.034
12815WAT     H238688   5.082   3.409   4.091
12816WAT      O38689   2.628   6.012   6.696
12816WAT     H138690   2.667   5.961   6.773
12816WAT     H238691   2.697   6.024   6.625
12817WAT      O38692   2.312   7.054   4.822
12817WAT     H138693   2.355   7.143   4.807
12817WAT     H238694   2.332   7.021   4.914
12818WAT      O38695   6.820   5.825   4.419
12818WAT     H138696   6.865   5.738   4.439
12818WAT     H238697   6.771   5.818   4.332
12819WAT      O38698   5.734   9.307   6.267
12819WAT     H138699   5.677   9.385   6.242
12819WAT     H238700   5.683   9.222   6.250
12820WAT      O38701   7.987   2.394   0.803
12820WAT     H138702   7.988   2.455   0.724
12820WAT     H238703   7.960   2.445   0.884
12821WAT      O38704   6.644   6.334   8.226
12821WAT     H138705   6.641   6.244   8.270
12821WAT     H238706   6.739   6.359   8.210
12822WAT      O38707   5.788   4.741   4.874
12822WAT     H138708   5.747   4.785   4.954
12822WAT     H238709   5.776   4.642   4.880
12823WAT      O38710   7.827   5.003   5.682
12823WAT     H138711   7.894   5.074   5.665
12823WAT     H238712   7.850   4.955   5.767
12824WAT      O38713   2.038   6.461   0.825
12824WAT     H138714   2.010   6.409   0.906
12824WAT     H238715   2.085   6.544   0.854
12825WAT      O38716   7.772   0.592   5.165
12825WAT     H138717   7.719   0.673   5.140
12825WAT     H238718   7.864   0.600   5.127
12826WAT      O38719   3.094   9.063   7.497
12826WAT     H138720   3.024   9.119   7.540
12826WAT     H238721   3.067   8.967   7.501
12827WAT      O38722   9.649   2.953   6.230
12827WAT     H138723   9.586   2.938   6.155
12827WAT     H238724   9.735   2.905   6.212
12828WAT      O38725   4.040   9.262   9.580
12828WAT     H138726   4.137   9.242   9.593
12828WAT     H238727   4.030   9.353   9.539
12829WAT      O38728   6.000   4.985   4.505
12829WAT     H138729   5.907   4.985   4.469
12829WAT     H238730   6.003   4.932   4.590
12830WAT      O38731   8.692   4.028   8.872
12830WAT     H138732   8.617   3.985   8.821
12830WAT     H238733   8.771   3.966   8.873
12831WAT      O38734   0.714   7.236   0.169
12831WAT     H138735   0.652   7.309   0.140
12831WAT     H238736   0.804   7.275   0.190
12832WAT      O38737   1.679   4.682   8.351
12832WAT     H138738   1.651   4.658   8.258
12832WAT     H238739   1.691   4.598   8.405
12833WAT      O38740   8.851   8.370   5.601
12833WAT     H138741   8.873   8.461   5.635
12833WAT     H238742   8.881   8.362   5.506
12834WAT      O38743   9.112   0.912   2.106
12834WAT     H138744   9.170   0.833   2.129
12834WAT     H238745   9.017   0.889   2.125
12835WAT      O38746   6.484   6.596   1.516
12835WAT     H138747   6.541   6.579   1.596
12835WAT     H238748   6.455   6.692   1.514
12836WAT      O38749   4.009   6.086   6.274
12836WAT     H138750   3.993   6.089   6.176
12836WAT     H238751   4.074   6.012   6.295
12837WAT      O38752   3.846   3.436   8.959
12837WAT     H138753   3.772   3.370   8.965
12837WAT     H238754   3.857   3.466   8.864
12838WAT      O38755   2.299   0.026   1.244
12838WAT     H138756   2.383  -0.024   1.227
12838WAT     H238757   2.222  -0.037   1.243
12839WAT      O38758   2.646   2.384   9.182
12839WAT     H138759   2.642   2.482   9.163
12839WAT     H238760   2.657   2.334   9.096
12840WAT      O38761   6.447   5.725   2.638
12840WAT     H138762   6.543   5.699   2.644
12840WAT     H238763   6.413   5.709   2.545
12841WAT      O38764   2.906   0.973   8.857
12841WAT     H138765   2.997   0.984   8.895
12841WAT     H238766   2.902   1.015   8.766
12842WAT      O38767   8.021   9.714   9.424
12842WAT     H138768   8.020   9.796   9.366
12842WAT     H238769   8.061   9.638   9.373
12843WAT      O38770   3.262   9.583   3.627
12843WAT     H138771   3.254   9.616   3.721
12843WAT     H238772   3.247   9.484   3.624
12844WAT      O38773   3.604   1.512   1.352
12844WAT     H138774   3.616   1.562   1.438
12844WAT     H238775   3.542   1.562   1.293
12845WAT      O38776   9.449   1.530   4.876
12845WAT     H138777   9.446   1.529   4.776
12845WAT     H238778   9.544   1.533   4.906
12846WAT      O38779   3.789   4.008   5.438
12846WAT     H138780   3.790   3.909   5.424
12846WAT     H238781   3.862   4.050   5.384
12847WAT      O38782   7.309   6.800   9.710
12847WAT     H138783   7.237   6.867   9.692
12847WAT     H238784   7.277   6.736   9.781
12848WAT      O38785   8.743   9.568   6.863
12848WAT     H138786   8.834   9.540   6.893
12848WAT     H238787   8.713   9.648   6.915
12849WAT      O38788   5.985   8.819   0.941
12849WAT     H138789   5.932   8.804   1.025
12849WAT     H238790   5.998   8.917   0.927
12850WAT      O38791   1.110   8.530   9.820
12850WAT     H138792   1.168   8.609   9.839
12850WAT     H238793   1.136   8.455   9.880
12851WAT      O38794   3.200   6.036   8.047
12851WAT     H138795   3.129   6.083   7.995
12851WAT     H238796   3.252   6.102   8.100
12852WAT      O38797   0.134   7.151   4.081
12852WAT     H138798   0.062   7.086   4.104
12852WAT     H238799   0.121   7.183   3.987
12853WAT      O38800   0.965   6.024   5.466
12853WAT     H138801   0.891   6.084   5.435
12853WAT     H238802   1.037   6.079   5.509
12854WAT      O38803   9.347   1.840   1.169
12854WAT     H138804   9.376   1.935   1.163
12854WAT     H238805   9.414   1.782   1.122
12855WAT      O38806   0.112   5.635   5.745
12855WAT     H138807   0.199   5.613   5.701
12855WAT     H238808   0.039   5.636   5.676
12856WAT      O38809   4.738   5.647   3.600
12856WAT     H138810   4.671   5.585   3.558
12856WAT     H238811   4.717   5.656   3.698
12857WAT      O38812   4.038   0.790   0.699
12857WAT     H138813   4.007   0.708   0.651
12857WAT     H238814   4.124   0.822   0.658
12858WAT      O38815   8.141   2.893   7.710
12858WAT     H138816   8.102   2.967   7.654
12858WAT     H238817   8.173   2.931   7.796
12859WAT      O38818   9.315   6.241   1.776
12859WAT     H138819   9.279   6.155   1.742
12859WAT     H238820   9.313   6.241   1.876
12860WAT      O38821   7.779   9.253   4.848
12860WAT     H138822   7.749   9.212   4.935
12860WAT     H238823   7.878   9.258   4.846
12861WAT      O38824   4.381   2.819   7.084
12861WAT     H138825   4.389   2.728   7.045
12861WAT     H238826   4.427   2.886   7.025
12862WAT      O38827   0.823   4.689   8.162
12862WAT     H138828   0.801   4.690   8.064
12862WAT     H238829   0.876   4.607   8.183
12863WAT      O38830   0.534   2.828   4.404
12863WAT     H138831   0.478   2.806   4.484
12863WAT     H238832   0.602   2.896   4.430
12864WAT      O38833   3.726   4.855   7.172
12864WAT     H138834   3.826   4.850   7.179
12864WAT     H238835   3.692   4.931   7.228
12865WAT      O38836   5.885   5.740   0.029
12865WAT     H138837   5.798   5.789   0.021
12865WAT     H238838   5.871   5.643   0.007
12866WAT      O38839   7.412   9.742   9.134
12866WAT     H138840   7.492   9.802   9.133
12866WAT     H238841   7.414   9.684   9.216
12867WAT      O38842   4.272   4.253   7.984
12867WAT     H138843   4.226   4.167   8.007
12867WAT     H238844   4.295   4.302   8.068
12868WAT      O38845   4.973   5.396   0.304
12868WAT     H138846   4.979   5.299   0.327
12868WAT     H238847   4.939   5.447   0.382
12869WAT      O38848   3.336   0.986   7.270
12869WAT     H138849   3.310   0.897   7.310
12869WAT     H238850   3.373   1.045   7.342
12870WAT      O38851   3.985   5.311   1.936
12870WAT     H138852   4.022   5.373   2.005
12870WAT     H238853   4.019   5.336   1.846
12871WAT      O38854   3.326   6.743   2.429
12871WAT     H138855   3.359   6.796   2.351
12871WAT     H238856   3.388   6.755   2.507
12872WAT      O38857   4.749   2.552   0.087
12872WAT     H138858   4.702   2.476   0.043
12872WAT     H238859   4.731   2.637   0.037
12873WAT      O38860   0.398   0.292   1.053
12873WAT     H138861   0.368   0.201   1.027
12873WAT     H238862   0.475   0.286   1.116
12874WAT      O38863   4.749   9.618   4.894
12874WAT     H138864   4.727   9.659   4.982
12874WAT     H238865   4.666   9.607   4.840
12875WAT      O38866   1.898   5.427   8.378
12875WAT     H138867   1.822   5.407   8.439
12875WAT     H238868   1.964   5.352   8.380
12876WAT      O38869   2.115   7.186   8.468
12876WAT     H138870   2.192   7.210   8.527
12876WAT     H238871   2.146   7.176   8.374
12877WAT      O38872   8.436   2.166   2.894
12877WAT     H138873   8.372   2.138   2.821
12877WAT     H238874   8.466   2.260   2.877
12878WAT      O38875   2.723   9.712   0.713
12878WAT     H138876   2.776   9.629   0.728
12878WAT     H238877   2.724   9.735   0.616
12879WAT      O38878   9.840   8.051   4.990
12879WAT     H138879   9.845   7.971   5.051
12879WAT     H238880   9.917   8.112   5.009
12880WAT      O38881   8.853   2.024   5.397
12880WAT     H138882   8.854   2.114   5.355
12880WAT     H238883   8.838   2.033   5.496
12881WAT      O38884   9.841   7.551   1.637
12881WAT     H138885   9.856   7.610   1.557
12881WAT     H238886   9.760   7.582   1.686
12882WAT      O38887   9.272   1.923   7.649
12882WAT     H138888   9.297   2.013   7.611
12882WAT     H238889   9.176   1.924   7.675
12883WAT      O38890   3.932   0.118   9.329
12883WAT     H138891   4.026   0.152   9.319
12883WAT     H238892   3.885   0.124   9.241
12884WAT      O38893   2.366   2.290   1.237
12884WAT     H138894   2.444   2.279   1.175
12884WAT     H238895   2.288   2.239   1.202
12885WAT      O38896   0.525   9.419   0.655
12885WAT     H138897   0.467   9.487   0.611
12885WAT     H238898   0.481   9.329   0.650
12886WAT      O38899   5.983   5.537   2.171
12886WAT     H138900   5.898   5.568   2.212
12886WAT     H238901   6.028   5.614   2.124
12887WAT      O38902   7.025   6.106   1.287
12887WAT     H138903   7.016   6.008   1.265
12887WAT     H238904   7.058   6.155   1.206
12888WAT      O38905   7.067   1.949   4.943
12888WAT     H138906   7.163   1.922   4.950
12888WAT     H238907   7.036   1.939   4.848
12889WAT      O38908   7.320   7.988   5.210
12889WAT     H138909   7.377   7.996   5.128
12889WAT     H238910   7.372   7.945   5.283
12890WAT      O38911   7.041   0.440   6.665
12890WAT     H138912   7.069   0.498   6.742
12890WAT     H238913   7.098   0.459   6.586
12891WAT      O38914   5.609   5.747   6.711
12891WAT     H138915   5.670   5.669   6.726
12891WAT     H238916   5.539   5.722   6.645
12892WAT      O38917   0.331   8.340   6.064
12892WAT     H138918   0.368   8.250   6.088
12892WAT     H238919   0.232   8.338   6.071
12893WAT      O38920   2.715   8.721   3.549
12893WAT     H138921   2.656   8.670   3.612
12893WAT     H238922   2.661   8.789   3.500
12894WAT      O38923   9.835   9.395   6.439
12894WAT     H138924   9.754   9.355   6.397
12894WAT     H238925   9.810   9.477   6.489
12895WAT      O38926   8.956   1.837   4.479
12895WAT     H138927   8.983   1.761   4.419
12895WAT     H238928   9.012   1.917   4.458
12896WAT      O38929   8.505   7.035   2.843
12896WAT     H138930   8.442   7.003   2.773
12896WAT     H238931   8.586   7.076   2.799
12897WAT      O38932   0.753   4.706   1.090
12897WAT     H138933   0.842   4.747   1.107
12897WAT     H238934   0.681   4.768   1.124
12898WAT      O38935   2.851   6.055   2.611
12898WAT     H138936   2.854   6.024   2.706
12898WAT     H238937   2.869   6.154   2.608
12899WAT      O38938   9.871   2.829   4.919
12899WAT     H138939   9.834   2.896   4.854
12899WAT     H238940   9.796   2.774   4.956
12900WAT      O38941   8.751   8.841   5.038
12900WAT     H138942   8.842   8.847   4.998
12900WAT     H238943   8.738   8.916   5.104
12901WAT      O38944   9.689   7.193   1.479
12901WAT     H138945   9.765   7.255   1.498
12901WAT     H238946   9.662   7.201   1.384
12902WAT      O38947   6.550   4.576   9.552
12902WAT     H138948   6.488   4.634   9.605
12902WAT     H238949   6.584   4.502   9.610
12903WAT      O38950   7.805   7.042   8.851
12903WAT     H138951   7.771   7.098   8.926
12903WAT     H238952   7.732   6.982   8.818
12904WAT      O38953   8.350   7.551   6.164
12904WAT     H138954   8.393   7.461   6.173
12904WAT     H238955   8.288   7.550   6.085
12905WAT      O38956   1.164   6.018   5.970
12905WAT     H138957   1.107   5.947   6.011
12905WAT     H238958   1.255   5.981   5.951
12906WAT      O38959   2.124   2.833   3.148
12906WAT     H138960   2.186   2.822   3.071
12906WAT     H238961   2.176   2.857   3.230
12907WAT      O38962   4.075   3.369   1.192
12907WAT     H138963   3.986   3.381   1.238
12907WAT     H238964   4.084   3.438   1.120
12908WAT      O38965   1.217   1.273   8.863
12908WAT     H138966   1.239   1.177   8.849
12908WAT     H238967   1.173   1.310   8.782
12909WAT      O38968   6.744   5.212   7.311
12909WAT     H138969   6.798   5.151   7.368
12909WAT     H238970   6.736   5.301   7.355
12910WAT      O38971   7.155   6.844   4.548
12910WAT     H138972   7.064   6.802   4.551
12910WAT     H238973   7.205   6.810   4.468
12911WAT      O38974   1.376   9.492   0.097
12911WAT     H138975   1.441   9.568   0.087
12911WAT     H238976   1.401   9.437   0.176
12912WAT      O38977   2.381   5.438   5.987
12912WAT     H138978   2.451   5.373   5.957
12912WAT     H238979   2.419   5.530   5.988
12913WAT      O38980   5.180   7.710   3.923
12913WAT     H138981   5.148   7.744   3.834
12913WAT     H238982   5.217   7.618   3.912
12914WAT      O38983   5.338   3.847   1.484
12914WAT     H138984   5.289   3.921   1.531
12914WAT     H238985   5.436   3.865   1.488
12915WAT      O38986   8.742   3.333   6.392
12915WAT     H138987   8.658   3.313   6.441
12915WAT     H238988   8.750   3.432   6.379
12916WAT      O38989   6.673   7.230   4.788
12916WAT     H138990   6.596   7.198   4.842
12916WAT     H238991   6.736   7.154   4.771
12917WAT      O38992   4.472   3.018   0.598
12917WAT     H138993   4.462   3.115   0.573
12917WAT     H238994   4.464   3.008   0.697
12918WAT      O38995   8.607   5.362   6.626
12918WAT     H138996   8.554   5.373   6.710
12918WAT     H238997   8.682   5.298   6.642
12919WAT      O38998   7.628   7.484   2.007
12919WAT     H138999   7.586   7.573   2.025
12919WAT     H239000   7.701   7.495   1.939
12920WAT      O39001   7.080   8.277   3.987
12920WAT     H139002   7.085   8.235   4.078
12920WAT     H239003   7.127   8.219   3.921
12921WAT      O39004   4.351   0.129   8.007
12921WAT     H139005   4.306   0.106   7.921
12921WAT     H239006   4.283   0.136   8.080
12922WAT      O39007   0.757   8.574   4.972
12922WAT     H139008   0.678   8.616   5.018
12922WAT     H239009   0.751   8.474   4.981
12923WAT      O39010   0.062   8.452   1.688
12923WAT     H139011   0.101   8.453   1.596
12923WAT     H239012  -0.034   8.481   1.685
12924WAT      O39013   8.306   6.536   1.888
12924WAT     H139014   8.219   6.489   1.878
12924WAT     H239015   8.376   6.490   1.832
12925WAT      O39016   9.680   0.651   5.806
12925WAT     H139017   9.747   0.610   5.745
12925WAT     H239018   9.646   0.582   5.870
12926WAT      O39019   8.462   1.115   7.267
12926WAT     H139020   8.419   1.087   7.181
12926WAT     H239021   8.541   1.172   7.248
12927WAT      O39022   0.159   4.380   0.575
12927WAT     H139023   0.162   4.442   0.496
12927WAT     H239024   0.067   4.381   0.614
12928WAT      O39025   1.331   8.129   3.179
12928WAT     H139026   1.348   8.040   3.137
12928WAT     H239027   1.415   8.162   3.223
12929WAT      O39028   0.787   5.222   0.219
12929WAT     H139029   0.749   5.129   0.222
12929WAT     H239030   0.811   5.250   0.312
12930WAT      O39031   9.158   1.794   0.433
12930WAT     H139032   9.256   1.792   0.454
12930WAT     H239033   9.107   1.807   0.517
12931WAT      O39034   9.722   7.778   4.315
12931WAT     H139035   9.693   7.735   4.401
12931WAT     H239036   9.814   7.748   4.292
12932WAT      O39037   3.837   7.417   8.787
12932WAT     H139038   3.770   7.399   8.859
12932WAT     H239039   3.839   7.515   8.768
12933WAT      O39040   2.782   3.765   5.607
12933WAT     H139041   2.806   3.836   5.540
12933WAT     H239042   2.761   3.680   5.559
12934WAT      O39043   3.720   3.213   7.792
12934WAT     H139044   3.814   3.184   7.812
12934WAT     H239045   3.688   3.168   7.709
12935WAT      O39046   8.354   7.677   4.353
12935WAT     H139047   8.298   7.623   4.290
12935WAT     H239048   8.341   7.774   4.334
12936WAT      O39049   2.521   1.096   3.974
12936WAT     H139050   2.429   1.069   3.948
12936WAT     H239051   2.581   1.016   3.973
12937WAT      O39052   7.036   5.020   9.661
12937WAT     H139053   6.970   4.970   9.605
12937WAT     H239054   7.083   5.087   9.605
12938WAT      O39055   9.368   4.034   8.615
12938WAT     H139056   9.280   4.078   8.632
12938WAT     H239057   9.400   4.058   8.523
12939WAT      O39058   1.226   7.233   1.569
12939WAT     H139059   1.224   7.330   1.544
12939WAT     H239060   1.170   7.181   1.505
12940WAT      O39061   2.407   7.695   7.492
12940WAT     H139062   2.333   7.663   7.551
12940WAT     H239063   2.454   7.616   7.451
12941WAT      O39064   4.266   5.382   0.029
12941WAT     H139065   4.249   5.415  -0.064
12941WAT     H239066   4.181   5.384   0.081
12942WAT      O39067   1.956   3.272   0.859
12942WAT     H139068   1.890   3.196   0.853
12942WAT     H239069   2.048   3.235   0.871
12943WAT      O39070   9.387   4.848   7.821
12943WAT     H139071   9.419   4.871   7.913
12943WAT     H239072   9.419   4.916   7.756
12944WAT      O39073   9.159   9.346   8.144
12944WAT     H139074   9.095   9.283   8.188
12944WAT     H239075   9.141   9.347   8.045
12945WAT      O39076   1.940   5.592   3.018
12945WAT     H139077   2.037   5.589   2.995
12945WAT     H239078   1.917   5.516   3.078
12946WAT      O39079   9.513   7.552   1.519
12946WAT     H139080   9.568   7.517   1.443
12946WAT     H239081   9.427   7.501   1.524
12947WAT      O39082   5.743   4.992   7.612
12947WAT     H139083   5.784   5.001   7.702
12947WAT     H239084   5.721   5.083   7.575
12948WAT      O39085   0.916   7.269   4.707
12948WAT     H139086   0.886   7.232   4.795
12948WAT     H239087   0.940   7.365   4.718
12949WAT      O39088   8.312   0.157   2.916
12949WAT     H139089   8.313   0.252   2.885
12949WAT     H239090   8.379   0.145   2.989
12950WAT      O39091   1.489   6.701   3.508
12950WAT     H139092   1.442   6.613   3.497
12950WAT     H239093   1.557   6.693   3.581
12951WAT      O39094   4.011   2.517   1.131
12951WAT     H139095   4.088   2.458   1.152
12951WAT     H239096   4.045   2.606   1.099
12952WAT      O39097   8.187   9.728   8.360
12952WAT     H139098   8.185   9.778   8.274
12952WAT     H239099   8.257   9.657   8.356
12953WAT      O39100   8.646   0.867   0.031
12953WAT     H139101   8.586   0.806   0.083
12953WAT     H239102   8.621   0.864  -0.066
12954WAT      O39103   4.458   2.405   7.189
12954WAT     H139104   4.406   2.397   7.104
12954WAT     H239105   4.516   2.487   7.184
12955WAT      O39106   9.381   2.481   0.303
12955WAT     H139107   9.349   2.388   0.285
12955WAT     H239108   9.480   2.484   0.296
12956WAT      O39109   5.631   1.191   4.852
12956WAT     H139110   5.694   1.118   4.829
12956WAT     H239111   5.680   1.277   4.860
12957WAT      O39112   4.230   5.737   7.481
12957WAT     H139113   4.243   5.640   7.504
12957WAT     H239114   4.311   5.789   7.509
12958WAT      O39115   3.318   7.889   1.644
12958WAT     H139116   3.303   7.970   1.701
12958WAT     H239117   3.259   7.894   1.564
12959WAT      O39118   6.875   3.367   7.215
12959WAT     H139119   6.949   3.382   7.149
12959WAT     H239120   6.790   3.404   7.179
12960WAT      O39121   8.482   9.339   0.693
12960WAT     H139122   8.449   9.275   0.762
12960WAT     H239123   8.466   9.433   0.725
12961WAT      O39124   4.635   7.382   6.366
12961WAT     H139125   4.566   7.330   6.316
12961WAT     H239126   4.594   7.466   6.402
12962WAT      O39127   2.048   2.346   6.159
12962WAT     H139128   2.000   2.261   6.139
12962WAT     H239129   2.144   2.326   6.178
12963WAT      O39130   3.544   3.376   8.377
12963WAT     H139131   3.470   3.444   8.384
12963WAT     H239132   3.595   3.390   8.292
12964WAT      O39133   7.069   1.359   9.464
12964WAT     H139134   7.015   1.442   9.449
12964WAT     H239135   7.010   1.278   9.455
12965WAT      O39136   4.964   0.422   4.474
12965WAT     H139137   5.051   0.468   4.492
12965WAT     H239138   4.927   0.385   4.560
12966WAT      O39139   3.992   9.558   0.943
12966WAT     H139140   3.953   9.553   0.851
12966WAT     H239141   3.961   9.642   0.988
12967WAT      O39142   8.673   3.422   0.537
12967WAT     H139143   8.726   3.507   0.542
12967WAT     H239144   8.579   3.444   0.513
12968WAT      O39145   4.513   3.703   0.834
12968WAT     H139146   4.510   3.796   0.872
12968WAT     H239147   4.581   3.700   0.760
12969WAT      O39148   3.151   7.311   6.744
12969WAT     H139149   3.191   7.344   6.830
12969WAT     H239150   3.222   7.307   6.674
12970WAT      O39151   3.177   5.125   0.206
12970WAT     H139152   3.089   5.132   0.253
12970WAT     H239153   3.177   5.043   0.148
12971WAT      O39154   0.278   6.658   8.644
12971WAT     H139155   0.338   6.578   8.641
12971WAT     H239156   0.331   6.740   8.623
12972WAT      O39157   8.757   5.276   4.844
12972WAT     H139158   8.761   5.376   4.848
12972WAT     H239159   8.699   5.242   4.917
12973WAT      O39160   5.803   8.112   8.636
12973WAT     H139161   5.707   8.128   8.662
12973WAT     H239162   5.863   8.148   8.707
12974WAT      O39163   1.557   0.121   4.011
12974WAT     H139164   1.568   0.052   4.082
12974WAT     H239165   1.624   0.194   4.025
12975WAT      O39166   2.157   5.924   5.935
12975WAT     H139167   2.201   5.951   6.020
12975WAT     H239168   2.072   5.975   5.924
12976WAT      O39169   8.894   1.201   0.397
12976WAT     H139170   8.933   1.195   0.305
12976WAT     H239171   8.920   1.121   0.450
12977WAT      O39172   9.809   4.640   9.829
12977WAT     H139173   9.734   4.688   9.785
12977WAT     H239174   9.846   4.696   9.903
12978WAT      O39175   9.195   9.286   4.526
12978WAT     H139176   9.287   9.271   4.490
12978WAT     H239177   9.127   9.271   4.454
12979WAT      O39178   0.166   8.891   6.641
12979WAT     H139179   0.264   8.897   6.627
12979WAT     H239180   0.123   8.979   6.616
12980WAT      O39181   1.083   1.795   1.001
12980WAT     H139182   1.121   1.884   0.978
12980WAT     H239183   0.983   1.798   0.996
12981WAT      O39184   5.698   6.932   0.144
12981WAT     H139185   5.648   6.886   0.071
12981WAT     H239186   5.740   7.016   0.108
12982WAT      O39187   9.487   0.403   4.027
12982WAT     H139188   9.390   0.427   4.024
12982WAT     H239189   9.509   0.342   3.952
12983WAT      O39190   3.300   1.370   7.608
12983WAT     H139191   3.363   1.328   7.673
12983WAT     H239192   3.262   1.300   7.548
12984WAT      O39193   8.038   0.688   9.761
12984WAT     H139194   7.968   0.621   9.736
12984WAT     H239195   8.101   0.700   9.684
12985WAT      O39196   6.099   8.119   1.790
12985WAT     H139197   6.054   8.047   1.842
12985WAT     H239198   6.195   8.125   1.818
12986WAT      O39199   3.911   0.922   1.335
12986WAT     H139200   3.884   0.983   1.409
12986WAT     H239201   3.952   0.839   1.374
12987WAT      O39202   7.741   9.329   5.713
12987WAT     H139203   7.822   9.370   5.756
12987WAT     H239204   7.719   9.243   5.760
12988WAT      O39205   7.033   2.675   7.254
12988WAT     H139206   7.111   2.737   7.259
12988WAT     H239207   6.949   2.726   7.237
12989WAT      O39208   3.299   0.943   0.933
12989WAT     H139209   3.290   1.023   0.874
12989WAT     H239210   3.214   0.928   0.983
12990WAT      O39211   3.211   2.279   1.830
12990WAT     H139212   3.248   2.219   1.901
12990WAT     H239213   3.235   2.242   1.740
12991WAT      O39214   5.981   2.611   7.115
12991WAT     H139215   6.027   2.613   7.026
12991WAT     H239216   5.882   2.619   7.101
12992WAT      O39217   3.154   2.618   6.056
12992WAT     H139218   3.145   2.618   6.156
12992WAT     H239219   3.217   2.547   6.028
12993WAT      O39220   6.378   8.384   7.750
12993WAT     H139221   6.467   8.429   7.749
12993WAT     H239222   6.315   8.434   7.690
12994WAT      O39223   4.384   2.229   5.611
12994WAT     H139224   4.363   2.326   5.595
12994WAT     H239225   4.461   2.221   5.674
12995WAT      O39226   4.621   3.945   7.935
12995WAT     H139227   4.626   4.018   7.866
12995WAT     H239228   4.675   3.867   7.904
12996WAT      O39229   3.518   6.631   9.396
12996WAT     H139230   3.428   6.589   9.409
12996WAT     H239231   3.506   6.723   9.358
12997WAT      O39232   6.894   0.118   2.520
12997WAT     H139233   6.953   0.199   2.527
12997WAT     H239234   6.821   0.124   2.588
12998WAT      O39235   1.864   2.807   9.472
12998WAT     H139236   1.769   2.816   9.441
12998WAT     H239237   1.867   2.755   9.557
12999WAT      O39238   0.032   0.540   9.639
12999WAT     H139239   0.036   0.527   9.540
12999WAT     H239240   0.024   0.637   9.660
13000WAT      O39241   0.792   5.869   5.154
13000WAT     H139242   0.813   5.967   5.152
13000WAT     H239243   0.753   5.841   5.067
13001WAT      O39244   8.735   8.868   0.588
13001WAT     H139245   8.742   8.815   0.673
13001WAT     H239246   8.669   8.824   0.528
13002WAT      O39247   9.222   4.971   3.545
13002WAT     H139248   9.178   4.946   3.459
13002WAT     H239249   9.182   4.918   3.619
13003WAT      O39250   6.262   7.504   5.023
13003WAT     H139251   6.181   7.460   4.984
13003WAT     H239252   6.236   7.551   5.107
13004WAT      O39253   3.068   5.056   4.023
13004WAT     H139254   3.093   5.019   4.113
13004WAT     H239255   3.084   4.987   3.953
13005WAT      O39256   4.581   1.532   7.708
13005WAT     H139257   4.579   1.446   7.759
13005WAT     H239258   4.586   1.609   7.773
13006WAT      O39259   6.019   9.008   9.545
13006WAT     H139260   6.038   9.040   9.452
13006WAT     H239261   5.923   9.028   9.568
13007WAT      O39262   9.185   4.741   5.336
13007WAT     H139263   9.280   4.763   5.314
13007WAT     H239264   9.179   4.716   5.433
13008WAT      O39265   6.106   1.735   9.865
13008WAT     H139266   6.011   1.706   9.876
13008WAT     H239267   6.109   1.832   9.841
13009WAT      O39268   1.809   2.566   0.384
13009WAT     H139269   1.837   2.657   0.352
13009WAT     H239270   1.786   2.571   0.482
13010WAT      O39271   4.907   2.370   6.918
13010WAT     H139272   4.816   2.398   6.888
13010WAT     H239273   4.950   2.446   6.967
13011WAT      O39274   9.624   9.125   7.697
13011WAT     H139275   9.534   9.167   7.695
13011WAT     H239276   9.664   9.134   7.788
13012WAT      O39277   1.649   3.988   4.786
13012WAT     H139278   1.559   3.948   4.768
13012WAT     H239279   1.638   4.074   4.836
13013WAT      O39280   7.319   8.977   7.349
13013WAT     H139281   7.263   8.900   7.379
13013WAT     H239282   7.394   8.943   7.292
13014WAT      O39283   0.918   5.223   9.517
13014WAT     H139284   0.887   5.258   9.429
13014WAT     H239285   0.914   5.123   9.517
13015WAT      O39286   0.082   5.912   5.185
13015WAT     H139287   0.039   5.995   5.149
13015WAT     H239288   0.101   5.924   5.282
13016WAT      O39289   3.887   5.025   2.365
13016WAT     H139290   3.962   5.084   2.393
13016WAT     H239291   3.883   5.020   2.265
13017WAT      O39292   6.507   0.192   8.690
13017WAT     H139293   6.560   0.269   8.724
13017WAT     H239294   6.483   0.131   8.766
13018WAT      O39295   9.199   4.522   2.975
13018WAT     H139296   9.255   4.583   2.919
13018WAT     H239297   9.229   4.526   3.070
13019WAT      O39298   8.211   7.690   8.712
13019WAT     H139299   8.281   7.687   8.641
13019WAT     H239300   8.221   7.774   8.765
13020WAT      O39301   4.299   4.716   5.235
13020WAT     H139302   4.210   4.712   5.281
13020WAT     H239303   4.357   4.782   5.283
13021WAT      O39304   7.294   6.915   8.330
13021WAT     H139305   7.349   6.924   8.246
13021WAT     H239306   7.257   6.822   8.336
13022WAT      O39307   4.772   6.451   2.779
13022WAT     H139308   4.841   6.378   2.791
13022WAT     H239309   4.728   6.441   2.690
13023WAT      O39310   5.961   1.551   4.687
13023WAT     H139311   5.989   1.645   4.709
13023WAT     H239312   5.961   1.539   4.588
13024WAT      O39313   4.683   7.867   9.004
13024WAT     H139314   4.754   7.930   9.037
13024WAT     H239315   4.612   7.919   8.956
13025WAT      O39316   3.699   7.250   8.448
13025WAT     H139317   3.645   7.283   8.525
13025WAT     H239318   3.778   7.198   8.482
13026WAT      O39319   2.222   1.000   3.353
13026WAT     H139320   2.190   1.067   3.287
13026WAT     H239321   2.288   1.042   3.415
13027WAT      O39322   0.483   2.993   6.933
13027WAT     H139323   0.561   3.004   6.873
13027WAT     H239324   0.420   2.925   6.894
13028WAT      O39325   6.679   5.892   6.359
13028WAT     H139326   6.687   5.796   6.384
13028WAT     H239327   6.667   5.900   6.260
13029WAT      O39328   8.655   4.233   4.659
13029WAT     H139329   8.584   4.250   4.727
13029WAT     H239330   8.722   4.306   4.661
13030WAT      O39331   2.394   5.509   1.213
13030WAT     H139332   2.456   5.451   1.267
13030WAT     H239333   2.332   5.557   1.274
13031WAT      O39334   7.836   6.627   7.042
13031WAT     H139335   7.800   6.535   7.060
13031WAT     H239336   7.769   6.678   6.987
13032WAT      O39337   5.014   4.199   2.759
13032WAT     H139338   5.091   4.162   2.810
13032WAT     H239339   5.029   4.184   2.661
13033WAT      O39340   3.003   2.763   3.560
13033WAT     H139341   3.089   2.758   3.611
13033WAT     H239342   2.927   2.772   3.623
13034WAT      O39343   6.599   0.840   7.841
13034WAT     H139344   6.538   0.763   7.828
13034WAT     H239345   6.554   0.924   7.812
13035WAT      O39346   5.351   3.748   1.164
13035WAT     H139347   5.423   3.781   1.224
13035WAT     H239348   5.315   3.662   1.199
13036WAT      O39349   2.831   3.292   1.990
13036WAT     H139350   2.794   3.300   2.082
13036WAT     H239351   2.758   3.272   1.925
13037WAT      O39352   6.451   3.183   3.358
13037WAT     H139353   6.355   3.206   3.341
13037WAT     H239354   6.459   3.137   3.446
13038WAT      O39355   6.787   0.033   7.966
13038WAT     H139356   6.886   0.032   7.957
13038WAT     H239357   6.759   0.116   8.016
13039WAT      O39358   1.528   8.663   4.877
13039WAT     H139359   1.580   8.588   4.836
13039WAT     H239360   1.590   8.737   4.903
13040WAT      O39361   9.298   5.360   6.481
13040WAT     H139362   9.257   5.322   6.398
13040WAT     H239363   9.252   5.445   6.506
13041WAT      O39364   2.676   2.035   5.718
13041WAT     H139365   2.625   2.087   5.786
13041WAT     H239366   2.722   2.099   5.655
13042WAT      O39367   3.892   9.637   0.260
13042WAT     H139368   3.913   9.672   0.351
13042WAT     H239369   3.977   9.619   0.210
13043WAT      O39370   4.212   6.777   1.475
13043WAT     H139371   4.299   6.730   1.486
13043WAT     H239372   4.223   6.855   1.413
13044WAT      O39373   7.307   3.176   6.814
13044WAT     H139374   7.383   3.215   6.866
13044WAT     H239375   7.339   3.095   6.764
13045WAT      O39376   6.401   4.375   9.101
13045WAT     H139377   6.341   4.295   9.099
13045WAT     H239378   6.458   4.375   9.019
13046WAT      O39379   5.364   4.098   4.035
13046WAT     H139380   5.325   4.141   4.116
13046WAT     H239381   5.395   4.005   4.058
13047WAT      O39382   1.082   3.589   7.408
13047WAT     H139383   1.131   3.661   7.458
13047WAT     H239384   1.138   3.557   7.332
13048WAT      O39385   5.522   5.010   2.202
13048WAT     H139386   5.488   5.092   2.154
13048WAT     H239387   5.510   4.930   2.143
13049WAT      O39388   8.948   0.714   9.733
13049WAT     H139389   8.963   0.685   9.828
13049WAT     H239390   8.859   0.680   9.702
13050WAT      O39391   6.696   2.235   5.497
13050WAT     H139392   6.709   2.172   5.421
13050WAT     H239393   6.746   2.320   5.478
13051WAT      O39394   9.154   8.984   5.358
13051WAT     H139395   9.185   9.035   5.277
13051WAT     H239396   9.230   8.930   5.394
13052WAT      O39397   1.007   4.405   8.694
13052WAT     H139398   0.951   4.461   8.634
13052WAT     H239399   0.984   4.425   8.790
13053WAT      O39400   6.404   0.597   7.798
13053WAT     H139401   6.309   0.626   7.810
13053WAT     H239402   6.434   0.617   7.705
13054WAT      O39403   9.399   0.929   1.400
13054WAT     H139404   9.402   0.871   1.318
13054WAT     H239405   9.318   0.987   1.396
13055WAT      O39406   0.283   0.972   8.560
13055WAT     H139407   0.221   0.971   8.481
13055WAT     H239408   0.230   0.978   8.644
13056WAT      O39409   6.497   8.261   7.131
13056WAT     H139410   6.478   8.358   7.146
13056WAT     H239411   6.534   8.221   7.215
13057WAT      O39412   6.763   4.768   8.221
13057WAT     H139413   6.798   4.678   8.247
13057WAT     H239414   6.723   4.763   8.130
13058WAT      O39415   5.968   8.214   6.281
13058WAT     H139416   5.885   8.258   6.246
13058WAT     H239417   5.955   8.192   6.378
13059WAT      O39418   7.118   9.604   8.104
13059WAT     H139419   7.126   9.643   8.196
13059WAT     H239420   7.196   9.633   8.049
13060WAT      O39421   7.623   9.806   4.069
13060WAT     H139422   7.624   9.791   4.168
13060WAT     H239423   7.659   9.724   4.023
13061WAT      O39424   7.720   5.691   1.934
13061WAT     H139425   7.769   5.622   1.988
13061WAT     H239426   7.622   5.672   1.936
13062WAT      O39427   6.622   5.176   5.597
13062WAT     H139428   6.531   5.185   5.555
13062WAT     H239429   6.643   5.079   5.609
13063WAT      O39430   7.802   8.440   6.812
13063WAT     H139431   7.859   8.377   6.760
13063WAT     H239432   7.838   8.449   6.905
13064WAT      O39433   3.877   4.918   0.322
13064WAT     H139434   3.897   4.921   0.420
13064WAT     H239435   3.957   4.886   0.272
13065WAT      O39436   8.103   1.083   0.381
13065WAT     H139437   8.035   1.020   0.418
13065WAT     H239438   8.192   1.064   0.421
13066WAT      O39439   4.122   9.005   8.812
13066WAT     H139440   4.173   8.953   8.880
13066WAT     H239441   4.168   9.091   8.794
13067WAT      O39442   4.680   1.867   7.503
13067WAT     H139443   4.614   1.926   7.457
13067WAT     H239444   4.670   1.773   7.469
13068WAT      O39445   3.285   6.645   9.726
13068WAT     H139446   3.189   6.616   9.722
13068WAT     H239447   3.295   6.734   9.681
13069WAT      O39448   8.876   3.265   9.270
13069WAT     H139449   8.925   3.329   9.328
13069WAT     H239450   8.854   3.309   9.183
13070WAT      O39451   9.808   9.684   1.424
13070WAT     H139452   9.836   9.598   1.381
13070WAT     H239453   9.890   9.735   1.452
13071WAT      O39454   8.647   5.860   8.133
13071WAT     H139455   8.623   5.940   8.078
13071WAT     H239456   8.746   5.844   8.126
13072WAT      O39457   6.880   8.212   5.752
13072WAT     H139458   6.968   8.258   5.762
13072WAT     H239459   6.867   8.150   5.830
13073WAT      O39460   1.948   0.934   4.048
13073WAT     H139461   1.920   0.985   3.967
13073WAT     H239462   2.033   0.974   4.084
13074WAT      O39463   7.465   8.242   7.947
13074WAT     H139464   7.422   8.263   8.035
13074WAT     H239465   7.562   8.223   7.962
13075WAT      O39466   4.997   3.287   9.870
13075WAT     H139467   5.035   3.206   9.825
13075WAT     H239468   4.969   3.264   9.963
13076WAT      O39469   9.594   8.200   3.839
13076WAT     H139470   9.685   8.236   3.821
13076WAT     H239471   9.597   8.100   3.837
13077WAT      O39472   2.055   7.829   7.308
13077WAT     H139473   1.984   7.892   7.277
13077WAT     H239474   2.128   7.881   7.353
13078WAT      O39475   5.775   2.555   1.009
13078WAT     H139476   5.867   2.517   1.000
13078WAT     H239477   5.764   2.633   0.948
13079WAT      O39478   8.404   8.861   2.742
13079WAT     H139479   8.368   8.901   2.658
13079WAT     H239480   8.356   8.901   2.821
13080WAT      O39481   4.526   5.252   6.721
13080WAT     H139482   4.529   5.156   6.749
13080WAT     H239483   4.514   5.258   6.622
13081WAT      O39484   0.165   0.959   9.455
13081WAT     H139485   0.220   1.036   9.421
13081WAT     H239486   0.214   0.874   9.440
13082WAT      O39487   6.099   2.595   4.480
13082WAT     H139488   6.161   2.653   4.428
13082WAT     H239489   6.005   2.607   4.447
13083WAT      O39490   8.551   1.533   0.843
13083WAT     H139491   8.569   1.443   0.803
13083WAT     H239492   8.457   1.561   0.822
13084WAT      O39493   0.636   3.018   1.615
13084WAT     H139494   0.662   3.040   1.521
13084WAT     H239495   0.716   2.984   1.665
13085WAT      O39496   1.263   7.644   6.221
13085WAT     H139497   1.324   7.723   6.222
13085WAT     H239498   1.168   7.676   6.231
13086WAT      O39499   3.430   3.191   9.867
13086WAT     H139500   3.383   3.215   9.952
13086WAT     H239501   3.517   3.147   9.889
13087WAT      O39502   6.642   1.070   1.645
13087WAT     H139503   6.710   1.082   1.572
13087WAT     H239504   6.574   1.143   1.638
13088WAT      O39505   4.256   9.137   3.294
13088WAT     H139506   4.213   9.171   3.378
13088WAT     H239507   4.194   9.152   3.217
13089WAT      O39508   0.999   8.314   7.751
13089WAT     H139509   0.935   8.249   7.710
13089WAT     H239510   1.071   8.336   7.685
13090WAT      O39511   2.538   9.077   5.357
13090WAT     H139512   2.455   9.049   5.405
13090WAT     H239513   2.612   9.089   5.422
13091WAT      O39514   2.782   3.223   4.312
13091WAT     H139515   2.842   3.209   4.233
13091WAT     H239516   2.688   3.196   4.288
13092WAT      O39517   0.099   1.354   5.856
13092WAT     H139518   0.014   1.335   5.808
13092WAT     H239519   0.150   1.425   5.807
13093WAT      O39520   5.930   8.183   2.924
13093WAT     H139521   5.867   8.254   2.892
13093WAT     H239522   5.953   8.200   3.020
13094WAT      O39523   2.556   4.744   4.896
13094WAT     H139524   2.636   4.705   4.850
13094WAT     H239525   2.565   4.843   4.899
13095WAT      O39526   7.082   7.715   4.126
13095WAT     H139527   7.135   7.684   4.047
13095WAT     H239528   6.984   7.704   4.107
13096WAT      O39529   4.942   5.816   0.113
13096WAT     H139530   4.997   5.900   0.113
13096WAT     H239531   5.001   5.737   0.122
13097WAT      O39532   4.212   5.092   8.162
13097WAT     H139533   4.306   5.066   8.140
13097WAT     H239534   4.185   5.170   8.105
13098WAT      O39535   4.006   8.645   7.818
13098WAT     H139536   3.956   8.680   7.739
13098WAT     H239537   4.052   8.559   7.794
13099WAT      O39538   6.881   1.457   1.656
13099WAT     H139539   6.788   1.485   1.632
13099WAT     H239540   6.914   1.513   1.732
13100WAT      O39541   1.021   8.859   9.437
13100WAT     H139542   1.054   8.855   9.343
13100WAT     H239543   0.994   8.768   9.467
13101WAT      O39544   2.738   2.243   2.657
13101WAT     H139545   2.705   2.296   2.735
13101WAT     H239546   2.825   2.200   2.681
13102WAT      O39547   4.485   1.592   5.745
13102WAT     H139548   4.535   1.672   5.710
13102WAT     H239549   4.475   1.525   5.671
13103WAT      O39550   3.840   3.569   3.263
13103WAT     H139551   3.788   3.484   3.266
13103WAT     H239552   3.813   3.622   3.183
13104WAT      O39553   8.256   1.130   8.190
13104WAT     H139554   8.281   1.144   8.094
13104WAT     H239555   8.226   1.217   8.230
13105WAT      O39556   1.108   3.024   6.443
13105WAT     H139557   1.166   2.955   6.400
13105WAT     H239558   1.152   3.058   6.526
13106WAT      O39559   2.440   0.705   3.647
13106WAT     H139560   2.432   0.626   3.586
13106WAT     H239561   2.379   0.693   3.726
13107WAT      O39562   4.082   2.625   2.057
13107WAT     H139563   4.113   2.697   1.995
13107WAT     H239564   4.127   2.637   2.146
13108WAT      O39565   5.703   5.543   9.668
13108WAT     H139566   5.611   5.522   9.700
13108WAT     H239567   5.769   5.511   9.736
13109WAT      O39568   0.094   7.673   8.139
13109WAT     H139569   0.113   7.764   8.177
13109WAT     H239570   0.015   7.633   8.186
13110WAT      O39571   2.344   3.986   1.731
13110WAT     H139572   2.361   3.947   1.640
13110WAT     H239573   2.385   4.077   1.735
13111WAT      O39574   0.491   5.340   7.905
13111WAT     H139575   0.441   5.308   7.825
13111WAT     H239576   0.523   5.261   7.958
13112WAT      O39577   5.374   1.996   4.492
13112WAT     H139578   5.339   2.052   4.416
13112WAT     H239579   5.443   2.049   4.542
13113WAT      O39580   9.428   5.557   1.119
13113WAT     H139581   9.488   5.587   1.193
13113WAT     H239582   9.424   5.457   1.118
13114WAT      O39583   5.453   2.331   1.593
13114WAT     H139584   5.488   2.302   1.504
13114WAT     H239585   5.519   2.391   1.637
13115WAT      O39586   2.701   1.417   6.176
13115WAT     H139587   2.604   1.409   6.155
13115WAT     H239588   2.737   1.501   6.135
13116WAT      O39589   0.043   6.711   0.832
13116WAT     H139590  -0.028   6.762   0.882
13116WAT     H239591   0.091   6.650   0.896
13117WAT      O39592   0.500   3.895   9.054
13117WAT     H139593   0.567   3.878   9.127
13117WAT     H239594   0.450   3.979   9.074
13118WAT      O39595   6.506   9.755   5.958
13118WAT     H139596   6.556   9.789   5.879
13118WAT     H239597   6.525   9.658   5.970
13119WAT      O39598   6.946   7.931   2.502
13119WAT     H139599   6.991   7.846   2.528
13119WAT     H239600   7.001   7.978   2.433
13120WAT      O39601   3.561   5.647   7.671
13120WAT     H139602   3.506   5.681   7.594
13120WAT     H239603   3.506   5.585   7.726
13121WAT      O39604   3.793   1.752   1.457
13121WAT     H139605   3.775   1.846   1.429
13121WAT     H239606   3.891   1.732   1.444
13122WAT      O39607   7.644   8.111   8.612
13122WAT     H139608   7.618   8.193   8.561
13122WAT     H239609   7.564   8.054   8.629
13123WAT      O39610   5.470   4.686   5.732
13123WAT     H139611   5.392   4.748   5.732
13123WAT     H239612   5.520   4.695   5.818
13124WAT      O39613   2.275   9.107   9.415
13124WAT     H139614   2.272   9.026   9.356
13124WAT     H239615   2.367   9.118   9.452
13125WAT      O39616   9.013   0.066   9.566
13125WAT     H139617   9.045   0.159   9.581
13125WAT     H239618   9.090   0.008   9.537
13126WAT      O39619   6.777   7.448   6.148
13126WAT     H139620   6.722   7.508   6.206
13126WAT     H239621   6.731   7.361   6.136
13127WAT      O39622   2.417   4.842   2.515
13127WAT     H139623   2.389   4.904   2.589
13127WAT     H239624   2.461   4.895   2.443
13128WAT      O39625   4.663   7.064   1.093
13128WAT     H139626   4.731   7.110   1.151
13128WAT     H239627   4.572   7.075   1.133
13129WAT      O39628   2.992   2.289   3.363
13129WAT     H139629   2.944   2.377   3.364
13129WAT     H239630   3.090   2.305   3.351
13130WAT      O39631   5.264   0.793   5.380
13130WAT     H139632   5.257   0.881   5.428
13130WAT     H239633   5.227   0.720   5.438
13131WAT      O39634   8.046   1.170   4.385
13131WAT     H139635   8.012   1.236   4.317
13131WAT     H239636   8.146   1.163   4.376
13132WAT      O39637   8.414   7.223   4.895
13132WAT     H139638   8.495   7.257   4.942
13132WAT     H239639   8.396   7.128   4.922
13133WAT      O39640   4.007   3.031   7.849
13133WAT     H139641   3.969   2.942   7.873
13133WAT     H239642   4.081   3.019   7.784
13134WAT      O39643   9.068   3.309   9.735
13134WAT     H139644   9.146   3.253   9.764
13134WAT     H239645   8.983   3.257   9.745
13135WAT      O39646   0.534   3.073   8.616
13135WAT     H139647   0.570   2.979   8.622
13135WAT     H239648   0.471   3.079   8.539
13136WAT      O39649   5.824   9.662   9.597
13136WAT     H139650   5.911   9.708   9.617
13136WAT     H239651   5.812   9.657   9.498
13137WAT      O39652   0.951   0.523   2.122
13137WAT     H139653   0.909   0.506   2.032
13137WAT     H239654   1.032   0.465   2.132
13138WAT      O39655   9.521   6.040   8.474
13138WAT     H139656   9.507   6.077   8.382
13138WAT     H239657   9.436   6.048   8.526
13139WAT      O39658   4.023   8.332   9.305
13139WAT     H139659   3.929   8.323   9.275
13139WAT     H239660   4.025   8.342   9.405
13140WAT      O39661   1.764   9.020   7.881
13140WAT     H139662   1.733   8.992   7.972
13140WAT     H239663   1.713   9.102   7.853
13141WAT      O39664   2.767   6.619   7.031
13141WAT     H139665   2.767   6.710   6.989
13141WAT     H239666   2.688   6.610   7.092
13142WAT      O39667   8.713   8.379   6.958
13142WAT     H139668   8.804   8.340   6.973
13142WAT     H239669   8.672   8.403   7.046
13143WAT      O39670   3.319   6.077   4.603
13143WAT     H139671   3.367   6.081   4.691
13143WAT     H239672   3.263   6.159   4.592
13144WAT      O39673   9.845   5.854   6.879
13144WAT     H139674   9.918   5.820   6.819
13144WAT     H239675   9.884   5.879   6.967
13145WAT      O39676   9.032   5.028   6.445
13145WAT     H139677   8.939   5.052   6.417
13145WAT     H239678   9.080   4.985   6.368
13146WAT      O39679   4.150   8.898   7.701
13146WAT     H139680   4.070   8.842   7.679
13146WAT     H239681   4.218   8.888   7.629
13147WAT      O39682   5.250   8.453   9.834
13147WAT     H139683   5.318   8.418   9.898
13147WAT     H239684   5.272   8.420   9.742
13148WAT      O39685   1.414   4.019   5.310
13148WAT     H139686   1.350   4.072   5.254
13148WAT     H239687   1.454   4.079   5.380
13149WAT      O39688   1.242   8.616   6.509
13149WAT     H139689   1.269   8.532   6.462
13149WAT     H239690   1.312   8.686   6.494
13150WAT      O39691   4.220   0.136   8.245
13150WAT     H139692   4.261   0.142   8.336
13150WAT     H239693   4.144   0.071   8.246
13151WAT      O39694   1.490   0.464   4.308
13151WAT     H139695   1.509   0.548   4.359
13151WAT     H239696   1.562   0.449   4.240
13152WAT      O39697   8.687   0.446   7.135
13152WAT     H139698   8.681   0.509   7.058
13152WAT     H239699   8.628   0.367   7.117
13153WAT      O39700   3.043   6.203   5.607
13153WAT     H139701   2.961   6.146   5.600
13153WAT     H239702   3.120   6.155   5.565
13154WAT      O39703   6.065   3.837   2.576
13154WAT     H139704   6.094   3.931   2.592
13154WAT     H239705   6.100   3.779   2.650
13155WAT      O39706   3.928   1.070   6.733
13155WAT     H139707   4.018   1.057   6.692
13155WAT     H239708   3.923   1.161   6.774
13156WAT      O39709   6.209   4.641   2.227
13156WAT     H139710   6.165   4.665   2.314
13156WAT     H239711   6.220   4.724   2.172
13157WAT      O39712   8.812   1.733   8.040
13157WAT     H139713   8.817   1.664   8.112
13157WAT     H239714   8.718   1.741   8.008
13158WAT      O39715   9.057   2.792   1.957
13158WAT     H139716   9.046   2.739   1.873
13158WAT     H239717   9.088   2.884   1.935
13159WAT      O39718   5.740   8.720   6.357
13159WAT     H139719   5.812   8.740   6.290
13159WAT     H239720   5.744   8.787   6.431
13160WAT      O39721   1.541   8.058   7.274
13160WAT     H139722   1.625   8.083   7.322
13160WAT     H239723   1.505   7.974   7.313
13161WAT      O39724   8.223   0.054   1.789
13161WAT     H139725   8.214   0.153   1.774
13161WAT     H239726   8.158   0.025   1.859
13162WAT      O39727   5.084   6.317   2.216
13162WAT     H139728   5.070   6.244   2.149
13162WAT     H239729   5.179   6.314   2.248
13163WAT      O39730   2.633   0.025   2.922
13163WAT     H139731   2.725   0.059   2.899
13163WAT     H239732   2.628  -0.073   2.902
13164WAT      O39733   9.334   1.894   8.363
13164WAT     H139734   9.331   1.895   8.263
13164WAT     H239735   9.385   1.814   8.394
13165WAT      O39736   8.410   7.519   7.650
13165WAT     H139737   8.423   7.561   7.560
13165WAT     H239738   8.475   7.560   7.715
13166WAT      O39739   7.992   4.282   0.450
13166WAT     H139740   7.953   4.272   0.542
13166WAT     H239741   8.005   4.379   0.430
13167WAT      O39742   7.002   1.397   7.345
13167WAT     H139743   6.933   1.389   7.417
13167WAT     H239744   6.957   1.422   7.259
13168WAT      O39745   2.994   6.676   1.509
13168WAT     H139746   3.030   6.678   1.416
13168WAT     H239747   3.051   6.732   1.568
13169WAT      O39748   2.799   6.713   5.388
13169WAT     H139749   2.744   6.630   5.396
13169WAT     H239750   2.754   6.787   5.439
13170WAT      O39751   9.508   1.610   5.361
13170WAT     H139752   9.566   1.659   5.296
13170WAT     H239753   9.463   1.676   5.421
13171WAT      O39754   1.317   0.906   0.105
13171WAT     H139755   1.279   0.993   0.140
13171WAT     H239756   1.416   0.906   0.116
13172WAT      O39757   5.331   7.329   2.216
13172WAT     H139758   5.322   7.271   2.297
13172WAT     H239759   5.428   7.338   2.193
13173WAT      O39760   5.242   9.839   6.006
13173WAT     H139761   5.223   9.759   6.063
13173WAT     H239762   5.276   9.914   6.064
13174WAT      O39763   7.529   6.905   3.629
13174WAT     H139764   7.521   6.838   3.556
13174WAT     H239765   7.479   6.872   3.710
13175WAT      O39766   7.069   8.641   4.860
13175WAT     H139767   7.146   8.577   4.865
13175WAT     H239768   7.058   8.687   4.948
13176WAT      O39769   2.565   3.621   7.967
13176WAT     H139770   2.499   3.606   8.041
13176WAT     H239771   2.658   3.611   8.003
13177WAT      O39772   1.630   6.693   2.737
13177WAT     H139773   1.719   6.734   2.716
13177WAT     H239774   1.615   6.615   2.677
13178WAT      O39775   7.594   3.893   8.990
13178WAT     H139776   7.626   3.928   8.902
13178WAT     H239777   7.671   3.856   9.042
13179WAT      O39778   3.944   5.118   8.452
13179WAT     H139779   3.935   5.210   8.414
13179WAT     H239780   3.883   5.107   8.530
13180WAT      O39781   5.509   7.142   0.233
13180WAT     H139782   5.459   7.177   0.154
13180WAT     H239783   5.568   7.067   0.204
13181WAT      O39784   5.946   6.477   9.390
13181WAT     H139785   6.018   6.420   9.351
13181WAT     H239786   5.967   6.573   9.373
13182WAT      O39787   2.219   3.177   4.203
13182WAT     H139788   2.140   3.128   4.167
13182WAT     H239789   2.208   3.189   4.302
13183WAT      O39790   0.314   4.467   4.236
13183WAT     H139791   0.296   4.504   4.145
13183WAT     H239792   0.247   4.503   4.301
13184WAT      O39793   8.853   6.688   4.106
13184WAT     H139794   8.926   6.667   4.041
13184WAT     H239795   8.809   6.603   4.136
13185WAT      O39796   7.414   9.676   2.469
13185WAT     H139797   7.326   9.717   2.443
13185WAT     H239798   7.419   9.668   2.569
13186WAT      O39799   7.551   2.004   7.728
13186WAT     H139800   7.483   1.956   7.672
13186WAT     H239801   7.548   2.102   7.708
13187WAT      O39802   6.442   2.857   5.061
13187WAT     H139803   6.446   2.781   4.996
13187WAT     H239804   6.383   2.832   5.138
13188WAT      O39805   4.566   2.863   3.572
13188WAT     H139806   4.478   2.866   3.621
13188WAT     H239807   4.628   2.799   3.619
13189WAT      O39808   6.374   4.112   7.807
13189WAT     H139809   6.468   4.087   7.785
13189WAT     H239810   6.333   4.042   7.867
13190WAT      O39811   7.351   9.315   3.867
13190WAT     H139812   7.273   9.315   3.804
13190WAT     H239813   7.375   9.409   3.891
13191WAT      O39814   2.746   7.372   8.909
13191WAT     H139815   2.701   7.443   8.856
13191WAT     H239816   2.775   7.298   8.848
13192WAT      O39817   1.993   6.216   8.026
13192WAT     H139818   1.981   6.248   7.932
13192WAT     H239819   1.971   6.118   8.031
13193WAT      O39820   2.422   3.114   8.537
13193WAT     H139821   2.422   3.213   8.525
13193WAT     H239822   2.440   3.092   8.633
13194WAT      O39823  -0.005   2.141   5.548
13194WAT     H139824   0.076   2.112   5.598
13194WAT     H239825   0.022   2.196   5.469
13195WAT      O39826   2.271   1.476   8.427
13195WAT     H139827   2.276   1.575   8.439
13195WAT     H239828   2.183   1.443   8.460
13196WAT      O39829   1.558   3.814   5.156
13196WAT     H139830   1.655   3.811   5.132
13196WAT     H239831   1.533   3.908   5.180
13197WAT      O39832   7.540   9.483   3.487
13197WAT     H139833   7.455   9.430   3.494
13197WAT     H239834   7.525   9.576   3.520
13198WAT      O39835   5.157   0.418   6.847
13198WAT     H139836   5.215   0.354   6.898
13198WAT     H239837   5.107   0.368   6.776
13199WAT      O39838   4.336   3.194   8.251
13199WAT     H139839   4.376   3.124   8.192
13199WAT     H239840   4.346   3.167   8.347
13200WAT      O39841   5.401   4.308   8.876
13200WAT     H139842   5.446   4.287   8.790
13200WAT     H239843   5.390   4.407   8.885
13201WAT      O39844   4.508   0.324   8.473
13201WAT     H139845   4.409   0.331   8.478
13201WAT     H239846   4.534   0.229   8.455
13202WAT      O39847   2.502   2.221   4.853
13202WAT     H139848   2.471   2.247   4.761
13202WAT     H239849   2.602   2.225   4.856
13203WAT      O39850   6.279   5.981  -0.002
13203WAT     H139851   6.262   6.060   0.057
13203WAT     H239852   6.378   5.963  -0.005
13204WAT      O39853   6.201   5.188   2.784
13204WAT     H139854   6.128   5.129   2.748
13204WAT     H239855   6.285   5.174   2.732
13205WAT      O39856   2.373   2.940   3.976
13205WAT     H139857   2.435   2.994   3.918
13205WAT     H239858   2.425   2.893   4.047
13206WAT      O39859   1.840   9.421   5.867
13206WAT     H139860   1.801   9.360   5.936
13206WAT     H239861   1.895   9.367   5.804
13207WAT      O39862   0.678   0.279   1.917
13207WAT     H139863   0.698   0.217   1.993
13207WAT     H239864   0.701   0.234   1.831
13208WAT      O39865   0.079   4.113   3.984
13208WAT     H139866   0.067   4.021   4.020
13208WAT     H239867   0.106   4.108   3.888
13209WAT      O39868   4.522   6.520   2.846
13209WAT     H139869   4.465   6.490   2.770
13209WAT     H239870   4.615   6.485   2.834
13210WAT      O39871   3.210   5.477   8.496
13210WAT     H139872   3.184   5.424   8.576
13210WAT     H239873   3.252   5.417   8.428
13211WAT      O39874   2.850   2.618   4.674
13211WAT     H139875   2.773   2.566   4.639
13211WAT     H239876   2.862   2.702   4.621
13212WAT      O39877   7.270   6.078   6.071
13212WAT     H139878   7.180   6.086   6.112
13212WAT     H239879   7.310   5.990   6.097
13213WAT      O39880   6.214   4.832   5.441
13213WAT     H139881   6.150   4.903   5.412
13213WAT     H239882   6.293   4.874   5.486
13214WAT      O39883   8.669   7.882   7.797
13214WAT     H139884   8.725   7.935   7.861
13214WAT     H239885   8.675   7.923   7.706
13215WAT      O39886   6.117   4.646   6.519
13215WAT     H139887   6.143   4.677   6.428
13215WAT     H239888   6.022   4.612   6.517
13216WAT      O39889   0.173   4.831   4.053
13216WAT     H139890   0.224   4.888   4.118
13216WAT     H239891   0.197   4.735   4.067
13217WAT      O39892   3.688   3.630   2.703
13217WAT     H139893   3.760   3.699   2.692
13217WAT     H239894   3.685   3.573   2.620
13218WAT      O39895   4.501   4.383   9.831
13218WAT     H139896   4.521   4.454   9.763
13218WAT     H239897   4.484   4.296   9.785
13219WAT      O39898   3.725   6.271   2.691
13219WAT     H139899   3.768   6.282   2.602
13219WAT     H239900   3.795   6.249   2.760
13220WAT      O39901   4.641   5.931   0.123
13220WAT     H139902   4.724   5.877   0.135
13220WAT     H239903   4.665   6.028   0.125
13221WAT      O39904   4.490   1.665   8.216
13221WAT     H139905   4.585   1.640   8.195
13221WAT     H239906   4.436   1.664   8.131
13222WAT      O39907   0.927   2.163   5.064
13222WAT     H139908   0.920   2.134   4.969
13222WAT     H239909   1.012   2.214   5.076
13223WAT      O39910   0.516   9.077   2.713
13223WAT     H139911   0.550   8.989   2.746
13223WAT     H239912   0.418   9.068   2.692
13224WAT      O39913   5.824   6.111   1.919
13224WAT     H139914   5.846   6.149   2.010
13224WAT     H239915   5.728   6.127   1.900
13225WAT      O39916   9.459   3.781   5.649
13225WAT     H139917   9.559   3.777   5.651
13225WAT     H239918   9.429   3.876   5.658
13226WAT      O39919   5.567   2.280   4.925
13226WAT     H139920   5.541   2.354   4.987
13226WAT     H239921   5.619   2.211   4.975
13227WAT      O39922   7.804   5.680   1.555
13227WAT     H139923   7.862   5.702   1.633
13227WAT     H239924   7.802   5.759   1.492
13228WAT      O39925   4.944   6.640   8.724
13228WAT     H139926   4.937   6.730   8.767
13228WAT     H239927   4.912   6.645   8.630
13229WAT      O39928   3.411   5.300   0.885
13229WAT     H139929   3.330   5.270   0.835
13229WAT     H239930   3.388   5.380   0.940
13230WAT      O39931   5.560   1.596   0.835
13230WAT     H139932   5.497   1.609   0.911
13230WAT     H239933   5.511   1.610   0.749
13231WAT      O39934   7.305   4.283   2.757
13231WAT     H139935   7.371   4.356   2.737
13231WAT     H239936   7.225   4.322   2.803
13232WAT      O39937   6.074   3.937   4.031
13232WAT     H139938   6.038   4.010   3.974
13232WAT     H239939   6.114   3.865   3.973
13233WAT      O39940   5.621   5.205   6.345
13233WAT     H139941   5.556   5.133   6.321
13233WAT     H239942   5.586   5.293   6.314
13234WAT      O39943   5.160   6.498   6.914
13234WAT     H139944   5.100   6.473   6.838
13234WAT     H239945   5.114   6.567   6.971
13235WAT      O39946   4.740   3.281   7.560
13235WAT     H139947   4.669   3.340   7.522
13235WAT     H239948   4.759   3.206   7.497
13236WAT      O39949   8.654   4.735   8.791
13236WAT     H139950   8.650   4.834   8.779
13236WAT     H239951   8.742   4.700   8.759
13237WAT      O39952   3.247   4.789   8.149
13237WAT     H139953   3.206   4.702   8.120
13237WAT     H239954   3.200   4.822   8.231
13238WAT      O39955   0.354   8.849   0.942
13238WAT     H139956   0.303   8.924   0.983
13238WAT     H239957   0.351   8.769   1.002
13239WAT      O39958   6.413   4.957   1.970
13239WAT     H139959   6.437   4.943   1.873
13239WAT     H239960   6.384   5.051   1.983
13240WAT      O39961   3.350   7.810   3.146
13240WAT     H139962   3.287   7.833   3.072
13240WAT     H239963   3.370   7.712   3.144
13241WAT      O39964   3.410   1.333   2.214
13241WAT     H139965   3.332   1.390   2.190
13241WAT     H239966   3.412   1.318   2.313
13242WAT      O39967   2.685   8.405   3.831
13242WAT     H139968   2.614   8.453   3.781
13242WAT     H239969   2.696   8.446   3.922
13243WAT      O39970   7.468   5.589   7.889
13243WAT     H139971   7.419   5.501   7.882
13243WAT     H239972   7.554   5.583   7.840
13244WAT      O39973   1.272   7.373   2.696
13244WAT     H139974   1.314   7.407   2.780
13244WAT     H239975   1.325   7.404   2.617
13245WAT      O39976   4.954   7.667   9.382
13245WAT     H139977   4.959   7.702   9.476
13245WAT     H239978   4.902   7.730   9.325
13246WAT      O39979   1.077   1.772   5.634
13246WAT     H139980   1.175   1.787   5.625
13246WAT     H239981   1.056   1.736   5.725
13247WAT      O39982   0.503   8.672   4.800
13247WAT     H139983   0.489   8.768   4.778
13247WAT     H239984   0.513   8.661   4.900
13248WAT      O39985   6.627   6.066   1.865
13248WAT     H139986   6.538   6.076   1.822
13248WAT     H239987   6.618   6.014   1.950
13249WAT      O39988   6.260   6.131   9.644
13249WAT     H139989   6.344   6.118   9.591
13249WAT     H239990   6.272   6.092   9.735
13250WAT      O39991   3.447   0.738   3.578
13250WAT     H139992   3.369   0.723   3.517
13250WAT     H239993   3.529   0.756   3.523
13251WAT      O39994   3.913   1.976   7.474
13251WAT     H139995   3.852   1.958   7.551
13251WAT     H239996   3.868   2.039   7.410
13252WAT      O39997   5.623  -0.001   6.605
13252WAT     H139998   5.668   0.087   6.587
13252WAT     H239999   5.532   0.015   6.641
13253WAT      O40000   1.103   6.863   9.247
13253WAT     H140001   1.059   6.774   9.259
13253WAT     H240002   1.186   6.867   9.304
13254WAT      O40003   4.445   4.063   4.609
13254WAT     H140004   4.528   4.116   4.626
13254WAT     H240005   4.393   4.054   4.694
13255WAT      O40006   4.619   2.555   4.472
13255WAT     H140007   4.623   2.487   4.398
13255WAT     H240008   4.523   2.572   4.495
13256WAT      O40009   0.166   1.049   4.281
13256WAT     H140010   0.207   0.958   4.274
13256WAT     H240011   0.155   1.073   4.377
13257WAT      O40012   6.058   8.770   7.914
13257WAT     H140013   6.153   8.766   7.943
13257WAT     H240014   6.013   8.683   7.932
13258WAT      O40015   6.269   2.698   1.222
13258WAT     H140016   6.296   2.721   1.129
13258WAT     H240017   6.190   2.637   1.220
13259WAT      O40018   9.501   1.115   7.337
13259WAT     H140019   9.532   1.041   7.277
13259WAT     H240020   9.510   1.203   7.289
13260WAT      O40021   7.322   4.505   9.840
13260WAT     H140022   7.282   4.560   9.914
13260WAT     H240023   7.320   4.557   9.755
13261WAT      O40024   8.963   5.008   0.246
13261WAT     H140025   9.026   5.023   0.170
13261WAT     H240026   9.014   4.973   0.324
13262WAT      O40027   1.664   5.182   2.437
13262WAT     H140028   1.602   5.224   2.370
13262WAT     H240029   1.619   5.179   2.526
13263WAT      O40030   7.710   3.576   6.785
13263WAT     H140031   7.776   3.560   6.859
13263WAT     H240032   7.638   3.637   6.819
13264WAT      O40033   4.025   5.441   2.177
13264WAT     H140034   3.944   5.493   2.203
13264WAT     H240035   4.054   5.382   2.253
13265WAT      O40036   7.273   2.306   2.295
13265WAT     H140037   7.213   2.337   2.221
13265WAT     H240038   7.343   2.244   2.259
13266WAT      O40039   0.414   1.098   7.004
13266WAT     H140040   0.381   1.004   7.006
13266WAT     H240041   0.512   1.100   6.986
13267WAT      O40042   2.487   7.552   2.548
13267WAT     H140043   2.406   7.529   2.603
13267WAT     H240044   2.534   7.467   2.523
13268WAT      O40045   3.941   9.129   6.180
13268WAT     H140046   4.027   9.084   6.154
13268WAT     H240047   3.938   9.220   6.139
13269WAT      O40048   2.028   4.082   4.417
13269WAT     H140049   1.932   4.094   4.443
13269WAT     H240050   2.077   4.034   4.490
13270WAT      O40051   9.370   2.561   5.007
13270WAT     H140052   9.271   2.547   4.996
13270WAT     H240053   9.417   2.474   4.991
13271WAT      O40054   2.529   7.745   5.681
13271WAT     H140055   2.559   7.810   5.751
13271WAT     H240056   2.461   7.683   5.721
13272WAT      O40057   9.812   0.070   8.642
13272WAT     H140058   9.786   0.096   8.550
13272WAT     H240059   9.751   0.114   8.708
13273WAT      O40060   1.880   4.263   0.589
13273WAT     H140061   1.836   4.191   0.535
13273WAT     H240062   1.901   4.341   0.529
13274WAT      O40063   8.831   9.387   0.138
13274WAT     H140064   8.891   9.409   0.060
13274WAT     H240065   8.782   9.469   0.166
13275WAT      O40066   3.740   8.595   5.677
13275WAT     H140067   3.828   8.587   5.724
13275WAT     H240068   3.726   8.516   5.617
13276WAT      O40069   3.609   7.461   5.910
13276WAT     H140070   3.642   7.374   5.947
13276WAT     H240071   3.647   7.475   5.819
13277WAT      O40072   0.493   7.431   2.919
13277WAT     H140073   0.535   7.495   2.855
13277WAT     H240074   0.565   7.377   2.964
13278WAT      O40075   0.535   7.834   1.892
13278WAT     H140076   0.590   7.912   1.862
13278WAT     H240077   0.489   7.793   1.812
13279WAT      O40078   8.203   1.447   7.642
13279WAT     H140079   8.168   1.474   7.552
13279WAT     H240080   8.210   1.527   7.701
13280WAT      O40081   9.194   4.661   6.295
13280WAT     H140082   9.241   4.635   6.211
13280WAT     H240083   9.185   4.761   6.298
13281WAT      O40084   3.736   5.822   7.350
13281WAT     H140085   3.711   5.841   7.445
13281WAT     H240086   3.832   5.793   7.347
13282WAT      O40087   3.230   6.466   0.055
13282WAT     H140088   3.258   6.476  -0.040
13282WAT     H240089   3.307   6.489   0.115
13283WAT      O40090   3.558   4.523   3.779
13283WAT     H140091   3.582   4.517   3.876
13283WAT     H240092   3.637   4.497   3.724
13284WAT      O40093   3.543   9.012   8.302
13284WAT     H140094   3.636   8.977   8.290
13284WAT     H240095   3.531   9.042   8.397
13285WAT      O40096   3.847   7.158   6.288
13285WAT     H140097   3.918   7.124   6.227
13285WAT     H240098   3.867   7.253   6.313
13286WAT      O40099   3.176   4.223   9.229
13286WAT     H140100   3.233   4.153   9.272
13286WAT     H240101   3.128   4.275   9.300
13287WAT      O40102   1.321   4.443   7.641
13287WAT     H140103   1.283   4.391   7.565
13287WAT     H240104   1.268   4.527   7.653
13288WAT      O40105   3.424   7.885   4.067
13288WAT     H140106   3.512   7.840   4.085
13288WAT     H240107   3.427   7.929   3.977
13289WAT      O40108   7.736   1.913   9.068
13289WAT     H140109   7.742   1.818   9.036
13289WAT     H240110   7.642   1.946   9.057
13290WAT      O40111   0.019   0.614   0.218
13290WAT     H140112   0.102   0.596   0.167
13290WAT     H240113  -0.056   0.559   0.180
13291WAT      O40114   3.530   4.447   7.701
13291WAT     H140115   3.466   4.489   7.637
13291WAT     H240116   3.622   4.448   7.660
13292WAT      O40117   6.357   0.788   3.321
13292WAT     H140118   6.277   0.791   3.380
13292WAT     H240119   6.413   0.708   3.344
13293WAT      O40120   4.038   5.109   4.850
13293WAT     H140121   4.097   5.049   4.904
13293WAT     H240122   3.955   5.128   4.902
13294WAT      O40123   6.066   5.781   3.760
13294WAT     H140124   6.146   5.785   3.820
13294WAT     H240125   6.094   5.754   3.668
13295WAT      O40126   7.058   4.627   3.975
13295WAT     H140127   7.133   4.657   4.033
13295WAT     H240128   6.971   4.639   4.024
13296WAT      O40129   8.250   4.201   9.744
13296WAT     H140130   8.332   4.256   9.763
13296WAT     H240131   8.277   4.107   9.725
13297WAT      O40132   9.177   9.817   7.377
13297WAT     H140133   9.144   9.792   7.286
13297WAT     H240134   9.276   9.804   7.382
13298WAT      O40135   4.178   0.454   1.893
13298WAT     H140136   4.234   0.377   1.924
13298WAT     H240137   4.098   0.419   1.844
13299WAT      O40138   8.099   4.436   3.450
13299WAT     H140139   8.031   4.399   3.513
13299WAT     H240140   8.076   4.531   3.428
13300WAT      O40141   9.293   6.005   8.665
13300WAT     H140142   9.270   5.910   8.645
13300WAT     H240143   9.282   6.022   8.763
13301WAT      O40144   6.400   9.122   3.047
13301WAT     H140145   6.483   9.169   3.017
13301WAT     H240146   6.370   9.161   3.134
13302WAT      O40147   6.527   8.073   2.509
13302WAT     H140148   6.573   8.028   2.433
13302WAT     H240149   6.537   8.019   2.592
13303WAT      O40150   3.983   0.425   6.908
13303WAT     H140151   4.003   0.523   6.916
13303WAT     H240152   3.884   0.412   6.912
13304WAT      O40153   8.490   0.294   9.013
13304WAT     H140154   8.514   0.367   8.948
13304WAT     H240155   8.568   0.232   9.022
13305WAT      O40156   6.602   6.587   2.221
13305WAT     H140157   6.526   6.633   2.267
13305WAT     H240158   6.624   6.636   2.136
13306WAT      O40159   9.467   5.833   3.303
13306WAT     H140160   9.528   5.912   3.295
13306WAT     H240161   9.383   5.861   3.351
13307WAT      O40162   4.000   5.032   6.696
13307WAT     H140163   4.039   5.088   6.623
13307WAT     H240164   3.944   5.090   6.755
13308WAT      O40165   7.818   6.371   0.536
13308WAT     H140166   7.851   6.279   0.556
13308WAT     H240167   7.881   6.417   0.473
13309WAT      O40168   0.537   9.695   3.902
13309WAT     H140169   0.544   9.755   3.983
13309WAT     H240170   0.610   9.627   3.906
13310WAT      O40171   1.368   8.466   0.120
13310WAT     H140172   1.415   8.461   0.208
13310WAT     H240173   1.349   8.562   0.098
13311WAT      O40174   2.156   7.099   0.147
13311WAT     H140175   2.075   7.110   0.204
13311WAT     H240176   2.200   7.188   0.134
13312WAT      O40177   1.840   0.113   1.846
13312WAT     H140178   1.819   0.190   1.907
13312WAT     H240179   1.774   0.110   1.772
13313WAT      O40180   2.518   6.333   1.390
13313WAT     H140181   2.512   6.316   1.292
13313WAT     H240182   2.584   6.406   1.408
13314WAT      O40183   3.339   3.297   1.346
13314WAT     H140184   3.270   3.352   1.298
13314WAT     H240185   3.296   3.215   1.383
13315WAT      O40186   7.752   8.800   7.343
13315WAT     H140187   7.804   8.823   7.260
13315WAT     H240188   7.692   8.876   7.366
13316WAT      O40189   4.426   7.279   6.241
13316WAT     H140190   4.352   7.269   6.308
13316WAT     H240191   4.413   7.213   6.168
13317WAT      O40192   1.988   8.706   0.461
13317WAT     H140193   1.897   8.740   0.437
13317WAT     H240194   1.989   8.606   0.454
13318WAT      O40195   1.144   7.943   9.271
13318WAT     H140196   1.106   8.004   9.341
13318WAT     H240197   1.229   7.983   9.236
13319WAT      O40198   0.113   8.986   3.214
13319WAT     H140199   0.211   8.988   3.236
13319WAT     H240200   0.081   9.079   3.199
13320WAT      O40201   8.419   4.699   4.257
13320WAT     H140202   8.368   4.786   4.263
13320WAT     H240203   8.389   4.639   4.331
13321WAT      O40204   0.136   7.603   2.862
13321WAT     H140205   0.058   7.543   2.880
13321WAT     H240206   0.108   7.698   2.873
13322WAT      O40207   8.612   4.964   7.240
13322WAT     H140208   8.636   5.007   7.153
13322WAT     H240209   8.574   4.873   7.223
13323WAT      O40210   2.612   6.949   5.333
13323WAT     H140211   2.699   6.978   5.293
13323WAT     H240212   2.628   6.908   5.422
13324WAT      O40213   0.584   1.320   2.853
13324WAT     H140214   0.576   1.322   2.952
13324WAT     H240215   0.573   1.413   2.816
13325WAT      O40216   3.951   1.753   4.469
13325WAT     H140217   3.931   1.844   4.433
13325WAT     H240218   3.993   1.762   4.559
13326WAT      O40219   9.186   0.618   1.656
13326WAT     H140220   9.197   0.709   1.697
13326WAT     H240221   9.097   0.581   1.679
13327WAT      O40222   2.001   2.565   4.939
13327WAT     H140223   1.985   2.470   4.966
13327WAT     H240224   1.935   2.591   4.869
13328WAT      O40225   1.424   5.545   9.328
13328WAT     H140226   1.326   5.564   9.317
13328WAT     H240227   1.436   5.474   9.398
13329WAT      O40228   2.574   8.600   9.496
13329WAT     H140229   2.540   8.643   9.580
13329WAT     H240230   2.659   8.552   9.515
13330WAT      O40231   0.157   9.516   4.028
13330WAT     H140232   0.173   9.595   4.086
13330WAT     H240233   0.216   9.521   3.947
13331WAT      O40234   3.323   6.957   6.134
13331WAT     H140235   3.414   6.995   6.115
13331WAT     H240236   3.281   6.928   6.049
13332WAT      O40237   5.480   1.383   3.138
13332WAT     H140238   5.503   1.378   3.041
13332WAT     H240239   5.454   1.292   3.171
13333WAT      O40240   1.689   9.176   3.258
13333WAT     H140241   1.673   9.077   3.252
13333WAT     H240242   1.775   9.193   3.306
13334WAT      O40243   4.464   4.836   8.174
13334WAT     H140244   4.518   4.752   8.186
13334WAT     H240245   4.367   4.813   8.173
13335WAT      O40246   9.821   5.899   8.897
13335WAT     H140247   9.878   5.818   8.904
13335WAT     H240248   9.861   5.963   8.832
13336WAT      O40249   8.959   1.966   2.191
13336WAT     H140250   8.900   1.990   2.268
13336WAT     H240251   9.042   1.922   2.226
13337WAT      O40252   0.894   3.808   1.828
13337WAT     H140253   0.895   3.726   1.772
13337WAT     H240254   0.805   3.817   1.873
13338WAT      O40255   8.470   4.082   7.271
13338WAT     H140256   8.489   3.987   7.246
13338WAT     H240257   8.398   4.085   7.340
13339WAT      O40258   7.652   0.263   1.269
13339WAT     H140259   7.743   0.263   1.229
13339WAT     H240260   7.586   0.224   1.205
13340WAT      O40261   8.612   4.670   1.045
13340WAT     H140262   8.634   4.732   1.120
13340WAT     H240263   8.519   4.687   1.014
13341WAT      O40264   5.589   4.958   4.282
13341WAT     H140265   5.496   4.991   4.271
13341WAT     H240266   5.588   4.867   4.323
13342WAT      O40267   7.691   3.557   8.513
13342WAT     H140268   7.673   3.458   8.517
13342WAT     H240269   7.604   3.606   8.513
13343WAT      O40270   6.105   6.163   3.300
13343WAT     H140271   6.180   6.228   3.287
13343WAT     H240272   6.032   6.183   3.235
13344WAT      O40273   1.802   6.753   7.523
13344WAT     H140274   1.840   6.783   7.610
13344WAT     H240275   1.710   6.715   7.538
13345WAT      O40276   6.969   7.298   0.564
13345WAT     H140277   6.899   7.360   0.527
13345WAT     H240278   6.932   7.205   0.569
13346WAT      O40279   3.397   7.190   7.581
13346WAT     H140280   3.458   7.123   7.623
13346WAT     H240281   3.394   7.175   7.483
13347WAT      O40282   2.648   1.261   4.318
13347WAT     H140283   2.569   1.276   4.258
13347WAT     H240284   2.717   1.208   4.270
13348WAT      O40285   5.317   5.466   8.467
13348WAT     H140286   5.299   5.489   8.563
13348WAT     H240287   5.240   5.413   8.430
13349WAT      O40288   4.306   9.239   9.531
13349WAT     H140289   4.390   9.192   9.507
13349WAT     H240290   4.249   9.251   9.450
13350WAT      O40291   3.421   3.808   1.515
13350WAT     H140292   3.467   3.883   1.563
13350WAT     H240293   3.392   3.739   1.581
13351WAT      O40294   4.089   5.057   7.438
13351WAT     H140295   3.991   5.069   7.456
13351WAT     H240296   4.126   4.989   7.501
13352WAT      O40297   6.088   7.062   4.331
13352WAT     H140298   6.156   7.005   4.378
13352WAT     H240299   6.026   7.102   4.398
13353WAT      O40300   5.735   6.941   2.185
13353WAT     H140301   5.723   6.961   2.282
13353WAT     H240302   5.706   6.847   2.167
13354WAT      O40303   6.730   2.706   4.400
13354WAT     H140304   6.769   2.614   4.397
13354WAT     H240305   6.803   2.773   4.388
13355WAT      O40306   3.398   6.969   3.566
13355WAT     H140307   3.342   7.038   3.519
13355WAT     H240308   3.428   6.900   3.500
13356WAT      O40309   0.469   2.091   1.934
13356WAT     H140310   0.553   2.146   1.940
13356WAT     H240311   0.477   2.027   1.858
13357WAT      O40312   3.841   5.618   8.917
13357WAT     H140313   3.802   5.628   8.826
13357WAT     H240314   3.802   5.687   8.978
13358WAT      O40315   4.794   3.207   4.637
13358WAT     H140316   4.813   3.169   4.546
13358WAT     H240317   4.859   3.169   4.703
13359WAT      O40318   1.694   8.668   6.990
13359WAT     H140319   1.730   8.753   7.027
13359WAT     H240320   1.617   8.688   6.930
13360WAT      O40321   6.986   3.915   7.775
13360WAT     H140322   6.981   4.008   7.809
13360WAT     H240323   6.964   3.851   7.848
13361WAT      O40324   8.633   3.407   8.968
13361WAT     H140325   8.731   3.425   8.962
13361WAT     H240326   8.596   3.452   9.050
13362WAT      O40327   6.021   0.950   1.189
13362WAT     H140328   5.931   0.943   1.145
13362WAT     H240329   6.058   0.859   1.204
13363WAT      O40330   1.880   0.604   6.128
13363WAT     H140331   1.899   0.519   6.078
13363WAT     H240332   1.964   0.657   6.137
13364WAT      O40333   8.234   5.648   5.416
13364WAT     H140334   8.320   5.653   5.466
13364WAT     H240335   8.169   5.590   5.466
13365WAT      O40336   2.931   4.831   8.885
13365WAT     H140337   3.017   4.874   8.911
13365WAT     H240338   2.855   4.877   8.931
13366WAT      O40339   0.605   4.849   9.420
13366WAT     H140340   0.527   4.834   9.480
13366WAT     H240341   0.582   4.821   9.327
13367WAT      O40342   6.652   8.683   3.155
13367WAT     H140343   6.592   8.716   3.228
13367WAT     H240344   6.723   8.624   3.194
13368WAT      O40345   4.311   8.500   3.776
13368WAT     H140346   4.390   8.517   3.835
13368WAT     H240347   4.275   8.408   3.795
13369WAT      O40348   0.564   8.118   9.254
13369WAT     H140349   0.634   8.116   9.183
13369WAT     H240350   0.473   8.113   9.212
13370WAT      O40351   9.294   6.570   2.173
13370WAT     H140352   9.221   6.593   2.238
13370WAT     H240353   9.379   6.616   2.201
13371WAT      O40354   0.249   8.485   0.212
13371WAT     H140355   0.324   8.521   0.157
13371WAT     H240356   0.162   8.522   0.180
13372WAT      O40357   3.393   9.379   8.295
13372WAT     H140358   3.402   9.381   8.195
13372WAT     H240359   3.479   9.410   8.336
13373WAT      O40360   0.869   7.336   7.806
13373WAT     H140361   0.884   7.364   7.711
13373WAT     H240362   0.941   7.273   7.834
13374WAT      O40363   6.007   0.574   6.471
13374WAT     H140364   6.036   0.567   6.375
13374WAT     H240365   6.058   0.648   6.515
13375WAT      O40366   0.478   1.101   6.081
13375WAT     H140367   0.396   1.095   6.137
13375WAT     H240368   0.553   1.052   6.125
13376WAT      O40369   7.419   0.741   2.375
13376WAT     H140370   7.408   0.649   2.339
13376WAT     H240371   7.334   0.770   2.419
13377WAT      O40372   0.954   8.742   7.472
13377WAT     H140373   1.012   8.795   7.410
13377WAT     H240374   0.977   8.766   7.567
13378WAT      O40375   7.434   7.329   3.345
13378WAT     H140376   7.346   7.280   3.346
13378WAT     H240377   7.446   7.373   3.257
13379WAT      O40378   7.866   1.576   7.036
13379WAT     H140379   7.959   1.608   7.052
13379WAT     H240380   7.806   1.655   7.020
13380WAT      O40381   0.287   8.744   2.705
13380WAT     H140382   0.289   8.656   2.754
13380WAT     H240383   0.374   8.792   2.721
13381WAT      O40384   7.751   9.848   4.518
13381WAT     H140385   7.778   9.753   4.499
13381WAT     H240386   7.675   9.849   4.583
13382WAT      O40387   1.277   1.568   8.865
13382WAT     H140388   1.372   1.557   8.892
13382WAT     H240389   1.226   1.484   8.884
13383WAT      O40390   3.210   9.681   9.687
13383WAT     H140391   3.180   9.775   9.696
13383WAT     H240392   3.307   9.674   9.712
13384WAT      O40393   5.637   0.217   6.970
13384WAT     H140394   5.610   0.313   6.972
13384WAT     H240395   5.725   0.208   6.922
13385WAT      O40396   3.899   1.917   7.064
13385WAT     H140397   3.891   1.841   7.128
13385WAT     H240398   3.979   1.972   7.087
13386WAT      O40399   3.324   5.214   0.413
13386WAT     H140400   3.263   5.182   0.341
13386WAT     H240401   3.389   5.142   0.436
13387WAT      O40402   7.687   1.767   5.845
13387WAT     H140403   7.741   1.839   5.889
13387WAT     H240404   7.590   1.783   5.863
13388WAT      O40405   4.732   0.776   8.707
13388WAT     H140406   4.822   0.771   8.664
13388WAT     H240407   4.662   0.753   8.640
13389WAT      O40408   2.149   2.491   1.500
13389WAT     H140409   2.246   2.471   1.489
13389WAT     H240410   2.134   2.590   1.492
13390WAT      O40411   1.878   4.078   4.018
13390WAT     H140412   1.793   4.026   4.007
13390WAT     H240413   1.936   4.034   4.085
13391WAT      O40414   9.566   4.069   9.016
13391WAT     H140415   9.612   4.148   8.974
13391WAT     H240416   9.467   4.081   9.008
13392WAT      O40417   1.611   7.086   4.985
13392WAT     H140418   1.598   7.167   5.044
13392WAT     H240419   1.595   7.112   4.890
13393WAT      O40420   2.919   8.876   9.077
13393WAT     H140421   2.978   8.808   9.122
13393WAT     H240422   2.835   8.831   9.045
13394WAT      O40423   8.324   5.976   1.366
13394WAT     H140424   8.377   5.932   1.438
13394WAT     H240425   8.385   6.023   1.303
13395WAT      O40426   4.654   5.376   0.506
13395WAT     H140427   4.631   5.295   0.452
13395WAT     H240428   4.624   5.362   0.601
13396WAT      O40429   6.442   5.266   7.988
13396WAT     H140430   6.401   5.343   8.037
13396WAT     H240431   6.371   5.197   7.972
13397WAT      O40432   5.824   3.370   9.492
13397WAT     H140433   5.736   3.355   9.537
13397WAT     H240434   5.841   3.468   9.484
13398WAT      O40435   0.490   9.563   2.159
13398WAT     H140436   0.550   9.537   2.235
13398WAT     H240437   0.512   9.507   2.079
13399WAT      O40438   1.386   2.628   6.111
13399WAT     H140439   1.484   2.647   6.103
13399WAT     H240440   1.340   2.655   6.026
13400WAT      O40441   2.575   2.680   7.751
13400WAT     H140442   2.591   2.758   7.691
13400WAT     H240443   2.520   2.612   7.703
13401WAT      O40444   1.487   1.673   0.063
13401WAT     H140445   1.506   1.576   0.073
13401WAT     H240446   1.389   1.690   0.072
13402WAT      O40447   2.562   6.784   4.984
13402WAT     H140448   2.581   6.696   5.028
13402WAT     H240449   2.473   6.818   5.014
13403WAT      O40450   6.313   2.214   6.838
13403WAT     H140451   6.363   2.163   6.907
13403WAT     H240452   6.368   2.292   6.808
13404WAT      O40453   3.030   1.857   5.070
13404WAT     H140454   2.997   1.838   4.977
13404WAT     H240455   3.123   1.822   5.080
13405WAT      O40456   4.662   3.502   7.111
13405WAT     H140457   4.631   3.491   7.016
13405WAT     H240458   4.677   3.599   7.130
13406WAT      O40459   2.309   4.103   3.129
13406WAT     H140460   2.265   4.015   3.146
13406WAT     H240461   2.277   4.170   3.196
13407WAT      O40462   1.175   7.412   0.553
13407WAT     H140463   1.098   7.475   0.547
13407WAT     H240464   1.142   7.321   0.581
13408WAT      O40465   6.248   7.972   7.266
13408WAT     H140466   6.281   8.024   7.345
13408WAT     H240467   6.193   7.895   7.298
13409WAT      O40468   5.383   1.425   1.617
13409WAT     H140469   5.320   1.493   1.579
13409WAT     H240470   5.477   1.451   1.594
13410WAT      O40471   3.441   2.964   8.804
13410WAT     H140472   3.456   2.904   8.725
13410WAT     H240473   3.384   2.916   8.871
13411WAT      O40474   3.238   5.803   8.196
13411WAT     H140475   3.333   5.777   8.181
13411WAT     H240476   3.219   5.890   8.149
13412WAT      O40477   1.884   0.734   4.998
13412WAT     H140478   1.963   0.693   5.044
13412WAT     H240479   1.914   0.783   4.916
13413WAT      O40480   8.188   2.019   6.030
13413WAT     H140481   8.177   1.977   6.120
13413WAT     H240482   8.259   1.972   5.979
13414WAT      O40483   1.277   0.760   3.646
13414WAT     H140484   1.361   0.707   3.629
13414WAT     H240485   1.247   0.745   3.740
13415WAT      O40486   5.712   6.916   4.342
13415WAT     H140487   5.637   6.853   4.363
13415WAT     H240488   5.790   6.864   4.306
13416WAT      O40489   8.789   5.415   9.276
13416WAT     H140490   8.820   5.393   9.369
13416WAT     H240491   8.866   5.447   9.221
13417WAT      O40492   8.508   9.461   7.007
13417WAT     H140493   8.587   9.484   6.950
13417WAT     H240494   8.487   9.539   7.066
13418WAT      O40495   9.117   8.080   0.046
13418WAT     H140496   9.150   8.010   0.109
13418WAT     H240497   9.019   8.095   0.062
13419WAT      O40498   1.742   0.432   8.579
13419WAT     H140499   1.733   0.348   8.632
13419WAT     H240500   1.692   0.423   8.493
13420WAT      O40501   4.829   3.835   1.813
13420WAT     H140502   4.841   3.809   1.717
13420WAT     H240503   4.732   3.848   1.833
13421WAT      O40504   5.410   0.926   5.857
13421WAT     H140505   5.379   1.009   5.810
13421WAT     H240506   5.413   0.850   5.793
13422WAT      O40507   6.110   5.197   6.987
13422WAT     H140508   6.066   5.192   7.077
13422WAT     H240509   6.096   5.111   6.938
13423WAT      O40510   5.946   8.673   9.188
13423WAT     H140511   6.005   8.596   9.161
13423WAT     H240512   5.850   8.645   9.181
13424WAT      O40513   4.184   1.481   9.815
13424WAT     H140514   4.166   1.577   9.791
13424WAT     H240515   4.196   1.428   9.731
13425WAT      O40516   8.996   0.382   9.582
13425WAT     H140517   8.983   0.438   9.500
13425WAT     H240518   8.932   0.412   9.653
13426WAT      O40519   2.577   0.423   9.102
13426WAT     H140520   2.566   0.361   9.180
13426WAT     H240521   2.565   0.372   9.017
13427WAT      O40522   1.664   6.368   4.236
13427WAT     H140523   1.587   6.424   4.266
13427WAT     H240524   1.638   6.318   4.153
13428WAT      O40525   7.174   7.217   4.279
13428WAT     H140526   7.273   7.209   4.265
13428WAT     H240527   7.150   7.314   4.288
13429WAT      O40528   1.332   3.710   5.065
13429WAT     H140529   1.302   3.653   5.142
13429WAT     H240530   1.426   3.740   5.081
13430WAT      O40531   2.993   4.811   1.058
13430WAT     H140532   3.027   4.819   1.152
13430WAT     H240533   3.064   4.839   0.994
13431WAT      O40534   5.115   6.057   4.903
13431WAT     H140535   5.211   6.033   4.910
13431WAT     H240536   5.077   6.020   4.818
13432WAT      O40537   6.391   7.840   8.849
13432WAT     H140538   6.377   7.933   8.816
13432WAT     H240539   6.317   7.781   8.816
13433WAT      O40540   0.719   9.526   0.987
13433WAT     H140541   0.790   9.557   0.923
13433WAT     H240542   0.753   9.536   1.080
13434WAT      O40543   2.449   7.830   0.821
13434WAT     H140544   2.486   7.916   0.857
13434WAT     H240545   2.349   7.838   0.812
13435WAT      O40546   3.989   6.272   7.221
13435WAT     H140547   4.011   6.192   7.278
13435WAT     H240548   4.035   6.264   7.133
13436WAT      O40549   5.578   3.325   8.906
13436WAT     H140550   5.540   3.336   8.814
13436WAT     H240551   5.626   3.238   8.912
13437WAT      O40552   7.214   7.420   0.173
13437WAT     H140553   7.190   7.484   0.101
13437WAT     H240554   7.163   7.443   0.256
13438WAT      O40555   8.098   9.273   7.440
13438WAT     H140556   8.115   9.179   7.412
13438WAT     H240557   7.999   9.287   7.454
13439WAT      O40558   1.322   6.327   4.090
13439WAT     H140559   1.274   6.264   4.152
13439WAT     H240560   1.304   6.421   4.117
13440WAT      O40561   5.137   1.916   9.652
13440WAT     H140562   5.100   1.833   9.691
13440WAT     H240563   5.189   1.966   9.721
13441WAT      O40564   0.599   2.395   9.476
13441WAT     H140565   0.545   2.326   9.524
13441WAT     H240566   0.693   2.393   9.510
13442WAT      O40567   5.257   3.067   6.486
13442WAT     H140568   5.187   3.052   6.416
13442WAT     H240569   5.331   3.000   6.474
13443WAT      O40570   8.984   4.944   7.881
13443WAT     H140571   9.007   4.901   7.793
13443WAT     H240572   8.978   4.873   7.952
13444WAT      O40573   7.854   9.701   5.882
13444WAT     H140574   7.883   9.605   5.878
13444WAT     H240575   7.851   9.731   5.977
13445WAT      O40576   1.183   5.891   0.494
13445WAT     H140577   1.262   5.835   0.470
13445WAT     H240578   1.117   5.890   0.419
13446WAT      O40579   0.824   2.158   7.012
13446WAT     H140580   0.803   2.061   6.997
13446WAT     H240581   0.887   2.190   6.941
13447WAT      O40582   2.073   0.547   7.348
13447WAT     H140583   2.074   0.506   7.257
13447WAT     H240584   2.071   0.647   7.340
13448WAT      O40585   2.179   9.177   3.121
13448WAT     H140586   2.157   9.188   3.024
13448WAT     H240587   2.124   9.241   3.175
13449WAT      O40588   3.532   0.947   8.079
13449WAT     H140589   3.469   1.021   8.102
13449WAT     H240590   3.574   0.912   8.162
13450WAT      O40591   3.923   7.391   6.392
13450WAT     H140592   3.890   7.474   6.348
13450WAT     H240593   4.022   7.398   6.407
13451WAT      O40594   8.621   3.164   1.107
13451WAT     H140595   8.702   3.134   1.158
13451WAT     H240596   8.618   3.264   1.104
13452WAT      O40597   1.901   5.221   1.519
13452WAT     H140598   1.984   5.254   1.475
13452WAT     H240599   1.889   5.124   1.501
13453WAT      O40600   9.497   5.880   0.380
13453WAT     H140601   9.400   5.870   0.358
13453WAT     H240602   9.551   5.884   0.296
13454WAT      O40603   2.383   7.275   2.264
13454WAT     H140604   2.408   7.297   2.169
13454WAT     H240605   2.445   7.205   2.299
13455WAT      O40606   5.138   4.926   3.958
13455WAT     H140607   5.039   4.911   3.955
13455WAT     H240608   5.165   4.955   4.050
13456WAT      O40609   0.822   5.795   9.381
13456WAT     H140610   0.790   5.706   9.411
13456WAT     H240611   0.820   5.800   9.282
13457WAT      O40612   9.891   3.562   3.623
13457WAT     H140613   9.913   3.474   3.664
13457WAT     H240614   9.827   3.549   3.547
13458WAT      O40615   4.565   9.657   1.971
13458WAT     H140616   4.510   9.580   2.003
13458WAT     H240617   4.620   9.692   2.047
13459WAT      O40618   1.909   2.817   4.175
13459WAT     H140619   1.961   2.759   4.238
13459WAT     H240620   1.853   2.759   4.116
13460WAT      O40621   9.463   8.933   6.604
13460WAT     H140622   9.529   8.932   6.679
13460WAT     H240623   9.412   9.019   6.605
13461WAT      O40624   6.626   8.252   2.001
13461WAT     H140625   6.680   8.190   2.059
13461WAT     H240626   6.648   8.346   2.023
13462WAT      O40627   3.426   4.442   7.178
13462WAT     H140628   3.487   4.376   7.134
13462WAT     H240629   3.406   4.411   7.271
13463WAT      O40630   0.555   7.104   5.712
13463WAT     H140631   0.591   7.127   5.622
13463WAT     H240632   0.479   7.039   5.703
13464WAT      O40633   2.126   0.693   6.129
13464WAT     H140634   2.159   0.784   6.156
13464WAT     H240635   2.141   0.679   6.031
13465WAT      O40636   1.639   1.266   7.411
13465WAT     H140637   1.618   1.218   7.496
13465WAT     H240638   1.649   1.200   7.337
13466WAT      O40639   5.906   2.192   0.225
13466WAT     H140640   5.864   2.163   0.139
13466WAT     H240641   5.878   2.130   0.298
13467WAT      O40642   1.339   4.274   6.166
13467WAT     H140643   1.415   4.332   6.136
13467WAT     H240644   1.276   4.260   6.090
13468WAT      O40645   7.266   5.595   4.668
13468WAT     H140646   7.304   5.503   4.673
13468WAT     H240647   7.307   5.652   4.740
13469WAT      O40648   3.618   0.692   8.723
13469WAT     H140649   3.641   0.595   8.712
13469WAT     H240650   3.668   0.729   8.801
13470WAT      O40651   6.852   6.564   0.710
13470WAT     H140652   6.826   6.502   0.784
13470WAT     H240653   6.939   6.608   0.734
13471WAT      O40654   6.277   2.016   5.017
13471WAT     H140655   6.248   2.102   5.058
13471WAT     H240656   6.201   1.976   4.966
13472WAT      O40657   2.550   3.601   0.358
13472WAT     H140658   2.607   3.655   0.296
13472WAT     H240659   2.467   3.653   0.381
13473WAT      O40660   6.223   8.769   8.844
13473WAT     H140661   6.215   8.847   8.782
13473WAT     H240662   6.140   8.714   8.839
13474WAT      O40663   4.412   7.227   0.442
13474WAT     H140664   4.326   7.191   0.406
13474WAT     H240665   4.467   7.151   0.478
13475WAT      O40666   6.018   5.272   8.756
13475WAT     H140667   6.105   5.283   8.805
13475WAT     H240668   5.949   5.236   8.819
13476WAT      O40669   6.617   7.381   4.545
13476WAT     H140670   6.688   7.349   4.482
13476WAT     H240671   6.627   7.335   4.633
13477WAT      O40672   8.505   3.564   2.171
13477WAT     H140673   8.526   3.580   2.075
13477WAT     H240674   8.489   3.467   2.187
13478WAT      O40675   9.536   3.015   9.325
13478WAT     H140676   9.461   2.972   9.274
13478WAT     H240677   9.503   3.046   9.414
13479WAT      O40678   3.070   9.283   3.012
13479WAT     H140679   3.012   9.363   2.997
13479WAT     H240680   3.135   9.276   2.936
13480WAT      O40681   0.787   6.073   3.454
13480WAT     H140682   0.740   6.077   3.365
13480WAT     H240683   0.719   6.065   3.527
13481WAT      O40684   3.833   5.756   1.503
13481WAT     H140685   3.903   5.685   1.504
13481WAT     H240686   3.840   5.808   1.418
13482WAT      O40687   3.392   7.790   9.277
13482WAT     H140688   3.464   7.720   9.278
13482WAT     H240689   3.428   7.875   9.316
13483WAT      O40690   2.720   0.712   5.558
13483WAT     H140691   2.806   0.681   5.517
13483WAT     H240692   2.720   0.690   5.655
13484WAT      O40693   3.927   5.384   6.107
13484WAT     H140694   3.969   5.296   6.129
13484WAT     H240695   3.929   5.443   6.187
13485WAT      O40696   2.106   2.790   9.781
13485WAT     H140697   2.062   2.751   9.862
13485WAT     H240698   2.045   2.859   9.741
13486WAT      O40699   3.787   7.462   5.258
13486WAT     H140700   3.820   7.552   5.232
13486WAT     H240701   3.727   7.426   5.187
13487WAT      O40702   1.177   5.854   8.414
13487WAT     H140703   1.209   5.906   8.334
13487WAT     H240704   1.254   5.836   8.475
13488WAT      O40705   8.287   5.370   8.687
13488WAT     H140706   8.279   5.438   8.614
13488WAT     H240707   8.219   5.298   8.673
13489WAT      O40708   1.560   4.686   5.892
13489WAT     H140709   1.555   4.644   5.802
13489WAT     H240710   1.510   4.772   5.891
13490WAT      O40711   6.180   3.705   6.596
13490WAT     H140712   6.179   3.788   6.652
13490WAT     H240713   6.242   3.718   6.519
13491WAT      O40714   0.488   0.624   4.677
13491WAT     H140715   0.552   0.702   4.679
13491WAT     H240716   0.403   0.653   4.634
13492WAT      O40717   4.118   3.253   8.015
13492WAT     H140718   4.060   3.184   7.972
13492WAT     H240719   4.181   3.208   8.079
13493WAT      O40720   3.615   8.394   8.979
13493WAT     H140721   3.522   8.399   9.016
13493WAT     H240722   3.618   8.332   8.902
13494WAT      O40723   7.531   5.685   2.627
13494WAT     H140724   7.506   5.728   2.540
13494WAT     H240725   7.524   5.585   2.617
13495WAT      O40726   1.146   1.255   7.662
13495WAT     H140727   1.128   1.195   7.584
13495WAT     H240728   1.162   1.348   7.629
13496WAT      O40729   6.415   4.476   2.065
13496WAT     H140730   6.319   4.488   2.089
13496WAT     H240731   6.436   4.527   1.981
13497WAT      O40732   2.124   0.273   0.639
13497WAT     H140733   2.215   0.260   0.679
13497WAT     H240734   2.132   0.288   0.541
13498WAT      O40735   2.079   8.667   9.477
13498WAT     H140736   2.112   8.573   9.475
13498WAT     H240737   2.016   8.679   9.554
13499WAT      O40738   6.101   0.997   1.548
13499WAT     H140739   6.081   1.065   1.477
13499WAT     H240740   6.156   1.039   1.620
13500WAT      O40741   2.583   9.795   4.833
13500WAT     H140742   2.663   9.778   4.776
13500WAT     H240743   2.528   9.712   4.840
13501WAT      O40744   4.887   1.165   2.559
13501WAT     H140745   4.955   1.196   2.625
13501WAT     H240746   4.810   1.124   2.608
13502WAT      O40747   6.968   8.448   1.102
13502WAT     H140748   7.015   8.465   1.016
13502WAT     H240749   7.001   8.513   1.171
13503WAT      O40750   3.317   3.428   0.671
13503WAT     H140751   3.362   3.488   0.737
13503WAT     H240752   3.284   3.346   0.719
13504WAT      O40753   0.358   5.825   5.499
13504WAT     H140754   0.272   5.874   5.485
13504WAT     H240755   0.414   5.874   5.566
13505WAT      O40756   5.944   9.767   7.699
13505WAT     H140757   6.021   9.707   7.719
13505WAT     H240758   5.953   9.805   7.607
13506WAT      O40759   2.579   0.356   2.392
13506WAT     H140760   2.644   0.326   2.322
13506WAT     H240761   2.490   0.315   2.374
13507WAT      O40762   2.794   0.239   2.629
13507WAT     H140763   2.706   0.279   2.655
13507WAT     H240764   2.777   0.158   2.572
13508WAT      O40765   7.311   1.833   7.780
13508WAT     H140766   7.293   1.787   7.693
13508WAT     H240767   7.370   1.776   7.837
13509WAT      O40768   2.421   3.536   6.361
13509WAT     H140769   2.367   3.512   6.442
13509WAT     H240770   2.445   3.453   6.311
13510WAT      O40771   7.636   5.196   3.427
13510WAT     H140772   7.659   5.245   3.344
13510WAT     H240773   7.720   5.163   3.471
13511WAT      O40774   5.609   6.311   5.442
13511WAT     H140775   5.693   6.361   5.465
13511WAT     H240776   5.632   6.230   5.388
13512WAT      O40777   1.122   6.109   7.642
13512WAT     H140778   1.167   6.103   7.731
13512WAT     H240779   1.090   6.019   7.614
13513WAT      O40780   4.187   1.374   0.435
13513WAT     H140781   4.164   1.464   0.474
13513WAT     H240782   4.166   1.374   0.338
13514WAT      O40783   6.231   8.590   8.361
13514WAT     H140784   6.203   8.685   8.345
13514WAT     H240785   6.238   8.573   8.459
13515WAT      O40786   0.445   7.645   4.671
13515WAT     H140787   0.469   7.702   4.749
13515WAT     H240788   0.520   7.644   4.605
13516WAT      O40789   6.602   2.616   6.872
13516WAT     H140790   6.562   2.704   6.848
13516WAT     H240791   6.701   2.627   6.884
13517WAT      O40792   7.966   9.008   3.729
13517WAT     H140793   7.908   8.998   3.648
13517WAT     H240794   8.062   9.005   3.702
13518WAT      O40795   4.424   6.355   3.556
13518WAT     H140796   4.442   6.410   3.474
13518WAT     H240797   4.398   6.416   3.632
13519WAT      O40798   3.773   9.437   3.632
13519WAT     H140799   3.722   9.478   3.707
13519WAT     H240800   3.725   9.454   3.546
13520WAT      O40801   6.471   8.173   9.845
13520WAT     H140802   6.512   8.159   9.935
13520WAT     H240803   6.440   8.085   9.809
13521WAT      O40804   5.452   3.244   6.076
13521WAT     H140805   5.437   3.341   6.090
13521WAT     H240806   5.519   3.210   6.141
13522WAT      O40807   9.424   2.051   6.944
13522WAT     H140808   9.407   2.149   6.958
13522WAT     H240809   9.511   2.026   6.987
13523WAT      O40810   0.394   7.477   6.590
13523WAT     H140811   0.366   7.507   6.681
13523WAT     H240812   0.312   7.460   6.534
13524WAT      O40813   8.116   3.507   8.426
13524WAT     H140814   8.071   3.535   8.511
13524WAT     H240815   8.170   3.425   8.443
13525WAT      O40816   4.835   8.831   7.621
13525WAT     H140817   4.772   8.892   7.574
13525WAT     H240818   4.924   8.832   7.575
13526WAT      O40819   8.953   5.700   0.162
13526WAT     H140820   8.957   5.755   0.079
13526WAT     H240821   9.022   5.627   0.157
13527WAT      O40822   3.771   4.816   4.741
13527WAT     H140823   3.692   4.812   4.802
13527WAT     H240824   3.800   4.911   4.731
13528WAT      O40825   2.746   7.500   3.377
13528WAT     H140826   2.661   7.534   3.417
13528WAT     H240827   2.751   7.526   3.281
13529WAT      O40828   2.873   0.345   7.052
13529WAT     H140829   2.844   0.406   7.126
13529WAT     H240830   2.964   0.371   7.020
13530WAT      O40831   0.858   4.535   5.664
13530WAT     H140832   0.858   4.524   5.763
13530WAT     H240833   0.818   4.623   5.639
13531WAT      O40834   7.095   3.125   2.855
13531WAT     H140835   7.045   3.193   2.804
13531WAT     H240836   7.132   3.166   2.938
13532WAT      O40837   1.027   8.482   8.482
13532WAT     H140838   0.927   8.482   8.486
13532WAT     H240839   1.058   8.397   8.440
13533WAT      O40840   6.536   0.984   0.294
13533WAT     H140841   6.533   0.958   0.197
13533WAT     H240842   6.451   1.032   0.318
13534WAT      O40843   9.164   3.463   4.096
13534WAT     H140844   9.258   3.435   4.079
13534WAT     H240845   9.149   3.555   4.059
13535WAT      O40846   7.826   0.188   4.065
13535WAT     H140847   7.733   0.157   4.084
13535WAT     H240848   7.845   0.271   4.119
13536WAT      O40849   9.461   4.581   1.038
13536WAT     H140850   9.529   4.615   0.973
13536WAT     H240851   9.505   4.565   1.126
13537WAT      O40852   5.731   8.513   2.554
13537WAT     H140853   5.657   8.567   2.594
13537WAT     H240854   5.814   8.569   2.548
13538WAT      O40855   5.671   7.109   1.978
13538WAT     H140856   5.627   7.050   1.910
13538WAT     H240857   5.720   7.052   2.044
13539WAT      O40858   8.650   7.774   6.993
13539WAT     H140859   8.697   7.799   6.909
13539WAT     H240860   8.552   7.795   6.985
13540WAT      O40861   8.894   5.872   5.683
13540WAT     H140862   8.875   5.938   5.755
13540WAT     H240863   8.884   5.916   5.594
13541WAT      O40864   1.435   4.629   1.404
13541WAT     H140865   1.452   4.709   1.347
13541WAT     H240866   1.520   4.597   1.445
13542WAT      O40867   6.387   0.268   6.009
13542WAT     H140868   6.481   0.251   5.982
13542WAT     H240869   6.383   0.346   6.072
13543WAT      O40870   2.047   6.975   9.648
13543WAT     H140871   2.025   6.941   9.739
13543WAT     H240872   2.104   7.057   9.656
13544WAT      O40873   8.726   7.545   2.290
13544WAT     H140874   8.730   7.611   2.365
13544WAT     H240875   8.714   7.594   2.204
13545WAT      O40876   5.238   3.738   4.468
13545WAT     H140877   5.198   3.717   4.557
13545WAT     H240878   5.185   3.693   4.396
13546WAT      O40879   3.150   1.715   9.861
13546WAT     H140880   3.133   1.746   9.955
13546WAT     H240881   3.239   1.670   9.857
13547WAT      O40882   4.027   2.670   0.853
13547WAT     H140883   4.030   2.738   0.926
13547WAT     H240884   4.117   2.663   0.810
13548WAT      O40885   5.760   5.629   1.872
13548WAT     H140886   5.788   5.708   1.926
13548WAT     H240887   5.670   5.598   1.904
13549WAT      O40888   7.944   7.511   1.568
13549WAT     H140889   8.014   7.581   1.557
13549WAT     H240890   7.939   7.455   1.485
13550WAT      O40891   5.479   7.072   6.096
13550WAT     H140892   5.563   7.117   6.125
13550WAT     H240893   5.447   7.113   6.010
13551WAT      O40894   1.755   2.652   6.735
13551WAT     H140895   1.683   2.637   6.667
13551WAT     H240896   1.830   2.589   6.718
13552WAT      O40897   0.957   8.128   8.903
13552WAT     H140898   0.920   8.099   8.815
13552WAT     H240899   1.050   8.093   8.914
13553WAT      O40900   8.753   7.113   9.044
13553WAT     H140901   8.750   7.149   9.137
13553WAT     H240902   8.705   7.176   8.983
13554WAT      O40903   6.096   5.319   2.076
13554WAT     H140904   6.061   5.242   2.130
13554WAT     H240905   6.073   5.405   2.122
13555WAT      O40906   6.522   4.893   3.809
13555WAT     H140907   6.520   4.975   3.865
13555WAT     H240908   6.428   4.865   3.787
13556WAT      O40909   5.553   3.825   6.797
13556WAT     H140910   5.487   3.862   6.863
13556WAT     H240911   5.646   3.838   6.831
13557WAT      O40912   8.255   7.125   0.624
13557WAT     H140913   8.214   7.181   0.696
13557WAT     H240914   8.204   7.040   0.615
13558WAT      O40915   3.319   6.177   9.784
13558WAT     H140916   3.356   6.229   9.707
13558WAT     H240917   3.393   6.127   9.829
13559WAT      O40918   0.295   5.039   3.431
13559WAT     H140919   0.356   5.008   3.505
13559WAT     H240920   0.245   4.960   3.395
13560WAT      O40921   1.241   3.694   4.347
13560WAT     H140922   1.228   3.699   4.248
13560WAT     H240923   1.193   3.614   4.383
13561WAT      O40924   1.390   4.911   5.901
13561WAT     H140925   1.300   4.953   5.910
13561WAT     H240926   1.437   4.950   5.821
13562WAT      O40927   0.492   6.611   6.646
13562WAT     H140928   0.501   6.704   6.610
13562WAT     H240929   0.467   6.614   6.742
13563WAT      O40930   3.247   2.846   5.089
13563WAT     H140931   3.239   2.792   5.172
13563WAT     H240932   3.260   2.785   5.011
13564WAT      O40933   4.571   0.875   2.997
13564WAT     H140934   4.523   0.954   3.036
13564WAT     H240935   4.585   0.890   2.900
13565WAT      O40936   6.321   4.925   1.508
13565WAT     H140937   6.393   4.891   1.568
13565WAT     H240938   6.280   5.007   1.547
13566WAT      O40939   6.118   6.101   1.363
13566WAT     H140940   6.081   6.125   1.273
13566WAT     H240941   6.213   6.073   1.353
13567WAT      O40942   7.476   7.795   7.729
13567WAT     H140943   7.508   7.888   7.745
13567WAT     H240944   7.393   7.796   7.673
13568WAT      O40945   6.104   3.297   4.894
13568WAT     H140946   6.126   3.370   4.959
13568WAT     H240947   6.153   3.214   4.920
13569WAT      O40948   0.134   0.136   8.316
13569WAT     H140949   0.080   0.183   8.386
13569WAT     H240950   0.145   0.197   8.236
13570WAT      O40951   5.064   0.221   9.868
13570WAT     H140952   4.985   0.255   9.818
13570WAT     H240953   5.035   0.186   9.958
13571WAT      O40954   7.587   3.490   3.256
13571WAT     H140955   7.593   3.562   3.187
13571WAT     H240956   7.680   3.459   3.280
13572WAT      O40957   3.607   6.255   8.302
13572WAT     H140958   3.656   6.197   8.236
13572WAT     H240959   3.608   6.350   8.270
13573WAT      O40960   5.042   4.055   5.927
13573WAT     H140961   4.970   3.997   5.965
13573WAT     H240962   5.125   4.047   5.982
13574WAT      O40963   5.112   4.260   3.113
13574WAT     H140964   5.125   4.278   3.211
13574WAT     H240965   5.121   4.162   3.096
13575WAT      O40966   5.986   1.981   5.186
13575WAT     H140967   6.008   1.892   5.147
13575WAT     H240968   5.944   2.039   5.116
13576WAT      O40969   6.508   5.755   5.628
13576WAT     H140970   6.520   5.749   5.529
13576WAT     H240971   6.429   5.699   5.655
13577WAT      O40972   9.663   1.709   3.901
13577WAT     H140973   9.640   1.645   3.827
13577WAT     H240974   9.681   1.657   3.985
13578WAT      O40975   8.190   4.361   5.149
13578WAT     H140976   8.234   4.358   5.239
13578WAT     H240977   8.242   4.421   5.088
13579WAT      O40978   4.286   2.811   0.400
13579WAT     H140979   4.202   2.855   0.430
13579WAT     H240980   4.316   2.746   0.470
13580WAT      O40981   6.504   8.047   0.348
13580WAT     H140982   6.575   8.060   0.279
13580WAT     H240983   6.545   8.017   0.434
13581WAT      O40984   8.216   6.908   9.552
13581WAT     H140985   8.314   6.899   9.532
13581WAT     H240986   8.190   6.841   9.622
13582WAT      O40987   5.755   8.089   1.917
13582WAT     H140988   5.848   8.108   1.950
13582WAT     H240989   5.692   8.156   1.957
13583WAT      O40990   7.603   0.592   6.802
13583WAT     H140991   7.603   0.639   6.891
13583WAT     H240992   7.610   0.493   6.816
13584WAT      O40993   1.449   7.868   6.277
13584WAT     H140994   1.383   7.918   6.333
13584WAT     H240995   1.518   7.932   6.242
13585WAT      O40996   1.499   0.828   6.642
13585WAT     H140997   1.460   0.895   6.705
13585WAT     H240998   1.499   0.867   6.549
13586WAT      O40999   4.775   1.382   3.647
13586WAT     H141000   4.694   1.359   3.701
13586WAT     H241001   4.790   1.481   3.649
13587WAT      O41002   5.417   2.667   2.727
13587WAT     H141003   5.392   2.763   2.718
13587WAT     H241004   5.388   2.633   2.816
13588WAT      O41005   8.258   8.088   2.567
13588WAT     H141006   8.169   8.073   2.525
13588WAT     H241007   8.330   8.061   2.504
13589WAT      O41008   7.123   3.046   5.061
13589WAT     H141009   7.028   3.034   5.031
13589WAT     H241010   7.141   2.986   5.139
13590WAT      O41011   8.653   9.431   1.061
13590WAT     H141012   8.675   9.351   1.117
13590WAT     H241013   8.711   9.431   0.979
13591WAT      O41014   8.322   2.961   1.634
13591WAT     H141015   8.398   2.951   1.570
13591WAT     H241016   8.236   2.966   1.584
13592WAT      O41017   3.205   2.596   8.067
13592WAT     H141018   3.117   2.557   8.095
13592WAT     H241019   3.254   2.629   8.148
13593WAT      O41020   9.630   3.474   6.539
13593WAT     H141021   9.614   3.486   6.441
13593WAT     H241022   9.545   3.444   6.583
13594WAT      O41023   0.148   9.109   7.914
13594WAT     H141024   0.127   9.027   7.966
13594WAT     H241025   0.112   9.099   7.821
13595WAT      O41026   0.230   6.063   3.378
13595WAT     H141027   0.280   6.024   3.300
13595WAT     H241028   0.133   6.070   3.355
13596WAT      O41029   0.092   6.052   4.814
13596WAT     H141030   0.189   6.043   4.793
13596WAT     H241031   0.039   6.040   4.731
13597WAT      O41032   4.175   4.268   6.007
13597WAT     H141033   4.114   4.238   6.080
13597WAT     H241034   4.214   4.357   6.031
13598WAT      O41035   0.713   8.887   4.968
13598WAT     H141036   0.780   8.855   4.902
13598WAT     H241037   0.628   8.912   4.920
13599WAT      O41038   4.300   8.000   4.324
13599WAT     H141039   4.284   7.902   4.337
13599WAT     H241040   4.214   8.045   4.300
13600WAT      O41041   8.692   7.720   8.556
13600WAT     H141042   8.772   7.732   8.615
13600WAT     H241043   8.709   7.761   8.467
13601WAT      O41044   4.763   9.202   7.667
13601WAT     H141045   4.860   9.180   7.674
13601WAT     H241046   4.718   9.137   7.606
13602WAT      O41047   0.294   6.401   4.947
13602WAT     H141048   0.316   6.355   5.033
13602WAT     H241049   0.238   6.482   4.965
13603WAT      O41050   4.920   1.117   0.108
13603WAT     H141051   4.892   1.030   0.067
13603WAT     H241052   4.964   1.174   0.039
13604WAT      O41053   1.189   4.385   1.639
13604WAT     H141054   1.210   4.367   1.735
13604WAT     H241055   1.107   4.441   1.633
13605WAT      O41056   5.460   1.628   9.089
13605WAT     H141057   5.508   1.627   9.177
13605WAT     H241058   5.464   1.720   9.050
13606WAT      O41059   8.575   9.545   4.765
13606WAT     H141060   8.630   9.489   4.704
13606WAT     H241061   8.632   9.614   4.809
13607WAT      O41062   8.936   5.408   9.826
13607WAT     H141063   8.850   5.455   9.806
13607WAT     H241064   8.948   5.333   9.761
13608WAT      O41065   7.921   8.172   0.821
13608WAT     H141066   7.966   8.099   0.769
13608WAT     H241067   7.987   8.217   0.880
13609WAT      O41068   4.516   4.888   4.563
13609WAT     H141069   4.536   4.827   4.640
13609WAT     H241070   4.476   4.835   4.488
13610WAT      O41071   2.263   3.694   6.633
13610WAT     H141072   2.221   3.785   6.627
13610WAT     H241073   2.351   3.701   6.680
13611WAT      O41074   1.984   6.763   3.304
13611WAT     H141075   1.933   6.806   3.379
13611WAT     H241076   1.921   6.713   3.245
13612WAT      O41077   3.679   5.190   0.840
13612WAT     H141078   3.588   5.220   0.870
13612WAT     H241079   3.688   5.206   0.741
13613WAT      O41080   1.858   5.766   9.004
13613WAT     H141081   1.804   5.704   9.061
13613WAT     H241082   1.797   5.835   8.965
13614WAT      O41083   6.305   9.229   2.310
13614WAT     H141084   6.302   9.183   2.221
13614WAT     H241085   6.218   9.275   2.327
13615WAT      O41086   3.785   5.572   5.803
13615WAT     H141087   3.720   5.600   5.874
13615WAT     H241088   3.735   5.536   5.724
13616WAT      O41089   0.985   3.730   7.189
13616WAT     H141090   1.013   3.701   7.280
13616WAT     H241091   1.030   3.674   7.120
13617WAT      O41092   5.416   1.920   9.069
13617WAT     H141093   5.510   1.955   9.078
13617WAT     H241094   5.364   1.944   9.151
13618WAT      O41095   8.926   8.238   0.459
13618WAT     H141096   8.961   8.245   0.552
13618WAT     H241097   8.852   8.171   0.455
13619WAT      O41098   0.016   8.022   3.525
13619WAT     H141099  -0.013   8.034   3.620
13619WAT     H241100  -0.034   7.946   3.484
13620WAT      O41101   8.108   8.063   4.021
13620WAT     H141102   8.168   8.142   4.009
13620WAT     H241103   8.155   7.980   3.990
13621WAT      O41104   3.349   7.684   3.495
13621WAT     H141105   3.405   7.719   3.420
13621WAT     H241106   3.326   7.759   3.557
13622WAT      O41107   5.661   6.731   5.668
13622WAT     H141108   5.580   6.745   5.611
13622WAT     H241109   5.663   6.800   5.740
13623WAT      O41110   7.063   9.835   7.934
13623WAT     H141111   7.112   9.897   7.995
13623WAT     H241112   7.071   9.741   7.968
13624WAT      O41113   7.688   0.586   0.650
13624WAT     H141114   7.598   0.629   0.639
13624WAT     H241115   7.747   0.647   0.704
13625WAT      O41116   5.212   1.556   9.140
13625WAT     H141117   5.307   1.571   9.112
13625WAT     H241118   5.172   1.481   9.088
13626WAT      O41119   1.544   8.323   2.868
13626WAT     H141120   1.521   8.278   2.782
13626WAT     H241121   1.468   8.382   2.896
13627WAT      O41122   0.394   4.620   7.888
13627WAT     H141123   0.444   4.585   7.808
13627WAT     H241124   0.299   4.588   7.883
13628WAT      O41125   7.029   9.319   6.847
13628WAT     H141126   7.026   9.235   6.902
13628WAT     H241127   7.027   9.399   6.908
13629WAT      O41128   6.186   5.972   7.125
13629WAT     H141129   6.187   5.900   7.055
13629WAT     H241130   6.093   5.980   7.162
13630WAT      O41131   4.656   5.801   5.417
13630WAT     H141132   4.735   5.803   5.479
13630WAT     H241133   4.668   5.727   5.350
13631WAT      O41134   0.956   4.451   1.838
13631WAT     H141135   0.870   4.474   1.882
13631WAT     H241136   0.944   4.447   1.739
13632WAT      O41137   0.854   5.213   0.823
13632WAT     H141138   0.785   5.266   0.774
13632WAT     H241139   0.880   5.133   0.768
13633WAT      O41140   0.649   0.343   8.335
13633WAT     H141141   0.569   0.350   8.395
13633WAT     H241142   0.711   0.273   8.371
13634WAT      O41143   3.697   4.516   6.892
13634WAT     H141144   3.683   4.606   6.933
13634WAT     H241145   3.703   4.447   6.964
13635WAT      O41146   4.735   0.342   9.198
13635WAT     H141147   4.823   0.295   9.209
13635WAT     H241148   4.748   0.440   9.209
13636WAT      O41149   8.930   1.660   6.668
13636WAT     H141150   8.892   1.582   6.718
13636WAT     H241151   8.905   1.745   6.715
13637WAT      O41152   7.964   3.983   3.672
13637WAT     H141153   7.955   4.057   3.739
13637WAT     H241154   7.993   3.899   3.719
13638WAT      O41155   6.942   2.686   9.403
13638WAT     H141156   6.948   2.662   9.500
13638WAT     H241157   6.938   2.786   9.394
13639WAT      O41158   6.419   5.152   3.847
13639WAT     H141159   6.320   5.152   3.866
13639WAT     H241160   6.459   5.237   3.880
13640WAT      O41161   7.372   0.825   4.858
13640WAT     H141162   7.305   0.822   4.933
13640WAT     H241163   7.370   0.916   4.816
13641WAT      O41164   5.571   1.632   8.812
13641WAT     H141165   5.528   1.615   8.900
13641WAT     H241166   5.660   1.586   8.809
13642WAT      O41167   0.944   9.222   4.080
13642WAT     H141168   0.914   9.155   4.149
13642WAT     H241169   0.895   9.206   3.995
13643WAT      O41170   0.344   4.037   9.410
13643WAT     H141171   0.265   3.975   9.402
13643WAT     H241172   0.313   4.132   9.401
13644WAT      O41173   9.533   2.625   3.400
13644WAT     H141174   9.570   2.543   3.357
13644WAT     H241175   9.544   2.703   3.339
13645WAT      O41176   1.491   4.499   6.975
13645WAT     H141177   1.495   4.399   6.978
13645WAT     H241178   1.420   4.528   6.912
13646WAT      O41179   8.466   5.578   3.911
13646WAT     H141180   8.404   5.655   3.895
13646WAT     H241181   8.475   5.525   3.827
13647WAT      O41182   7.759   1.954   4.760
13647WAT     H141183   7.703   1.979   4.682
13647WAT     H241184   7.725   2.000   4.842
13648WAT      O41185   6.523   6.739   4.683
13648WAT     H141186   6.565   6.682   4.754
13648WAT     H241187   6.500   6.682   4.604
13649WAT      O41188   0.270   7.057   5.916
13649WAT     H141189   0.175   7.085   5.926
13649WAT     H241190   0.287   7.024   5.823
13650WAT      O41191   8.706   4.850   5.920
13650WAT     H141192   8.649   4.803   5.988
13650WAT     H241193   8.670   4.832   5.828
13651WAT      O41194   8.093   2.033   2.684
13651WAT     H141195   8.013   2.052   2.741
13651WAT     H241196   8.120   1.938   2.695
13652WAT      O41197   2.386   1.336   2.834
13652WAT     H141198   2.361   1.270   2.905
13652WAT     H241199   2.316   1.408   2.830
13653WAT      O41200   1.789   3.768   1.169
13653WAT     H141201   1.831   3.859   1.173
13653WAT     H241202   1.832   3.715   1.095
13654WAT      O41203   8.556   2.886   0.110
13654WAT     H141204   8.488   2.813   0.112
13654WAT     H241205   8.536   2.947   0.032
13655WAT      O41206   1.170   0.488   4.311
13655WAT     H141207   1.230   0.442   4.245
13655WAT     H241208   1.193   0.585   4.314
13656WAT      O41209   5.445   9.745   9.540
13656WAT     H141210   5.508   9.819   9.517
13656WAT     H241211   5.416   9.698   9.456
13657WAT      O41212   2.509   3.866   1.913
13657WAT     H141213   2.433   3.882   1.850
13657WAT     H241214   2.493   3.781   1.963
13658WAT      O41215   1.039   0.027   1.057
13658WAT     H141216   1.037   0.073   1.146
13658WAT     H241217   1.118  -0.034   1.052
13659WAT      O41218   3.971   5.860   7.595
13659WAT     H141219   4.059   5.820   7.570
13659WAT     H241220   3.919   5.795   7.650
13660WAT      O41221   0.836   6.555   9.092
13660WAT     H141222   0.894   6.580   9.169
13660WAT     H241223   0.893   6.526   9.015
13661WAT      O41224   0.688   3.936   0.722
13661WAT     H141225   0.636   3.865   0.769
13661WAT     H241226   0.689   4.019   0.778
13662WAT      O41227   6.685   3.600   9.398
13662WAT     H141228   6.743   3.597   9.317
13662WAT     H241229   6.731   3.552   9.473
13663WAT      O41230   1.164   7.174   3.065
13663WAT     H141231   1.197   7.097   3.120
13663WAT     H241232   1.096   7.141   3.000
13664WAT      O41233   7.124   4.273   9.363
13664WAT     H141234   7.147   4.279   9.460
13664WAT     H241235   7.194   4.321   9.309
13665WAT      O41236   2.712   7.357   9.292
13665WAT     H141237   2.713   7.294   9.370
13665WAT     H241238   2.805   7.372   9.261
13666WAT      O41239   0.496   5.767   7.339
13666WAT     H141240   0.412   5.822   7.340
13666WAT     H241241   0.483   5.685   7.395
13667WAT      O41242   4.823   1.671   3.660
13667WAT     H141243   4.900   1.706   3.608
13667WAT     H241244   4.852   1.651   3.754
13668WAT      O41245   8.726   2.636   4.193
13668WAT     H141246   8.769   2.592   4.114
13668WAT     H241247   8.728   2.573   4.271
13669WAT      O41248   9.524   6.344   4.560
13669WAT     H141249   9.514   6.419   4.625
13669WAT     H241250   9.592   6.279   4.594
13670WAT      O41251   1.878   5.142   4.068
13670WAT     H141252   1.968   5.172   4.036
13670WAT     H241253   1.870   5.043   4.058
13671WAT      O41254   9.200   8.637   5.243
13671WAT     H141255   9.124   8.687   5.283
13671WAT     H241256   9.251   8.698   5.181
13672WAT      O41257   2.263   9.721   4.687
13672WAT     H141258   2.317   9.669   4.754
13672WAT     H241259   2.223   9.658   4.621
13673WAT      O41260   9.708   3.657   2.016
13673WAT     H141261   9.681   3.571   1.973
13673WAT     H241262   9.638   3.726   2.000
13674WAT      O41263   0.689   1.149   7.690
13674WAT     H141264   0.690   1.052   7.715
13674WAT     H241265   0.599   1.172   7.652
13675WAT      O41266   9.891   0.046   3.680
13675WAT     H141267   9.843   0.085   3.602
13675WAT     H241268   9.878   0.104   3.760
13676WAT      O41269   3.991   0.632   5.311
13676WAT     H141270   4.082   0.668   5.292
13676WAT     H241271   3.978   0.625   5.410
13677WAT      O41272   9.588   9.842   7.744
13677WAT     H141273   9.494   9.853   7.712
13677WAT     H241274   9.587   9.797   7.833
13678WAT      O41275   1.602   4.727   9.067
13678WAT     H141276   1.640   4.691   9.151
13678WAT     H241277   1.604   4.657   8.996
13679WAT      O41278   6.467   6.846   1.007
13679WAT     H141279   6.370   6.843   0.983
13679WAT     H241280   6.502   6.752   1.015
13680WAT      O41281   8.342   6.325   8.857
13680WAT     H141282   8.344   6.416   8.816
13680WAT     H241283   8.340   6.334   8.957
13681WAT      O41284   5.249   0.259   1.090
13681WAT     H141285   5.234   0.207   1.175
13681WAT     H241286   5.244   0.357   1.110
13682WAT      O41287   8.020   9.002   7.623
13682WAT     H141288   8.005   8.981   7.526
13682WAT     H241289   8.102   9.058   7.633
13683WAT      O41290   4.619   3.248   1.764
13683WAT     H141291   4.597   3.345   1.758
13683WAT     H241292   4.699   3.235   1.822
13684WAT      O41293   5.487   6.494   8.016
13684WAT     H141294   5.514   6.587   8.041
13684WAT     H241295   5.535   6.467   7.932
13685WAT      O41296   8.144   5.870   8.363
13685WAT     H141297   8.070   5.824   8.411
13685WAT     H241298   8.135   5.969   8.374
13686WAT      O41299   0.742   7.499   4.890
13686WAT     H141300   0.817   7.463   4.946
13686WAT     H241301   0.775   7.578   4.838
13687WAT      O41302   0.085   8.461   1.027
13687WAT     H141303   0.097   8.362   1.036
13687WAT     H241304   0.037   8.482   0.942
13688WAT      O41305   6.301   1.029   8.686
13688WAT     H141306   6.216   1.070   8.652
13688WAT     H241307   6.315   1.057   8.781
13689WAT      O41308   4.845   1.433   9.233
13689WAT     H141309   4.769   1.445   9.297
13689WAT     H241310   4.923   1.487   9.265
13690WAT      O41311   5.741   7.196   4.227
13690WAT     H141312   5.651   7.236   4.246
13690WAT     H241313   5.753   7.114   4.284
13691WAT      O41314   2.686   0.766   1.786
13691WAT     H141315   2.762   0.814   1.830
13691WAT     H241316   2.617   0.744   1.854
13692WAT      O41317   5.553   6.671   5.230
13692WAT     H141318   5.507   6.621   5.304
13692WAT     H241319   5.551   6.617   5.147
13693WAT      O41320   9.805   8.719   8.110
13693WAT     H141321   9.728   8.762   8.063
13693WAT     H241322   9.774   8.682   8.198
13694WAT      O41323   2.721   8.389   5.309
13694WAT     H141324   2.677   8.454   5.246
13694WAT     H241325   2.656   8.318   5.335
13695WAT      O41326   6.731   1.230   5.339
13695WAT     H141327   6.769   1.263   5.252
13695WAT     H241328   6.711   1.307   5.399
13696WAT      O41329   2.214   2.698   7.606
13696WAT     H141330   2.196   2.768   7.675
13696WAT     H241331   2.135   2.637   7.599
13697WAT      O41332   6.687   9.439   6.756
13697WAT     H141333   6.760   9.380   6.722
13697WAT     H241334   6.617   9.383   6.801
13698WAT      O41335   5.899   3.191   5.073
13698WAT     H141336   5.937   3.229   4.989
13698WAT     H241337   5.885   3.092   5.061
13699WAT      O41338   4.463   3.808   6.859
13699WAT     H141339   4.470   3.708   6.859
13699WAT     H241340   4.407   3.837   6.937
13700WAT      O41341   4.565   2.781   6.687
13700WAT     H141342   4.527   2.712   6.749
13700WAT     H241343   4.657   2.806   6.718
13701WAT      O41344   8.097   8.987   2.323
13701WAT     H141345   8.002   9.014   2.340
13701WAT     H241346   8.158   9.044   2.378
13702WAT      O41347   7.181   9.694   6.878
13702WAT     H141348   7.181   9.654   6.969
13702WAT     H241349   7.216   9.787   6.882
13703WAT      O41350   0.613   2.412   5.366
13703WAT     H141351   0.531   2.411   5.308
13703WAT     H241352   0.684   2.356   5.324
13704WAT      O41353   5.991   2.559   8.234
13704WAT     H141354   5.977   2.486   8.302
13704WAT     H241355   6.066   2.618   8.264
13705WAT      O41356   1.082   4.925   6.168
13705WAT     H141357   1.043   4.883   6.086
13705WAT     H241358   1.072   5.025   6.162
13706WAT      O41359   5.768   0.287   3.686
13706WAT     H141360   5.771   0.192   3.717
13706WAT     H241361   5.693   0.335   3.731
13707WAT      O41362   7.263   2.739   2.408
13707WAT     H141363   7.233   2.832   2.391
13707WAT     H241364   7.350   2.723   2.360
13708WAT      O41365   2.304   3.552   3.824
13708WAT     H141366   2.274   3.644   3.848
13708WAT     H241367   2.355   3.555   3.738
13709WAT      O41368   1.855   5.992   6.466
13709WAT     H141369   1.919   5.922   6.433
13709WAT     H241370   1.906   6.066   6.509
13710WAT      O41371   4.391   8.877   4.394
13710WAT     H141372   4.443   8.792   4.387
13710WAT     H241373   4.331   8.874   4.474
13711WAT      O41374   3.486   2.324   7.259
13711WAT     H141375   3.532   2.236   7.264
13711WAT     H241376   3.514   2.373   7.176
13712WAT      O41377   6.783   6.529   5.244
13712WAT     H141378   6.882   6.519   5.231
13712WAT     H241379   6.750   6.608   5.193
13713WAT      O41380   7.593   5.495   6.648
13713WAT     H141381   7.589   5.507   6.549
13713WAT     H241382   7.644   5.411   6.669
13714WAT      O41383   7.403   2.958   5.517
13714WAT     H141384   7.337   2.982   5.587
13714WAT     H241385   7.459   2.881   5.549
13715WAT      O41386   2.182   9.434   5.917
13715WAT     H141387   2.163   9.487   5.999
13715WAT     H241388   2.173   9.336   5.937
13716WAT      O41389   4.604   9.560   1.560
13716WAT     H141390   4.568   9.496   1.492
13716WAT     H241391   4.619   9.510   1.646
13717WAT      O41392   5.855   7.775   3.682
13717WAT     H141393   5.798   7.763   3.600
13717WAT     H241394   5.911   7.694   3.695
13718WAT      O41395   4.738   7.383   9.583
13718WAT     H141396   4.805   7.373   9.509
13718WAT     H241397   4.649   7.408   9.545
13719WAT      O41398   0.148   4.563   5.415
13719WAT     H141399   0.056   4.547   5.451
13719WAT     H241400   0.209   4.492   5.449
13720WAT      O41401   6.577   3.267   7.589
13720WAT     H141402   6.627   3.182   7.609
13720WAT     H241403   6.559   3.273   7.491
13721WAT      O41404   5.057   0.687   3.635
13721WAT     H141405   5.142   0.707   3.684
13721WAT     H241406   5.041   0.758   3.566
13722WAT      O41407   1.029   2.379   1.860
13722WAT     H141408   1.069   2.366   1.770
13722WAT     H241409   1.079   2.450   1.910
13723WAT      O41410   7.685   9.402   9.518
13723WAT     H141411   7.632   9.345   9.581
13723WAT     H241412   7.679   9.365   9.426
13724WAT      O41413   9.769   5.919   8.391
13724WAT     H141414   9.682   5.965   8.410
13724WAT     H241415   9.823   5.976   8.328
13725WAT      O41416   4.851   1.153   9.234
13725WAT     H141417   4.778   1.146   9.302
13725WAT     H241418   4.844   1.240   9.186
13726WAT      O41419   1.390   8.763   5.837
13726WAT     H141420   1.291   8.768   5.850
13726WAT     H241421   1.434   8.839   5.885
13727WAT      O41422   5.375   3.822   5.171
13727WAT     H141423   5.318   3.781   5.099
13727WAT     H241424   5.451   3.871   5.129
13728WAT      O41425   2.232   2.437   3.205
13728WAT     H141426   2.310   2.497   3.226
13728WAT     H241427   2.150   2.493   3.190
13729WAT      O41428   9.811   8.521   3.544
13729WAT     H141429   9.908   8.537   3.561
13729WAT     H241430   9.776   8.593   3.483
13730WAT      O41431   3.686   9.190   0.010
13730WAT     H141432   3.720   9.116   0.069
13730WAT     H241433   3.587   9.179  -0.003
13731WAT      O41434   0.436   4.473   8.103
13731WAT     H141435   0.401   4.380   8.092
13731WAT     H241436   0.430   4.521   8.016
13732WAT      O41437   0.861   6.405   7.331
13732WAT     H141438   0.852   6.322   7.386
13732WAT     H241439   0.935   6.393   7.265
13733WAT      O41440   3.009   9.413   4.492
13733WAT     H141441   2.917   9.401   4.455
13733WAT     H241442   3.060   9.327   4.482
13734WAT      O41443   5.669   9.043   6.232
13734WAT     H141444   5.695   8.995   6.316
13734WAT     H241445   5.670   8.980   6.155
13735WAT      O41446   9.627   6.801   2.051
13735WAT     H141447   9.591   6.851   1.972
13735WAT     H241448   9.697   6.737   2.020
13736WAT      O41449   9.363   5.020   9.636
13736WAT     H141450   9.412   4.934   9.638
13736WAT     H241451   9.361   5.056   9.543
13737WAT      O41452   8.082   0.889   5.604
13737WAT     H141453   8.008   0.954   5.619
13737WAT     H241454   8.170   0.934   5.621
13738WAT      O41455   0.542   2.674   1.005
13738WAT     H141456   0.603   2.709   0.934
13738WAT     H241457   0.449   2.710   0.989
13739WAT      O41458   3.068   3.524   4.402
13739WAT     H141459   3.150   3.477   4.372
13739WAT     H241460   3.066   3.527   4.502
13740WAT      O41461   2.064   4.253   7.243
13740WAT     H141462   2.163   4.242   7.236
13740WAT     H241463   2.030   4.306   7.165
13741WAT      O41464   6.490   0.216   9.469
13741WAT     H141465   6.481   0.312   9.495
13741WAT     H241466   6.573   0.177   9.508
13742WAT      O41467   4.445   6.102   2.251
13742WAT     H141468   4.531   6.055   2.229
13742WAT     H241469   4.371   6.035   2.255
13743WAT      O41470   4.987   1.310   5.024
13743WAT     H141471   5.076   1.355   5.019
13743WAT     H241472   4.924   1.367   5.076
13744WAT      O41473   7.866   2.135   0.362
13744WAT     H141474   7.767   2.123   0.364
13744WAT     H241475   7.896   2.187   0.443
13745WAT      O41476   6.086   0.890   4.733
13745WAT     H141477   6.084   0.967   4.797
13745WAT     H241478   6.067   0.923   4.641
13746WAT      O41479   6.409   2.354   0.588
13746WAT     H141480   6.469   2.278   0.566
13746WAT     H241481   6.332   2.322   0.643
13747WAT      O41482   3.979   8.016   1.405
13747WAT     H141483   3.884   7.989   1.389
13747WAT     H241484   4.040   7.955   1.354
13748WAT      O41485   2.110   3.852   2.142
13748WAT     H141486   2.054   3.841   2.060
13748WAT     H241487   2.140   3.947   2.150
13749WAT      O41488   4.902   7.699   0.192
13749WAT     H141489   4.853   7.667   0.273
13749WAT     H241490   4.863   7.786   0.162
13750WAT      O41491   4.855   4.446   7.552
13750WAT     H141492   4.764   4.462   7.513
13750WAT     H241493   4.871   4.513   7.625
13751WAT      O41494   4.660   6.381   1.245
13751WAT     H141495   4.583   6.347   1.300
13751WAT     H241496   4.630   6.394   1.150
13752WAT      O41497   7.868   7.721   0.676
13752WAT     H141498   7.950   7.685   0.631
13752WAT     H241499   7.811   7.645   0.707
13753WAT      O41500   6.055   6.463   2.631
13753WAT     H141501   5.994   6.452   2.552
13753WAT     H241502   6.121   6.536   2.612
13754WAT      O41503   8.063   7.221   2.114
13754WAT     H141504   8.065   7.315   2.148
13754WAT     H241505   8.115   7.162   2.176
13755WAT      O41506   0.645   3.436   9.043
13755WAT     H141507   0.628   3.345   9.081
13755WAT     H241508   0.629   3.504   9.114
13756WAT      O41509   9.853   7.646   7.593
13756WAT     H141510   9.780   7.701   7.633
13756WAT     H241511   9.929   7.705   7.565
13757WAT      O41512   8.598   1.328   6.954
13757WAT     H141513   8.591   1.317   7.054
13757WAT     H241514   8.506   1.344   6.916
13758WAT      O41515   6.503   4.531   1.808
13758WAT     H141516   6.552   4.458   1.761
13758WAT     H241517   6.421   4.556   1.756
13759WAT      O41518   2.228   1.926   6.453
13759WAT     H141519   2.313   1.874   6.468
13759WAT     H241520   2.171   1.879   6.386
13760WAT      O41521   0.950   3.880   2.264
13760WAT     H141522   0.886   3.809   2.236
13760WAT     H241523   1.041   3.859   2.228
13761WAT      O41524   8.927   9.825   6.958
13761WAT     H141525   8.922   9.806   7.056
13761WAT     H241526   8.915   9.924   6.944
13762WAT      O41527   7.916   5.710   8.436
13762WAT     H141528   7.918   5.624   8.487
13762WAT     H241529   7.822   5.732   8.412
13763WAT      O41530   7.026   8.668   0.081
13763WAT     H141531   7.072   8.624   0.158
13763WAT     H241532   6.983   8.753   0.113
13764WAT      O41533   3.703   4.420   3.381
13764WAT     H141534   3.775   4.488   3.396
13764WAT     H241535   3.641   4.452   3.310
13765WAT      O41536   1.843   3.335   3.780
13765WAT     H141537   1.835   3.316   3.682
13765WAT     H241538   1.923   3.287   3.816
13766WAT      O41539   2.992   1.637   0.253
13766WAT     H141540   2.941   1.714   0.214
13766WAT     H241541   2.935   1.555   0.251
13767WAT      O41542   8.247   1.531   3.684
13767WAT     H141543   8.177   1.602   3.681
13767WAT     H241544   8.205   1.442   3.667
13768WAT      O41545   0.667   8.985   7.803
13768WAT     H141546   0.586   8.936   7.835
13768WAT     H241547   0.668   9.077   7.843
13769WAT      O41548   0.485   5.434   5.234
13769WAT     H141549   0.490   5.532   5.252
13769WAT     H241550   0.470   5.419   5.136
13770WAT      O41551   2.017   7.664   4.116
13770WAT     H141552   2.028   7.705   4.026
13770WAT     H241553   2.101   7.674   4.169
13771WAT      O41554   0.767   3.309   0.582
13771WAT     H141555   0.801   3.250   0.655
13771WAT     H241556   0.840   3.326   0.516
13772WAT      O41557   4.297   2.221   6.059
13772WAT     H141558   4.314   2.122   6.062
13772WAT     H241559   4.365   2.269   6.115
13773WAT      O41560   0.797   9.227   2.173
13773WAT     H141561   0.833   9.309   2.218
13773WAT     H241562   0.850   9.209   2.090
13774WAT      O41563   7.021   0.546   9.130
13774WAT     H141564   7.082   0.472   9.160
13774WAT     H241565   7.066   0.634   9.144
13775WAT      O41566   4.018   3.097   8.395
13775WAT     H141567   4.086   3.117   8.464
13775WAT     H241568   4.025   3.001   8.366
13776WAT      O41569   8.879   5.073   5.847
13776WAT     H141570   8.897   5.007   5.774
13776WAT     H241571   8.951   5.067   5.916
13777WAT      O41572   5.255   2.612   4.253
13777WAT     H141573   5.228   2.602   4.349
13777WAT     H241574   5.219   2.699   4.218
13778WAT      O41575   3.288   6.898   9.609
13778WAT     H141576   3.226   6.962   9.655
13778WAT     H241577   3.381   6.911   9.642
13779WAT      O41578   7.397   1.416   5.299
13779WAT     H141579   7.329   1.361   5.346
13779WAT     H241580   7.356   1.459   5.218
13780WAT      O41581   8.824   3.536   2.429
13780WAT     H141582   8.772   3.537   2.514
13780WAT     H241583   8.908   3.482   2.442
13781WAT      O41584   5.840   4.992   4.134
13781WAT     H141585   5.766   4.979   4.199
13781WAT     H241586   5.804   4.987   4.040
13782WAT      O41587   6.378   5.405   3.145
13782WAT     H141588   6.366   5.487   3.090
13782WAT     H241589   6.309   5.337   3.119
13783WAT      O41590   5.361   0.110   9.216
13783WAT     H141591   5.372   0.114   9.316
13783WAT     H241592   5.443   0.071   9.175
13784WAT      O41593   8.936   4.697   3.777
13784WAT     H141594   8.869   4.732   3.842
13784WAT     H241595   8.895   4.688   3.687
13785WAT      O41596   0.775   4.647   7.878
13785WAT     H141597   0.773   4.670   7.780
13785WAT     H241598   0.734   4.557   7.892
13786WAT      O41599   5.578   5.425   2.206
13786WAT     H141600   5.548   5.362   2.136
13786WAT     H241601   5.673   5.451   2.189
13787WAT      O41602   1.561   2.170   1.166
13787WAT     H141603   1.648   2.178   1.214
13787WAT     H241604   1.573   2.116   1.083
13788WAT      O41605   3.757   3.168   4.729
13788WAT     H141606   3.855   3.183   4.735
13788WAT     H241607   3.737   3.107   4.652
13789WAT      O41608   3.597   5.538   5.392
13789WAT     H141609   3.659   5.591   5.334
13789WAT     H241610   3.504   5.546   5.357
13790WAT      O41611   3.283   6.483   1.214
13790WAT     H141612   3.372   6.513   1.249
13790WAT     H241613   3.210   6.537   1.256
13791WAT      O41614   6.046   6.208   1.788
13791WAT     H141615   5.959   6.205   1.838
13791WAT     H241616   6.117   6.163   1.842
13792WAT      O41617   1.361   9.707   4.677
13792WAT     H141618   1.324   9.674   4.764
13792WAT     H241619   1.447   9.757   4.694
13793WAT      O41620   0.364   9.719   3.117
13793WAT     H141621   0.430   9.644   3.132
13793WAT     H241622   0.405   9.786   3.055
13794WAT      O41623   7.659   8.118   1.453
13794WAT     H141624   7.581   8.175   1.478
13794WAT     H241625   7.648   8.084   1.360
13795WAT      O41626   2.976   3.918   4.546
13795WAT     H141627   2.974   3.845   4.478
13795WAT     H241628   2.966   4.006   4.500
13796WAT      O41629   6.902   5.497   7.165
13796WAT     H141630   6.932   5.422   7.106
13796WAT     H241631   6.895   5.581   7.111
13797WAT      O41632   1.497   5.956   9.021
13797WAT     H141633   1.461   6.030   9.076
13797WAT     H241634   1.431   5.880   9.019
13798WAT      O41635   8.843   0.064   4.682
13798WAT     H141636   8.855  -0.029   4.647
13798WAT     H241637   8.866   0.066   4.779
13799WAT      O41638   5.116   7.908   0.891
13799WAT     H141639   5.040   7.943   0.946
13799WAT     H241640   5.096   7.923   0.794
13800WAT      O41641   3.798   5.294   8.244
13800WAT     H141642   3.751   5.310   8.157
13800WAT     H241643   3.740   5.325   8.319
13801WAT      O41644   1.184   3.775   5.372
13801WAT     H141645   1.093   3.806   5.343
13801WAT     H241646   1.254   3.832   5.327
13802WAT      O41647   8.985   5.555   4.021
13802WAT     H141648   9.075   5.596   4.023
13802WAT     H241649   8.993   5.458   3.995
13803WAT      O41650   0.514   7.926   3.000
13803WAT     H141651   0.488   7.982   3.078
13803WAT     H241652   0.594   7.871   3.024
13804WAT      O41653   7.306   8.474   2.990
13804WAT     H141654   7.285   8.567   2.960
13804WAT     H241655   7.403   8.467   3.011
13805WAT      O41656   8.478   3.305   2.189
13805WAT     H141657   8.509   3.263   2.103
13805WAT     H241658   8.382   3.282   2.205
13806WAT      O41659   4.577   6.941   0.423
13806WAT     H141660   4.491   6.927   0.375
13806WAT     H241661   4.629   6.855   0.424
13807WAT      O41662   3.252   8.494   6.148
13807WAT     H141663   3.243   8.540   6.236
13807WAT     H241664   3.232   8.559   6.074
13808WAT      O41665   5.523   1.119   1.707
13808WAT     H141666   5.564   1.043   1.657
13808WAT     H241667   5.470   1.176   1.644
13809WAT      O41668   8.494   4.282   4.872
13809WAT     H141669   8.471   4.332   4.955
13809WAT     H241670   8.441   4.197   4.868
13810WAT      O41671   2.100   1.639   0.988
13810WAT     H141672   2.121   1.567   0.922
13810WAT     H241673   2.100   1.728   0.941
13811WAT      O41674   3.087   5.517   3.677
13811WAT     H141675   3.186   5.529   3.672
13811WAT     H241676   3.063   5.428   3.639
13812WAT      O41677   5.676   7.256   6.149
13812WAT     H141678   5.652   7.299   6.236
13812WAT     H241679   5.739   7.316   6.099
13813WAT      O41680   7.659   6.457   5.805
13813WAT     H141681   7.648   6.368   5.850
13813WAT     H241682   7.617   6.528   5.862
13814WAT      O41683   9.746   3.119   7.492
13814WAT     H141684   9.726   3.059   7.569
13814WAT     H241685   9.801   3.069   7.425
13815WAT      O41686   1.085   7.004   2.604
13815WAT     H141687   1.145   7.045   2.673
13815WAT     H241688   1.093   6.904   2.608
13816WAT      O41689   5.147   0.112   5.225
13816WAT     H141690   5.148   0.197   5.278
13816WAT     H241691   5.198   0.126   5.140
13817WAT      O41692   2.926   1.562   4.543
13817WAT     H141693   2.890   1.470   4.530
13817WAT     H241694   3.025   1.561   4.531
13818WAT      O41695   7.888   3.324   5.555
13818WAT     H141696   7.801   3.278   5.542
13818WAT     H241697   7.879   3.392   5.628
13819WAT      O41698   8.178   5.539   1.394
13819WAT     H141699   8.140   5.614   1.340
13819WAT     H241700   8.229   5.576   1.472
13820WAT      O41701   2.411   5.090   1.084
13820WAT     H141702   2.480   5.109   1.014
13820WAT     H241703   2.322   5.077   1.041
13821WAT      O41704   3.093   8.111   3.203
13821WAT     H141705   3.047   8.199   3.216
13821WAT     H241706   3.029   8.036   3.221
13822WAT      O41707   9.836   4.076   1.646
13822WAT     H141708   9.792   3.992   1.677
13822WAT     H241709   9.934   4.059   1.631
13823WAT      O41710   8.747   8.995   2.470
13823WAT     H141711   8.798   8.967   2.389
13823WAT     H241712   8.795   9.069   2.516
13824WAT      O41713   6.859   0.616   5.675
13824WAT     H141714   6.913   0.618   5.759
13824WAT     H241715   6.902   0.674   5.606
13825WAT      O41716   3.165   6.375   4.001
13825WAT     H141717   3.210   6.454   3.959
13825WAT     H241718   3.075   6.362   3.959
13826WAT      O41719   0.910   9.774   9.683
13826WAT     H141720   0.917   9.859   9.631
13826WAT     H241721   0.896   9.794   9.780
13827WAT      O41722   0.591   5.556   8.660
13827WAT     H141723   0.514   5.495   8.679
13827WAT     H241724   0.664   5.539   8.726
13828WAT      O41725   1.071   6.258   4.506
13828WAT     H141726   1.158   6.268   4.555
13828WAT     H241727   0.996   6.288   4.566
13829WAT      O41728   2.314   4.501   0.715
13829WAT     H141729   2.410   4.501   0.739
13829WAT     H241730   2.304   4.480   0.618
13830WAT      O41731   4.291   1.632   2.588
13830WAT     H141732   4.216   1.692   2.562
13830WAT     H241733   4.333   1.594   2.505
13831WAT      O41734   0.935   9.449   2.296
13831WAT     H141735   0.848   9.499   2.296
13831WAT     H241736   0.994   9.485   2.224
13832WAT      O41737   3.933   7.747   9.570
13832WAT     H141738   3.932   7.647   9.573
13832WAT     H241739   3.851   7.779   9.522
13833WAT      O41740   1.464   4.422   8.335
13833WAT     H141741   1.435   4.341   8.285
13833WAT     H241742   1.556   4.409   8.371
13834WAT      O41743   9.371   2.625   9.479
13834WAT     H141744   9.401   2.626   9.383
13834WAT     H241745   9.298   2.692   9.492
13835WAT      O41746   7.513   9.430   7.488
13835WAT     H141747   7.555   9.443   7.577
13835WAT     H241748   7.454   9.349   7.490
13836WAT      O41749   8.276   3.535   6.437
13836WAT     H141750   8.292   3.549   6.339
13836WAT     H241751   8.245   3.441   6.452
13837WAT      O41752   0.939   8.003   6.480
13837WAT     H141753   0.955   8.099   6.459
13837WAT     H241754   1.026   7.953   6.476
13838WAT      O41755   2.553   5.707   8.677
13838WAT     H141756   2.636   5.759   8.692
13838WAT     H241757   2.574   5.624   8.625
13839WAT      O41758   2.447   1.399   5.781
13839WAT     H141759   2.476   1.307   5.805
13839WAT     H241760   2.348   1.400   5.764
13840WAT      O41761   0.178   7.342   0.498
13840WAT     H141762   0.202   7.436   0.521
13840WAT     H241763   0.108   7.342   0.427
13841WAT      O41764   6.343   7.888   1.929
13841WAT     H141765   6.415   7.935   1.979
13841WAT     H241766   6.333   7.795   1.965
13842WAT      O41767   4.442   8.310   6.066
13842WAT     H141768   4.530   8.289   6.022
13842WAT     H241769   4.368   8.288   6.003
13843WAT      O41770   5.145   0.646   8.462
13843WAT     H141771   5.080   0.630   8.387
13843WAT     H241772   5.238   0.638   8.429
13844WAT      O41773   4.728   7.284   6.106
13844WAT     H141774   4.652   7.251   6.051
13844WAT     H241775   4.694   7.327   6.189
13845WAT      O41776   6.403   8.999   6.337
13845WAT     H141777   6.484   8.981   6.393
13845WAT     H241778   6.360   8.912   6.312
13846WAT      O41779   8.573   8.344   5.546
13846WAT     H141780   8.672   8.330   5.550
13846WAT     H241781   8.552   8.439   5.567
13847WAT      O41782   5.209   1.243   6.919
13847WAT     H141783   5.243   1.152   6.945
13847WAT     H241784   5.261   1.276   6.840
13848WAT      O41785   0.967   3.561   0.304
13848WAT     H141786   0.965   3.480   0.362
13848WAT     H241787   1.058   3.571   0.264
13849WAT      O41788   6.187   6.721   2.571
13849WAT     H141789   6.094   6.745   2.542
13849WAT     H241790   6.222   6.791   2.633
13850WAT      O41791   7.657   9.329   2.637
13850WAT     H141792   7.682   9.318   2.541
13850WAT     H241793   7.737   9.310   2.695
13851WAT      O41794   1.764   2.732   1.660
13851WAT     H141795   1.830   2.807   1.660
13851WAT     H241796   1.810   2.647   1.687
13852WAT      O41797   7.975   1.621   3.334
13852WAT     H141798   7.920   1.581   3.261
13852WAT     H241799   8.071   1.624   3.306
13853WAT      O41800   2.933   2.583   2.613
13853WAT     H141801   2.918   2.671   2.657
13853WAT     H241802   2.850   2.556   2.563
13854WAT      O41803   7.312   1.619   6.166
13854WAT     H141804   7.368   1.590   6.244
13854WAT     H241805   7.311   1.545   6.097
13855WAT      O41806   7.932   6.025   3.611
13855WAT     H141807   7.961   5.935   3.580
13855WAT     H241808   7.896   6.077   3.534
13856WAT      O41809   5.652   0.378   2.514
13856WAT     H141810   5.746   0.403   2.538
13856WAT     H241811   5.652   0.285   2.477
13857WAT      O41812   8.561   8.094   5.048
13857WAT     H141813   8.513   8.038   5.116
13857WAT     H241814   8.629   8.151   5.094
13858WAT      O41815   4.358   7.336   8.623
13858WAT     H141816   4.426   7.309   8.554
13858WAT     H241817   4.286   7.389   8.579
13859WAT      O41818   6.830   4.152   8.189
13859WAT     H141819   6.834   4.241   8.143
13859WAT     H241820   6.743   4.143   8.236
13860WAT      O41821   8.730   8.403   8.021
13860WAT     H141822   8.799   8.394   7.948
13860WAT     H241823   8.663   8.472   7.995
13861WAT      O41824   2.182   7.897   9.657
13861WAT     H141825   2.136   7.985   9.646
13861WAT     H241826   2.244   7.902   9.736
13862WAT      O41827   1.300   3.353   6.292
13862WAT     H141828   1.206   3.337   6.322
13862WAT     H241829   1.360   3.358   6.372
13863WAT      O41830   8.123   5.151   7.268
13863WAT     H141831   8.098   5.081   7.201
13863WAT     H241832   8.220   5.142   7.292
13864WAT      O41833   7.854   8.148   9.104
13864WAT     H141834   7.841   8.049   9.111
13864WAT     H241835   7.766   8.194   9.120
13865WAT      O41836   1.002   9.199   7.928
13865WAT     H141837   1.095   9.164   7.915
13865WAT     H241838   0.989   9.279   7.869
13866WAT      O41839   6.843   6.761   2.451
13866WAT     H141840   6.805   6.834   2.393
13866WAT     H241841   6.894   6.696   2.394
13867WAT      O41842   9.747   1.251   3.471
13867WAT     H141843   9.809   1.224   3.399
13867WAT     H241844   9.792   1.240   3.560
13868WAT      O41845   8.472   9.656   2.080
13868WAT     H141846   8.467   9.602   1.996
13868WAT     H241847   8.414   9.615   2.150
13869WAT      O41848   9.395   6.566   1.064
13869WAT     H141849   9.386   6.495   0.994
13869WAT     H241850   9.317   6.629   1.058
13870WAT      O41851   0.913   4.522   6.409
13870WAT     H141852   0.830   4.479   6.374
13870WAT     H241853   0.985   4.452   6.419
13871WAT      O41854   5.786   8.770   1.128
13871WAT     H141855   5.823   8.688   1.171
13871WAT     H241856   5.699   8.794   1.170
13872WAT      O41857   8.282   0.661   7.367
13872WAT     H141858   8.258   0.566   7.349
13872WAT     H241859   8.310   0.671   7.462
13873WAT      O41860   7.681   8.501   8.858
13873WAT     H141861   7.730   8.469   8.939
13873WAT     H241862   7.744   8.504   8.780
13874WAT      O41863   3.252   8.130   8.328
13874WAT     H141864   3.220   8.158   8.237
13874WAT     H241865   3.248   8.208   8.390
13875WAT      O41866   2.316   8.738   1.092
13875WAT     H141867   2.341   8.726   0.996
13875WAT     H241868   2.337   8.832   1.120
13876WAT      O41869   8.864   6.706   6.751
13876WAT     H141870   8.866   6.623   6.806
13876WAT     H241871   8.943   6.708   6.689
13877WAT      O41872   7.428   8.633   4.425
13877WAT     H141873   7.428   8.538   4.394
13877WAT     H241874   7.480   8.689   4.360
13878WAT      O41875   5.650   0.623   2.978
13878WAT     H141876   5.601   0.685   2.916
13878WAT     H241877   5.587   0.591   3.049
13879WAT      O41878   3.843   5.745   0.572
13879WAT     H141879   3.833   5.741   0.671
13879WAT     H241880   3.935   5.715   0.547
13880WAT      O41881   3.405   0.279   0.151
13880WAT     H141882   3.458   0.274   0.066
13880WAT     H241883   3.444   0.215   0.217
13881WAT      O41884   7.849   4.613   0.894
13881WAT     H141885   7.768   4.560   0.869
13881WAT     H241886   7.914   4.613   0.818
13882WAT      O41887   9.226   9.551   6.885
13882WAT     H141888   9.154   9.485   6.865
13882WAT     H241889   9.306   9.504   6.921
13883WAT      O41890   9.134   0.421   8.410
13883WAT     H141891   9.112   0.406   8.314
13883WAT     H241892   9.232   0.409   8.424
13884WAT      O41893   0.268   4.807   9.269
13884WAT     H141894   0.188   4.759   9.235
13884WAT     H241895   0.350   4.774   9.222
13885WAT      O41896   8.581   0.164   0.874
13885WAT     H141897   8.612   0.257   0.855
13885WAT     H241898   8.531   0.129   0.795
13886WAT      O41899   0.734   0.681   3.524
13886WAT     H141900   0.707   0.776   3.539
13886WAT     H241901   0.653   0.625   3.506
13887WAT      O41902   8.050   0.164   3.018
13887WAT     H141903   7.993   0.206   2.947
13887WAT     H241904   8.137   0.135   2.978
13888WAT      O41905   6.921   4.988   0.995
13888WAT     H141906   7.015   4.996   0.961
13888WAT     H241907   6.923   4.956   1.090
13889WAT      O41908   9.303   6.475   5.252
13889WAT     H141909   9.208   6.475   5.221
13889WAT     H241910   9.364   6.469   5.173
13890WAT      O41911   6.785   1.150   6.063
13890WAT     H141912   6.794   1.148   5.964
13890WAT     H241913   6.757   1.241   6.093
13891WAT      O41914   2.504   7.490   7.369
13891WAT     H141915   2.543   7.431   7.440
13891WAT     H241916   2.561   7.485   7.287
13892WAT      O41917   7.926   6.398   9.821
13892WAT     H141918   7.994   6.456   9.864
13892WAT     H241919   7.851   6.380   9.885
13893WAT      O41920   3.464   9.383   1.218
13893WAT     H141921   3.514   9.466   1.246
13893WAT     H241922   3.465   9.317   1.293
13894WAT      O41923   1.204   5.182   5.612
13894WAT     H141924   1.194   5.086   5.639
13894WAT     H241925   1.129   5.235   5.652
13895WAT      O41926   4.854   1.229   1.835
13895WAT     H141927   4.860   1.130   1.825
13895WAT     H241928   4.936   1.264   1.880
13896WAT      O41929   6.745   2.808   6.468
13896WAT     H141930   6.815   2.753   6.513
13896WAT     H241931   6.743   2.899   6.509
13897WAT      O41932   5.591   9.843   9.134
13897WAT     H141933   5.574   9.746   9.144
13897WAT     H241934   5.662   9.872   9.199
13898WAT      O41935   1.880   7.485   5.674
13898WAT     H141936   1.803   7.438   5.631
13898WAT     H241937   1.879   7.467   5.773
13899WAT      O41938   1.361   2.099   8.659
13899WAT     H141939   1.383   2.050   8.743
13899WAT     H241940   1.372   2.197   8.674
13900WAT      O41941   2.866   0.826   7.196
13900WAT     H141942   2.921   0.905   7.169
13900WAT     H241943   2.838   0.836   7.292
13901WAT      O41944   1.274   6.493   9.262
13901WAT     H141945   1.307   6.409   9.306
13901WAT     H241946   1.224   6.469   9.179
13902WAT      O41947   2.236   7.522   0.897
13902WAT     H141948   2.183   7.602   0.927
13902WAT     H241949   2.332   7.535   0.920
13903WAT      O41950   5.095   7.735   8.736
13903WAT     H141951   5.005   7.762   8.770
13903WAT     H241952   5.100   7.635   8.729
13904WAT      O41953   8.435   2.093   2.596
13904WAT     H141954   8.341   2.060   2.589
13904WAT     H241955   8.469   2.116   2.504
13905WAT      O41956   1.865   1.515   3.867
13905WAT     H141957   1.831   1.488   3.958
13905WAT     H241958   1.885   1.433   3.813
13906WAT      O41959   5.400   9.427   1.125
13906WAT     H141960   5.429   9.408   1.219
13906WAT     H241961   5.431   9.519   1.099
13907WAT      O41962   9.714   2.293   9.007
13907WAT     H141963   9.780   2.366   9.024
13907WAT     H241964   9.647   2.323   8.938
13908WAT      O41965   8.542   2.222   5.335
13908WAT     H141966   8.595   2.143   5.306
13908WAT     H241967   8.497   2.202   5.422
13909WAT      O41968   8.553   8.236   2.312
13909WAT     H141969   8.530   8.321   2.359
13909WAT     H241970   8.650   8.236   2.288
13910WAT      O41971   9.387   3.677   0.768
13910WAT     H141972   9.355   3.756   0.821
13910WAT     H241973   9.449   3.709   0.696
13911WAT      O41974   8.925   9.456   1.204
13911WAT     H141975   8.865   9.378   1.190
13911WAT     H241976   8.932   9.476   1.302
13912WAT      O41977   8.000   2.185   5.935
13912WAT     H141978   8.067   2.129   5.983
13912WAT     H241979   8.024   2.189   5.838
13913WAT      O41980   2.935   5.663   4.334
13913WAT     H141981   2.880   5.605   4.274
13913WAT     H241982   2.875   5.712   4.397
13914WAT      O41983   5.134   7.749   1.961
13914WAT     H141984   5.053   7.803   1.940
13914WAT     H241985   5.160   7.763   2.057
13915WAT      O41986   2.610   6.923   6.009
13915WAT     H141987   2.631   6.853   5.941
13915WAT     H241988   2.683   6.991   6.009
13916WAT      O41989   9.740   6.078   6.793
13916WAT     H141990   9.806   6.099   6.721
13916WAT     H241991   9.748   5.981   6.817
13917WAT      O41992   2.191   0.848   8.243
13917WAT     H141993   2.263   0.834   8.175
13917WAT     H241994   2.182   0.945   8.263
13918WAT      O41995   4.715   5.379   5.520
13918WAT     H141996   4.672   5.437   5.589
13918WAT     H241997   4.773   5.435   5.461
13919WAT      O41998   6.201   8.092   8.960
13919WAT     H141999   6.244   8.086   9.050
13919WAT     H242000   6.271   8.106   8.890
13920WAT      O42001   4.749   0.710   8.286
13920WAT     H142002   4.733   0.620   8.325
13920WAT     H242003   4.706   0.779   8.344
13921WAT      O42004   8.380   8.534   6.290
13921WAT     H142005   8.359   8.437   6.273
13921WAT     H242006   8.297   8.588   6.275
13922WAT      O42007   3.333   2.412   0.668
13922WAT     H142008   3.404   2.477   0.695
13922WAT     H242009   3.309   2.428   0.572
13923WAT      O42010   1.932   8.830   2.095
13923WAT     H142011   2.019   8.869   2.063
13923WAT     H242012   1.890   8.892   2.161
13924WAT      O42013   1.074   1.148   4.033
13924WAT     H142014   0.986   1.194   4.023
13924WAT     H242015   1.145   1.215   4.057
13925WAT      O42016   4.546   7.849   8.132
13925WAT     H142017   4.571   7.753   8.120
13925WAT     H242018   4.585   7.883   8.218
13926WAT      O42019   3.971   2.350   8.622
13926WAT     H142020   4.065   2.373   8.597
13926WAT     H242021   3.947   2.261   8.584
13927WAT      O42022   1.991   0.021   9.566
13927WAT     H142023   2.033  -0.054   9.616
13927WAT     H242024   1.893   0.005   9.556
13928WAT      O42025   2.260   6.058   2.858
13928WAT     H142026   2.177   6.014   2.893
13928WAT     H242027   2.323   5.988   2.825
13929WAT      O42028   0.904   3.337   4.154
13929WAT     H142029   0.894   3.262   4.088
13929WAT     H242030   0.853   3.417   4.121
13930WAT      O42031   4.697   2.218   8.460
13930WAT     H142032   4.777   2.207   8.401
13930WAT     H242033   4.728   2.243   8.552
13931WAT      O42034   2.969   8.969   3.338
13931WAT     H142035   2.943   9.034   3.409
13931WAT     H242036   2.972   8.877   3.377
13932WAT      O42037   2.669   3.774   3.053
13932WAT     H142038   2.666   3.859   3.000
13932WAT     H242039   2.676   3.796   3.150
13933WAT      O42040   5.253   8.551   7.480
13933WAT     H142041   5.263   8.632   7.537
13933WAT     H242042   5.165   8.508   7.498
13934WAT      O42043   3.499   8.908   4.610
13934WAT     H142044   3.559   8.964   4.668
13934WAT     H242045   3.479   8.958   4.526
13935WAT      O42046   4.250   8.556   6.473
13935WAT     H142047   4.327   8.616   6.452
13935WAT     H242048   4.243   8.543   6.572
13936WAT      O42049   4.440   7.512   1.495
13936WAT     H142050   4.355   7.501   1.547
13936WAT     H242051   4.509   7.449   1.531
13937WAT      O42052   8.050   5.073   6.331
13937WAT     H142053   7.980   5.003   6.342
13937WAT     H242054   8.010   5.154   6.288
13938WAT      O42055   6.242   5.253   0.369
13938WAT     H142056   6.322   5.290   0.322
13938WAT     H242057   6.265   5.164   0.410
13939WAT      O42058   6.383   0.212   4.733
13939WAT     H142059   6.418   0.247   4.820
13939WAT     H242060   6.446   0.145   4.696
13940WAT      O42061   8.015   8.540   0.925
13940WAT     H142062   7.924   8.580   0.934
13940WAT     H242063   8.054   8.565   0.836
13941WAT      O42064   0.221   3.174   1.871
13941WAT     H142065   0.287   3.203   1.941
13941WAT     H242066   0.269   3.154   1.786
13942WAT      O42067   3.944   1.227   9.294
13942WAT     H142068   3.953   1.131   9.320
13942WAT     H242069   3.978   1.239   9.200
13943WAT      O42070   6.030   4.321   2.643
13943WAT     H142071   5.979   4.374   2.711
13943WAT     H242072   6.070   4.383   2.575
13944WAT      O42073   3.533   4.143   0.455
13944WAT     H142074   3.508   4.149   0.359
13944WAT     H242075   3.571   4.230   0.485
13945WAT      O42076   0.344   1.147   1.826
13945WAT     H142077   0.323   1.083   1.752
13945WAT     H242078   0.298   1.234   1.809
13946WAT      O42079   8.909   2.490   8.699
13946WAT     H142080   8.979   2.425   8.670
13946WAT     H242081   8.926   2.516   8.794
13947WAT      O42082   6.790   4.091   6.552
13947WAT     H142083   6.736   4.008   6.565
13947WAT     H242084   6.793   4.114   6.455
13948WAT      O42085   8.637   9.841   8.032
13948WAT     H142086   8.592   9.837   7.943
13948WAT     H242087   8.722   9.893   8.023
13949WAT      O42088   5.993   5.882   6.161
13949WAT     H142089   6.040   5.862   6.075
13949WAT     H242090   5.898   5.851   6.155
13950WAT      O42091   9.660   4.445   8.598
13950WAT     H142092   9.639   4.350   8.623
13950WAT     H242093   9.583   4.504   8.622
13951WAT      O42094   7.002   0.799   5.266
13951WAT     H142095   6.998   0.886   5.217
13951WAT     H242096   6.922   0.790   5.325
13952WAT      O42097   6.460   6.211   3.239
13952WAT     H142098   6.511   6.217   3.153
13952WAT     H242099   6.468   6.297   3.289
13953WAT      O42100   6.437   2.491   2.038
13953WAT     H142101   6.513   2.466   2.100
13953WAT     H242102   6.472   2.501   1.945
13954WAT      O42103   1.855   9.495   0.161
13954WAT     H142104   1.805   9.526   0.242
13954WAT     H242105   1.931   9.436   0.190
13955WAT      O42106   4.488   6.725   3.377
13955WAT     H142107   4.434   6.773   3.307
13955WAT     H242108   4.479   6.626   3.364
13956WAT      O42109   0.902   6.958   3.473
13956WAT     H142110   0.948   6.945   3.561
13956WAT     H242111   0.825   7.021   3.485
13957WAT      O42112   8.228   9.261   6.684
13957WAT     H142113   8.282   9.260   6.600
13957WAT     H242114   8.235   9.173   6.730
13958WAT      O42115   8.597   2.484   7.080
13958WAT     H142116   8.546   2.558   7.125
13958WAT     H242117   8.627   2.514   6.989
13959WAT      O42118   2.148   8.010   1.098
13959WAT     H142119   2.190   8.074   1.035
13959WAT     H242120   2.141   8.051   1.189
13960WAT      O42121   8.160   9.819   8.086
13960WAT     H142122   8.067   9.824   8.122
13960WAT     H242123   8.157   9.814   7.986
13961WAT      O42124   4.499   9.420   0.406
13961WAT     H142125   4.496   9.457   0.499
13961WAT     H242126   4.441   9.339   0.400
13962WAT      O42127   1.647   6.968   4.598
13962WAT     H142128   1.695   6.943   4.682
13962WAT     H242129   1.595   7.052   4.613
13963WAT      O42130   7.912   6.573   2.941
13963WAT     H142131   7.992   6.632   2.936
13963WAT     H242132   7.930   6.488   2.892
13964WAT      O42133   6.574   5.572   2.179
13964WAT     H142134   6.623   5.625   2.248
13964WAT     H242135   6.571   5.622   2.093
13965WAT      O42136   2.158   0.415   7.764
13965WAT     H142137   2.212   0.409   7.679
13965WAT     H242138   2.061   0.406   7.742
13966WAT      O42139   2.383   1.278   3.332
13966WAT     H142140   2.395   1.242   3.425
13966WAT     H242141   2.467   1.325   3.304
13967WAT      O42142   2.775   6.745   2.159
13967WAT     H142143   2.851   6.702   2.209
13967WAT     H242144   2.711   6.786   2.225
13968WAT      O42145   9.380   7.414   2.659
13968WAT     H142146   9.319   7.477   2.707
13968WAT     H242147   9.348   7.320   2.673
13969WAT      O42148   8.488   5.550   5.305
13969WAT     H142149   8.492   5.584   5.399
13969WAT     H242150   8.580   5.523   5.275
13970WAT      O42151   2.073   9.161   3.631
13970WAT     H142152   2.041   9.087   3.572
13970WAT     H242153   2.034   9.151   3.722
13971WAT      O42154   0.170   2.398   5.389
13971WAT     H142155   0.102   2.345   5.339
13971WAT     H242156   0.155   2.387   5.488
13972WAT      O42157   5.677   6.387   6.522
13972WAT     H142158   5.703   6.459   6.587
13972WAT     H242159   5.663   6.301   6.572
13973WAT      O42160   9.253   8.474   2.446
13973WAT     H142161   9.293   8.559   2.481
13973WAT     H242162   9.163   8.493   2.406
13974WAT      O42163   0.074   6.429   8.503
13974WAT     H142164  -0.019   6.432   8.467
13974WAT     H242165   0.114   6.339   8.485
13975WAT      O42166   7.956   6.676   5.331
13975WAT     H142167   7.981   6.652   5.425
13975WAT     H242168   7.897   6.604   5.293
13976WAT      O42169   1.551   6.131   0.977
13976WAT     H142170   1.648   6.114   0.991
13976WAT     H242171   1.533   6.150   0.881
13977WAT      O42172   3.795   8.741   6.711
13977WAT     H142173   3.699   8.755   6.735
13977WAT     H242174   3.831   8.663   6.762
13978WAT      O42175   3.452   8.328   6.826
13978WAT     H142176   3.541   8.293   6.855
13978WAT     H242177   3.465   8.404   6.762
13979WAT      O42178   8.865   6.707   6.139
13979WAT     H142179   8.925   6.767   6.193
13979WAT     H242180   8.879   6.725   6.042
13980WAT      O42181   2.538   9.617   2.847
13980WAT     H142182   2.463   9.625   2.782
13980WAT     H242183   2.518   9.544   2.912
13981WAT      O42184   4.770   6.842   2.103
13981WAT     H142185   4.763   6.786   2.021
13981WAT     H242186   4.866   6.868   2.118
13982WAT      O42187   5.649   2.102   9.503
13982WAT     H142188   5.725   2.088   9.439
13982WAT     H242189   5.676   2.170   9.571
13983WAT      O42190   0.972   4.613   6.654
13983WAT     H142191   1.050   4.675   6.647
13983WAT     H242192   0.944   4.584   6.562
13984WAT      O42193   7.445   4.918   4.223
13984WAT     H142194   7.462   5.011   4.193
13984WAT     H242195   7.531   4.872   4.241
13985WAT      O42196   3.864   8.862   0.960
13985WAT     H142197   3.896   8.783   1.011
13985WAT     H242198   3.847   8.836   0.865
13986WAT      O42199   6.586   2.862   9.628
13986WAT     H142200   6.522   2.896   9.698
13986WAT     H242201   6.539   2.795   9.571
13987WAT      O42202   5.317   2.550   1.252
13987WAT     H142203   5.305   2.456   1.222
13987WAT     H242204   5.404   2.585   1.218
13988WAT      O42205   2.500   9.380   7.330
13988WAT     H142206   2.459   9.471   7.319
13988WAT     H242207   2.493   9.352   7.426
13989WAT      O42208   2.253   9.233   5.042
13989WAT     H142209   2.312   9.313   5.036
13989WAT     H242210   2.218   9.210   4.951
13990WAT      O42211   7.139   6.122   3.182
13990WAT     H142212   7.144   6.080   3.273
13990WAT     H242213   7.045   6.150   3.163
13991WAT      O42214   2.269   7.116   6.151
13991WAT     H142215   2.335   7.051   6.189
13991WAT     H242216   2.179   7.100   6.193
13992WAT      O42217   3.594   6.187   1.209
13992WAT     H142218   3.572   6.120   1.138
13992WAT     H242219   3.510   6.219   1.252
13993WAT      O42220   2.066   2.542   5.943
13993WAT     H142221   2.013   2.521   5.861
13993WAT     H242222   2.053   2.470   6.011
13994WAT      O42223   3.212   2.541   8.807
13994WAT     H142224   3.199   2.532   8.708
13994WAT     H242225   3.171   2.463   8.853
13995WAT      O42226   9.489   4.617   3.950
13995WAT     H142227   9.508   4.526   3.987
13995WAT     H242228   9.572   4.673   3.954
13996WAT      O42229   1.671   5.456   5.303
13996WAT     H142230   1.746   5.451   5.368
13996WAT     H242231   1.611   5.376   5.315
13997WAT      O42232   2.092   5.606   2.753
13997WAT     H142233   2.018   5.560   2.704
13997WAT     H242234   2.124   5.547   2.828
13998WAT      O42235   6.799   4.597   7.882
13998WAT     H142236   6.743   4.676   7.910
13998WAT     H242237   6.775   4.571   7.788
13999WAT      O42238   7.685   9.523   0.349
13999WAT     H142239   7.687   9.431   0.389
13999WAT     H242240   7.686   9.516   0.249
14000WAT      O42241   0.903   0.133   9.288
14000WAT     H142242   0.825   0.094   9.240
14000WAT     H242243   0.976   0.065   9.295
14001WAT      O42244   9.757   4.105   6.253
14001WAT     H142245   9.705   4.070   6.331
14001WAT     H242246   9.694   4.125   6.178
14002WAT      O42247   5.158   9.071   7.812
14002WAT     H142248   5.157   8.971   7.825
14002WAT     H242249   5.202   9.114   7.891
14003WAT      O42250   1.148   0.260   3.320
14003WAT     H142251   1.116   0.332   3.258
14003WAT     H242252   1.242   0.236   3.297
14004WAT      O42253   5.272   9.753   8.432
14004WAT     H142254   5.195   9.699   8.467
14004WAT     H242255   5.241   9.810   8.356
14005WAT      O42256   0.746   2.284   1.966
14005WAT     H142257   0.830   2.310   1.920
14005WAT     H242258   0.767   2.252   2.059
14006WAT      O42259   6.415   8.855   0.137
14006WAT     H142260   6.499   8.801   0.137
14006WAT     H242261   6.347   8.811   0.079
14007WAT      O42262   0.778   3.499   6.588
14007WAT     H142263   0.851   3.567   6.594
14007WAT     H242264   0.689   3.544   6.598
14008WAT      O42265   7.725   5.581   7.809
14008WAT     H142266   7.810   5.528   7.811
14008WAT     H242267   7.726   5.643   7.731
14009WAT      O42268   1.743   2.340   7.483
14009WAT     H142269   1.803   2.402   7.432
14009WAT     H242270   1.727   2.258   7.429
14010WAT      O42271   1.571   5.154   9.830
14010WAT     H142272   1.516   5.079   9.793
14010WAT     H242273   1.560   5.157   9.930
14011WAT      O42274   3.460   1.959   4.973
14011WAT     H142275   3.410   1.963   4.887
14011WAT     H242276   3.556   1.981   4.958
14012WAT      O42277   6.291   8.426   0.250
14012WAT     H142278   6.195   8.451   0.241
14012WAT     H242279   6.300   8.326   0.248
14013WAT      O42280   8.173   5.003   6.789
14013WAT     H142281   8.217   5.093   6.778
14013WAT     H242282   8.075   5.012   6.772
14014WAT      O42283   8.377   8.295   8.000
14014WAT     H142284   8.413   8.315   8.092
14014WAT     H242285   8.382   8.196   7.983
14015WAT      O42286   8.196   4.930   8.467
14015WAT     H142287   8.181   4.877   8.384
14015WAT     H242288   8.268   4.887   8.522
14016WAT      O42289   5.038   6.608   1.597
14016WAT     H142290   5.053   6.655   1.511
14016WAT     H242291   4.960   6.648   1.645
14017WAT      O42292   7.102   6.317   4.129
14017WAT     H142293   7.175   6.380   4.102
14017WAT     H242294   7.138   6.224   4.130
14018WAT      O42295   4.675   2.387   4.820
14018WAT     H142296   4.694   2.325   4.897
14018WAT     H242297   4.745   2.376   4.750
14019WAT      O42298   6.110   2.870   7.795
14019WAT     H142299   6.195   2.920   7.812
14019WAT     H242300   6.105   2.846   7.698
14020WAT      O42301   9.013   8.751   1.267
14020WAT     H142302   9.029   8.708   1.357
14020WAT     H242303   9.099   8.783   1.230
14021WAT      O42304   3.527   2.597   7.870
14021WAT     H142305   3.586   2.656   7.926
14021WAT     H242306   3.435   2.637   7.865
14022WAT      O42307   8.673   0.542   4.851
14022WAT     H142308   8.643   0.505   4.763
14022WAT     H242309   8.733   0.476   4.896
14023WAT      O42310   9.548   2.164   7.815
14023WAT     H142311   9.578   2.070   7.797
14023WAT     H242312   9.622   2.228   7.792
14024WAT      O42313   6.691   3.894   0.921
14024WAT     H142314   6.671   3.804   0.959
14024WAT     H242315   6.606   3.935   0.887
14025WAT      O42316   5.210   0.024   9.560
14025WAT     H142317   5.206   0.085   9.639
14025WAT     H242318   5.294  -0.030   9.563
14026WAT      O42319   1.272   1.373   6.915
14026WAT     H142320   1.235   1.280   6.908
14026WAT     H242321   1.203   1.433   6.956
14027WAT      O42322   6.393   1.293   8.945
14027WAT     H142323   6.344   1.311   9.030
14027WAT     H242324   6.390   1.375   8.887
14028WAT      O42325   7.075   1.528   3.021
14028WAT     H142326   7.091   1.584   2.940
14028WAT     H242327   7.107   1.576   3.103
14029WAT      O42328   4.545   7.617   6.480
14029WAT     H142329   4.502   7.624   6.570
14029WAT     H242330   4.481   7.650   6.410
14030WAT      O42331   8.527   9.847   7.643
14030WAT     H142332   8.604   9.808   7.592
14030WAT     H242333   8.499   9.784   7.716
14031WAT      O42334   5.466   5.139   0.335
14031WAT     H142335   5.524   5.060   0.315
14031WAT     H242336   5.387   5.110   0.388
14032WAT      O42337   3.820   7.787   5.702
14032WAT     H142338   3.761   7.860   5.738
14032WAT     H242339   3.872   7.822   5.624
14033WAT      O42340   0.201   0.741   5.091
14033WAT     H142341   0.132   0.694   5.037
14033WAT     H242342   0.227   0.683   5.169
14034WAT      O42343   9.818   2.629   6.759
14034WAT     H142344   9.758   2.707   6.778
14034WAT     H242345   9.869   2.645   6.674
14035WAT      O42346   5.173   5.220   8.687
14035WAT     H142347   5.255   5.196   8.739
14035WAT     H242348   5.185   5.195   8.591
14036WAT      O42349   0.602   3.876   1.915
14036WAT     H142350   0.594   3.859   2.013
14036WAT     H242351   0.567   3.797   1.864
14037WAT      O42352   5.548   3.665   3.117
14037WAT     H142353   5.539   3.739   3.184
14037WAT     H242354   5.578   3.582   3.163
14038WAT      O42355   2.667   6.140   1.505
14038WAT     H142356   2.627   6.056   1.468
14038WAT     H242357   2.605   6.217   1.488
14039WAT      O42358   6.715   3.032   9.487
14039WAT     H142359   6.677   2.957   9.541
14039WAT     H242360   6.798   3.001   9.441
14040WAT      O42361   3.489   2.193   5.437
14040WAT     H142362   3.522   2.117   5.381
14040WAT     H242363   3.430   2.252   5.382
14041WAT      O42364   1.422   7.600   1.532
14041WAT     H142365   1.459   7.686   1.568
14041WAT     H242366   1.471   7.575   1.449
14042WAT      O42367   3.108   4.014   7.220
14042WAT     H142368   3.021   4.025   7.267
14042WAT     H242369   3.138   4.102   7.183
14043WAT      O42370   1.984   3.621   9.400
14043WAT     H142371   1.969   3.564   9.319
14043WAT     H242372   2.043   3.697   9.376
14044WAT      O42373   8.353   4.208   5.926
14044WAT     H142374   8.363   4.109   5.938
14044WAT     H242375   8.258   4.234   5.943
14045WAT      O42376   7.424   9.028   4.487
14045WAT     H142377   7.408   8.940   4.532
14045WAT     H242378   7.521   9.036   4.463
14046WAT      O42379   9.080   2.048   2.851
14046WAT     H142380   9.045   2.051   2.757
14046WAT     H242381   9.004   2.039   2.915
14047WAT      O42382   7.256   5.635   3.466
14047WAT     H142383   7.253   5.538   3.446
14047WAT     H242384   7.233   5.650   3.563
14048WAT      O42385   3.665   9.236   9.290
14048WAT     H142386   3.673   9.263   9.194
14048WAT     H242387   3.612   9.152   9.296
14049WAT      O42388   3.454   6.608   6.185
14049WAT     H142389   3.382   6.545   6.215
14049WAT     H242390   3.507   6.638   6.264
14050WAT      O42391   1.745   8.991   2.217
14050WAT     H142392   1.726   9.086   2.193
14050WAT     H242393   1.672   8.957   2.276
14051WAT      O42394   2.484   3.033   9.509
14051WAT     H142395   2.423   3.023   9.587
14051WAT     H242396   2.460   2.965   9.439
14052WAT      O42397   6.924   9.085   8.876
14052WAT     H142398   6.944   9.175   8.836
14052WAT     H242399   6.861   9.095   8.953
14053WAT      O42400   8.961   2.298   8.280
14053WAT     H142401   8.934   2.216   8.229
14053WAT     H242402   9.061   2.301   8.288
14054WAT      O42403   6.452   6.577   3.913
14054WAT     H142404   6.352   6.572   3.910
14054WAT     H242405   6.480   6.670   3.934
14055WAT      O42406   6.988   6.046   4.423
14055WAT     H142407   6.938   5.962   4.405
14055WAT     H242408   7.079   6.025   4.457
14056WAT      O42409   5.428   6.520   6.971
14056WAT     H142410   5.336   6.533   6.934
14056WAT     H242411   5.458   6.426   6.952
14057WAT      O42412   6.886   5.423   9.542
14057WAT     H142413   6.980   5.413   9.573
14057WAT     H242414   6.853   5.335   9.507
14058WAT      O42415   0.870   0.486   7.739
14058WAT     H142416   0.784   0.498   7.688
14058WAT     H242417   0.904   0.575   7.768
14059WAT      O42418   9.097   0.775   8.970
14059WAT     H142419   9.034   0.773   8.892
14059WAT     H242420   9.068   0.845   9.035
14060WAT      O42421   5.903   9.720   2.472
14060WAT     H142422   5.850   9.678   2.545
14060WAT     H242423   5.965   9.652   2.432
14061WAT      O42424   2.920   8.312   3.229
14061WAT     H142425   2.976   8.395   3.237
14061WAT     H242426   2.867   8.316   3.144
14062WAT      O42427   8.082   7.149   3.404
14062WAT     H142428   8.053   7.088   3.331
14062WAT     H242429   8.005   7.170   3.463
14063WAT      O42430   8.554   6.016   9.705
14063WAT     H142431   8.591   6.104   9.737
14063WAT     H242432   8.588   5.942   9.764
14064WAT      O42433   6.068   5.863   9.191
14064WAT     H142434   6.110   5.917   9.264
14064WAT     H242435   5.978   5.832   9.220
14065WAT      O42436   1.136   8.966   1.957
14065WAT     H142437   1.161   8.955   2.053
14065WAT     H242438   1.176   9.051   1.922
14066WAT      O42439   1.857   2.033   3.897
14066WAT     H142440   1.788   2.046   3.826
14066WAT     H242441   1.900   1.943   3.887
14067WAT      O42442   2.685   8.969   9.199
14067WAT     H142443   2.666   8.941   9.292
14067WAT     H242444   2.784   8.978   9.186
14068WAT      O42445   2.199   3.574   2.871
14068WAT     H142446   2.243   3.664   2.875
14068WAT     H242447   2.100   3.586   2.871
14069WAT      O42448   1.428   7.194   4.513
14069WAT     H142449   1.335   7.215   4.542
14069WAT     H242450   1.426   7.128   4.439
14070WAT      O42451   1.479   5.226   2.659
14070WAT     H142452   1.519   5.233   2.750
14070WAT     H242453   1.487   5.314   2.612
14071WAT      O42454   1.331   3.293   2.519
14071WAT     H142455   1.417   3.339   2.542
14071WAT     H242456   1.267   3.301   2.596
14072WAT      O42457   7.531   1.194   2.034
14072WAT     H142458   7.626   1.222   2.052
14072WAT     H242459   7.491   1.156   2.117
14073WAT      O42460   1.582   0.561   8.877
14073WAT     H142461   1.519   0.560   8.799
14073WAT     H242462   1.610   0.468   8.898
14074WAT      O42463   9.398   5.480   7.112
14074WAT     H142464   9.454   5.413   7.162
14074WAT     H242465   9.302   5.468   7.138
14075WAT      O42466   4.387   4.097   3.220
14075WAT     H142467   4.466   4.063   3.170
14075WAT     H242468   4.381   4.050   3.308
14076WAT      O42469   7.769   2.000   1.029
14076WAT     H142470   7.769   1.995   0.929
14076WAT     H242471   7.712   2.077   1.059
14077WAT      O42472   2.453   0.175   5.700
14077WAT     H142473   2.507   0.228   5.765
14077WAT     H242474   2.514   0.118   5.644
14078WAT      O42475   1.196   8.290   0.041
14078WAT     H142476   1.165   8.237   0.120
14078WAT     H242477   1.269   8.352   0.070
14079WAT      O42478   2.702   4.737   3.270
14079WAT     H142479   2.674   4.682   3.348
14079WAT     H242480   2.664   4.698   3.186
14080WAT      O42481   6.776   0.482   2.465
14080WAT     H142482   6.725   0.463   2.381
14080WAT     H242483   6.721   0.456   2.544
14081WAT      O42484   5.961   7.175   2.590
14081WAT     H142485   6.028   7.151   2.520
14081WAT     H242486   5.930   7.092   2.636
14082WAT      O42487   9.549   6.589   3.200
14082WAT     H142488   9.601   6.533   3.264
14082WAT     H242489   9.512   6.531   3.128
14083WAT      O42490   5.248   3.248   9.563
14083WAT     H142491   5.321   3.184   9.587
14083WAT     H242492   5.260   3.277   9.468
14084WAT      O42493   8.256   1.376   2.315
14084WAT     H142494   8.303   1.294   2.346
14084WAT     H242495   8.171   1.388   2.366
14085WAT      O42496   2.688   6.657   2.493
14085WAT     H142497   2.741   6.619   2.568
14085WAT     H242498   2.671   6.585   2.425
14086WAT      O42499   7.955   0.724   9.196
14086WAT     H142500   7.883   0.673   9.148
14086WAT     H242501   7.973   0.680   9.284
14087WAT      O42502   4.051   9.555   7.973
14087WAT     H142503   4.044   9.493   8.051
14087WAT     H242504   4.147   9.570   7.951
14088WAT      O42505   0.762   5.273   8.595
14088WAT     H142506   0.692   5.344   8.606
14088WAT     H242507   0.848   5.305   8.634
14089WAT      O42508   5.320   1.800   7.652
14089WAT     H142509   5.334   1.785   7.750
14089WAT     H242510   5.238   1.751   7.622
14090WAT      O42511   1.957   9.452   9.622
14090WAT     H142512   1.914   9.362   9.614
14090WAT     H242513   1.909   9.505   9.692
14091WAT      O42514   8.888   2.052   6.333
14091WAT     H142515   8.856   2.124   6.395
14091WAT     H242516   8.979   2.022   6.362
14092WAT      O42517   2.852   2.512   7.728
14092WAT     H142518   2.782   2.543   7.792
14092WAT     H242519   2.882   2.420   7.753
14093WAT      O42520   3.457   7.561   3.134
14093WAT     H142521   3.382   7.513   3.088
14093WAT     H242522   3.526   7.588   3.068
14094WAT      O42523   9.108   4.665   4.857
14094WAT     H142524   9.147   4.572   4.853
14094WAT     H242525   9.045   4.672   4.934
14095WAT      O42526   2.900   7.746   2.282
14095WAT     H142527   2.862   7.828   2.324
14095WAT     H242528   2.826   7.686   2.252
14096WAT      O42529   7.005   9.481   8.800
14096WAT     H142530   7.093   9.457   8.760
14096WAT     H242531   7.018   9.512   8.894
14097WAT      O42532   4.208   0.683   4.375
14097WAT     H142533   4.260   0.761   4.411
14097WAT     H242534   4.245   0.658   4.286
14098WAT      O42535   5.645   2.171   3.115
14098WAT     H142536   5.686   2.172   3.206
14098WAT     H242537   5.715   2.191   3.047
14099WAT      O42538   6.889   0.238   4.718
14099WAT     H142539   6.954   0.311   4.699
14099WAT     H242540   6.893   0.214   4.815
14100WAT      O42541   0.515   1.756   7.871
14100WAT     H142542   0.537   1.746   7.774
14100WAT     H242543   0.559   1.839   7.906
14101WAT      O42544   7.334   7.134   4.863
14101WAT     H142545   7.411   7.099   4.809
14101WAT     H242546   7.260   7.066   4.862
14102WAT      O42547   8.252   7.118   6.104
14102WAT     H142548   8.153   7.106   6.105
14102WAT     H242549   8.297   7.031   6.125
14103WAT      O42550   2.606   7.250   1.658
14103WAT     H142551   2.510   7.241   1.632
14103WAT     H242552   2.642   7.337   1.624
14104WAT      O42553   7.749   4.838   7.889
14104WAT     H142554   7.653   4.814   7.898
14104WAT     H242555   7.762   4.934   7.911
14105WAT      O42556   9.085   6.873   9.283
14105WAT     H142557   9.168   6.890   9.230
14105WAT     H242558   9.046   6.961   9.312
14106WAT      O42559   1.759   7.550   2.312
14106WAT     H142560   1.682   7.505   2.356
14106WAT     H242561   1.733   7.642   2.285
14107WAT      O42562   7.056   5.266   0.282
14107WAT     H142563   7.122   5.204   0.324
14107WAT     H242564   6.963   5.242   0.312
14108WAT      O42565   7.026   3.887   9.698
14108WAT     H142566   7.111   3.863   9.745
14108WAT     H242567   6.990   3.806   9.652
14109WAT      O42568   1.747   2.445   4.374
14109WAT     H142569   1.674   2.377   4.377
14109WAT     H242570   1.779   2.463   4.468
14110WAT      O42571   4.612   8.605   1.999
14110WAT     H142572   4.665   8.542   2.055
14110WAT     H242573   4.551   8.658   2.057
14111WAT      O42574   1.471   0.443   9.225
14111WAT     H142575   1.417   0.524   9.205
14111WAT     H242576   1.413   0.372   9.264
14112WAT      O42577   8.959   4.308   5.551
14112WAT     H142578   8.924   4.265   5.634
14112WAT     H242579   8.946   4.246   5.473
14113WAT      O42580   6.073   0.582   2.478
14113WAT     H142581   6.173   0.585   2.465
14113WAT     H242582   6.038   0.675   2.488
14114WAT      O42583   6.386   0.881   4.050
14114WAT     H142584   6.416   0.853   4.141
14114WAT     H242585   6.318   0.955   4.059
14115WAT      O42586   2.444   0.007   4.449
14115WAT     H142587   2.402   0.010   4.540
14115WAT     H242588   2.542  -0.013   4.459
14116WAT      O42589   0.812   3.235   2.027
14116WAT     H142590   0.894   3.230   1.969
14116WAT     H242591   0.732   3.205   1.975
14117WAT      O42592   6.129   8.091   4.381
14117WAT     H142593   6.072   8.057   4.307
14117WAT     H242594   6.094   8.056   4.468
14118WAT      O42595   9.144   5.665   1.407
14118WAT     H142596   9.116   5.716   1.488
14118WAT     H242597   9.218   5.713   1.361
14119WAT      O42598   2.232   2.662   5.517
14119WAT     H142599   2.270   2.735   5.574
14119WAT     H242600   2.145   2.693   5.478
14120WAT      O42601   8.871   3.428   5.451
14120WAT     H142602   8.818   3.479   5.382
14120WAT     H242603   8.953   3.480   5.474
14121WAT      O42604   5.521   5.562   1.310
14121WAT     H142605   5.558   5.520   1.226
14121WAT     H242606   5.538   5.660   1.308
14122WAT      O42607   7.058   7.102   8.564
14122WAT     H142608   7.097   7.126   8.475
14122WAT     H242609   7.064   7.003   8.577
14123WAT      O42610   7.791   3.538   1.965
14123WAT     H142611   7.765   3.504   1.875
14123WAT     H242612   7.730   3.612   1.992
14124WAT      O42613   2.647   9.153   7.580
14124WAT     H142614   2.561   9.187   7.617
14124WAT     H242615   2.628   9.078   7.516
14125WAT      O42616   5.665   3.512   2.530
14125WAT     H142617   5.704   3.603   2.541
14125WAT     H242618   5.580   3.518   2.477
14126WAT      O42619   9.198   0.224   6.797
14126WAT     H142620   9.238   0.286   6.729
14126WAT     H242621   9.242   0.135   6.791
14127WAT      O42622   1.524   6.352   0.070
14127WAT     H142623   1.586   6.282   0.035
14127WAT     H242624   1.440   6.310   0.101
14128WAT      O42625   0.981   6.127   6.500
14128WAT     H142626   0.906   6.087   6.448
14128WAT     H242627   0.985   6.226   6.483
14129WAT      O42628   5.025   5.011   0.991
14129WAT     H142629   4.979   5.048   0.911
14129WAT     H242630   4.997   5.061   1.073
14130WAT      O42631   9.881   4.754   1.760
14130WAT     H142632   9.896   4.675   1.819
14130WAT     H242633   9.794   4.796   1.783
14131WAT      O42634   9.283   5.549   0.646
14131WAT     H142635   9.297   5.470   0.587
14131WAT     H242636   9.193   5.544   0.688
14132WAT      O42637   8.930   5.554   9.508
14132WAT     H142638   8.861   5.546   9.581
14132WAT     H242639   9.020   5.531   9.545
14133WAT      O42640   5.344   7.745   4.989
14133WAT     H142641   5.375   7.662   5.037
14133WAT     H242642   5.356   7.824   5.049
14134WAT      O42643   3.502   1.853   1.899
14134WAT     H142644   3.419   1.807   1.867
14134WAT     H242645   3.528   1.818   1.988
14135WAT      O42646   7.130   3.698   1.979
14135WAT     H142647   7.051   3.729   1.926
14135WAT     H242648   7.114   3.605   2.011
14136WAT      O42649   3.448   0.762   7.503
14136WAT     H142650   3.357   0.786   7.468
14136WAT     H242651   3.475   0.829   7.572
14137WAT      O42652   7.650   9.061   7.948
14137WAT     H142653   7.711   9.021   8.016
14137WAT     H242654   7.701   9.084   7.865
14138WAT      O42655   7.573   5.894   3.727
14138WAT     H142656   7.492   5.926   3.678
14138WAT     H242657   7.600   5.962   3.794
14139WAT      O42658   7.526   6.211   3.442
14139WAT     H142659   7.516   6.308   3.419
14139WAT     H242660   7.611   6.176   3.403
14140WAT      O42661   6.634   6.157   9.224
14140WAT     H142662   6.591   6.186   9.138
14140WAT     H242663   6.572   6.097   9.274
14141WAT      O42664   3.946   4.610   5.195
14141WAT     H142665   3.938   4.637   5.099
14141WAT     H242666   3.956   4.692   5.252
14142WAT      O42667   1.423   3.944   1.899
14142WAT     H142668   1.474   3.978   1.978
14142WAT     H242669   1.325   3.947   1.919
14143WAT      O42670   9.614   6.859   4.416
14143WAT     H142671   9.660   6.943   4.387
14143WAT     H242672   9.625   6.789   4.346
14144WAT      O42673   4.867   7.318   3.961
14144WAT     H142674   4.767   7.319   3.953
14144WAT     H242675   4.893   7.274   4.047
14145WAT      O42676   6.790   6.610   8.854
14145WAT     H142677   6.840   6.644   8.933
14145WAT     H242678   6.707   6.665   8.841
14146WAT      O42679   9.215   1.282   1.985
14146WAT     H142680   9.124   1.251   1.957
14146WAT     H242681   9.284   1.215   1.956
14147WAT      O42682   7.351   4.396   4.900
14147WAT     H142683   7.388   4.489   4.894
14147WAT     H242684   7.251   4.399   4.904
14148WAT      O42685   7.230   3.229   1.226
14148WAT     H142686   7.249   3.241   1.323
14148WAT     H242687   7.148   3.280   1.202
14149WAT      O42688   6.398   1.313   8.550
14149WAT     H142689   6.394   1.221   8.589
14149WAT     H242690   6.457   1.371   8.606
14150WAT      O42691   9.468   1.725   3.419
14150WAT     H142692   9.494   1.799   3.482
14150WAT     H242693   9.412   1.762   3.346
14151WAT      O42694   2.260   9.240   1.682
14151WAT     H142695   2.348   9.285   1.665
14151WAT     H242696   2.215   9.284   1.760
14152WAT      O42697   1.926   0.090   4.847
14152WAT     H142698   2.015   0.122   4.815
14152WAT     H242699   1.935   0.000   4.889
14153WAT      O42700   8.069   4.744   5.342
14153WAT     H142701   8.019   4.831   5.340
14153WAT     H242702   8.007   4.670   5.317
14154WAT      O42703   1.857   9.017   8.446
14154WAT     H142704   1.921   8.965   8.503
14154WAT     H242705   1.763   8.991   8.467
14155WAT      O42706   1.907   3.627   0.947
14155WAT     H142707   1.843   3.580   0.886
14155WAT     H242708   2.001   3.611   0.917
14156WAT      O42709   7.196   8.287   9.229
14156WAT     H142710   7.178   8.192   9.252
14156WAT     H242711   7.117   8.325   9.180
14157WAT      O42712   7.002   5.405   5.273
14157WAT     H142713   7.090   5.376   5.237
14157WAT     H242714   6.941   5.428   5.197
14158WAT      O42715   4.050   7.350   0.629
14158WAT     H142716   4.029   7.262   0.672
14158WAT     H242717   3.967   7.406   0.625
14159WAT      O42718   1.542   5.684   5.256
14159WAT     H142719   1.534   5.724   5.164
14159WAT     H242720   1.576   5.591   5.248
14160WAT      O42721   0.980   7.084   5.214
14160WAT     H142722   0.913   7.097   5.287
14160WAT     H242723   1.017   7.172   5.187
14161WAT      O42724   3.438   3.403   6.462
14161WAT     H142725   3.529   3.367   6.439
14161WAT     H242726   3.413   3.474   6.396
14162WAT      O42727   3.173   2.552   7.260
14162WAT     H142728   3.200   2.456   7.264
14162WAT     H242729   3.139   2.573   7.168
14163WAT      O42730   9.696   0.933   2.050
14163WAT     H142731   9.672   1.028   2.030
14163WAT     H242732   9.634   0.872   2.000
14164WAT      O42733   0.104   1.573   9.062
14164WAT     H142734   0.031   1.505   9.072
14164WAT     H242735   0.138   1.599   9.152
14165WAT      O42736   4.329   6.247   8.787
14165WAT     H142737   4.334   6.341   8.822
14165WAT     H242738   4.280   6.190   8.853
14166WAT      O42739   8.061   3.748   0.024
14166WAT     H142740   8.005   3.827  -0.003
14166WAT     H242741   8.056   3.678  -0.047
14167WAT      O42742   1.873   2.443   9.434
14167WAT     H142743   1.815   2.413   9.359
14167WAT     H242744   1.962   2.473   9.397
14168WAT      O42745   2.852   9.606   0.996
14168WAT     H142746   2.939   9.580   0.956
14168WAT     H242747   2.780   9.546   0.961
14169WAT      O42748   9.109   1.905   5.392
14169WAT     H142749   9.028   1.958   5.416
14169WAT     H242750   9.107   1.880   5.295
14170WAT      O42751   5.458   5.830   0.083
14170WAT     H142752   5.535   5.894   0.090
14170WAT     H242753   5.427   5.827  -0.013
14171WAT      O42754   3.307   8.878   2.291
14171WAT     H142755   3.263   8.957   2.334
14171WAT     H242756   3.238   8.822   2.246
14172WAT      O42757   5.220   2.857   6.705
14172WAT     H142758   5.267   2.893   6.786
14172WAT     H242759   5.194   2.933   6.645
14173WAT      O42760   8.899   6.032   4.553
14173WAT     H142761   8.996   6.059   4.558
14173WAT     H242762   8.841   6.112   4.567
14174WAT      O42763   0.694   8.520   4.467
14174WAT     H142764   0.770   8.460   4.443
14174WAT     H242765   0.722   8.583   4.540
14175WAT      O42766   6.228   6.798   4.088
14175WAT     H142767   6.320   6.809   4.051
14175WAT     H242768   6.161   6.812   4.015
14176WAT      O42769   0.620   5.408   3.975
14176WAT     H142770   0.533   5.457   3.975
14176WAT     H242771   0.688   5.460   4.027
14177WAT      O42772   1.054   5.310   2.840
14177WAT     H142773   1.049   5.390   2.899
14177WAT     H242774   1.030   5.228   2.893
14178WAT      O42775   2.831   2.004   6.621
14178WAT     H142776   2.792   2.093   6.598
14178WAT     H242777   2.916   1.990   6.569
14179WAT      O42778   1.921   1.829   3.590
14179WAT     H142779   1.920   1.792   3.682
14179WAT     H242780   1.922   1.754   3.524
14180WAT      O42781   6.136   0.469   1.674
14180WAT     H142782   6.183   0.521   1.604
14180WAT     H242783   6.039   0.492   1.674
14181WAT      O42784   4.057   8.511   1.999
14181WAT     H142785   4.063   8.549   2.091
14181WAT     H242786   4.148   8.509   1.958
14182WAT      O42787   5.915   0.367   2.576
14182WAT     H142788   5.972   0.441   2.542
14182WAT     H242789   5.959   0.279   2.557
14183WAT      O42790   3.956   1.477   8.925
14183WAT     H142791   4.010   1.515   8.850
14183WAT     H242792   3.873   1.532   8.938
14184WAT      O42793   5.435   4.028   3.510
14184WAT     H142794   5.371   4.097   3.474
14184WAT     H242795   5.392   3.938   3.507
14185WAT      O42796   1.430   7.187   0.574
14185WAT     H142797   1.340   7.227   0.588
14185WAT     H242798   1.432   7.137   0.488
14186WAT      O42799   2.412   0.174   2.936
14186WAT     H142800   2.489   0.114   2.916
14186WAT     H242801   2.334   0.119   2.966
14187WAT      O42802   6.070   7.993   0.812
14187WAT     H142803   5.990   7.935   0.799
14187WAT     H242804   6.044   8.089   0.796
14188WAT      O42805   1.171   2.287   5.096
14188WAT     H142806   1.261   2.273   5.055
14188WAT     H242807   1.152   2.385   5.103
14189WAT      O42808   0.277   6.371   3.849
14189WAT     H142809   0.277   6.303   3.776
14189WAT     H242810   0.243   6.329   3.934
14190WAT      O42811   0.841   3.720   9.600
14190WAT     H142812   0.840   3.626   9.633
14190WAT     H242813   0.853   3.720   9.500
14191WAT      O42814   9.292   7.401   1.392
14191WAT     H142815   9.203   7.401   1.437
14191WAT     H242816   9.284   7.359   1.302
14192WAT      O42817   6.447   4.728   7.074
14192WAT     H142818   6.461   4.748   7.171
14192WAT     H242819   6.371   4.781   7.039
14193WAT      O42820   5.868   2.267   4.261
14193WAT     H142821   5.835   2.352   4.221
14193WAT     H242822   5.804   2.193   4.240
14194WAT      O42823   7.176   8.326   6.427
14194WAT     H142824   7.243   8.253   6.416
14194WAT     H242825   7.152   8.336   6.523
14195WAT      O42826   9.799   0.399   8.631
14195WAT     H142827   9.732   0.470   8.610
14195WAT     H242828   9.752   0.313   8.653
14196WAT      O42829   1.846   2.011   9.641
14196WAT     H142830   1.856   1.927   9.693
14196WAT     H242831   1.803   2.081   9.698
14197WAT      O42832   8.434   6.762   0.521
14197WAT     H142833   8.481   6.792   0.438
14197WAT     H242834   8.347   6.810   0.530
14198WAT      O42835   4.343   5.213   2.928
14198WAT     H142836   4.397   5.212   3.013
14198WAT     H242837   4.342   5.306   2.891
14199WAT      O42838   1.699   1.606   2.228
14199WAT     H142839   1.618   1.632   2.177
14199WAT     H242840   1.735   1.520   2.193
14200WAT      O42841   1.640   3.529   5.986
14200WAT     H142842   1.677   3.579   5.907
14200WAT     H242843   1.590   3.592   6.045
14201WAT      O42844   7.513   6.851   5.212
14201WAT     H142845   7.487   6.755   5.225
14201WAT     H242846   7.588   6.856   5.146
14202WAT      O42847   9.326   6.855   5.917
14202WAT     H142848   9.244   6.896   5.958
14202WAT     H242849   9.408   6.898   5.956
14203WAT      O42850   3.380   5.370   9.640
14203WAT     H142851   3.340   5.283   9.666
14203WAT     H242852   3.363   5.387   9.542
14204WAT      O42853   7.049   1.127   4.638
14204WAT     H142854   7.039   1.032   4.667
14204WAT     H242855   7.078   1.130   4.542
14205WAT      O42856   3.892   1.987   2.783
14205WAT     H142857   3.911   2.036   2.698
14205WAT     H242858   3.797   2.001   2.809
14206WAT      O42859   0.764   8.698   4.665
14206WAT     H142860   0.710   8.771   4.624
14206WAT     H242861   0.711   8.653   4.737
14207WAT      O42862   6.858   1.091   4.292
14207WAT     H142863   6.956   1.095   4.313
14207WAT     H242864   6.847   1.072   4.194
14208WAT      O42865   3.987   2.850   9.857
14208WAT     H142866   4.019   2.755   9.862
14208WAT     H242867   3.939   2.873   9.942
14209WAT      O42868   4.647   0.450   9.617
14209WAT     H142869   4.587   0.476   9.694
14209WAT     H242870   4.724   0.396   9.651
14210WAT      O42871   6.952   2.762   2.798
14210WAT     H142872   6.852   2.759   2.791
14210WAT     H242873   6.988   2.826   2.730
14211WAT      O42874   3.236   7.163   0.396
14211WAT     H142875   3.215   7.240   0.457
14211WAT     H242876   3.335   7.151   0.391
14212WAT      O42877   2.114   7.163   5.013
14212WAT     H142878   2.203   7.180   5.054
14212WAT     H242879   2.123   7.094   4.941
14213WAT      O42880   2.726   6.759   1.536
14213WAT     H142881   2.683   6.742   1.625
14213WAT     H242882   2.822   6.731   1.539
14214WAT      O42883   1.492   3.845   4.186
14214WAT     H142884   1.400   3.822   4.157
14214WAT     H242885   1.489   3.921   4.251
14215WAT      O42886   7.038   5.562   1.851
14215WAT     H142887   7.074   5.482   1.802
14215WAT     H242888   7.097   5.641   1.833
14216WAT      O42889   2.134   4.327   8.732
14216WAT     H142890   2.060   4.326   8.799
14216WAT     H242891   2.220   4.352   8.777
14217WAT      O42892   4.191   3.419   0.660
14217WAT     H142893   4.141   3.350   0.607
14217WAT     H242894   4.131   3.456   0.731
14218WAT      O42895   3.162   8.482   7.465
14218WAT     H142896   3.250   8.502   7.508
14218WAT     H242897   3.118   8.406   7.514
14219WAT      O42898   3.638   3.315   5.322
14219WAT     H142899   3.686   3.338   5.238
14219WAT     H242900   3.549   3.275   5.300
14220WAT      O42901   4.695   6.207   2.023
14220WAT     H142902   4.635   6.284   2.041
14220WAT     H242903   4.762   6.231   1.953
14221WAT      O42904   5.729   9.732   4.497
14221WAT     H142905   5.797   9.731   4.424
14221WAT     H242906   5.775   9.748   4.585
14222WAT      O42907   3.974   2.025   4.373
14222WAT     H142908   3.925   2.068   4.297
14222WAT     H242909   4.071   2.050   4.370
14223WAT      O42910   4.103   9.211   2.496
14223WAT     H142911   4.058   9.174   2.414
14223WAT     H242912   4.051   9.185   2.577
14224WAT      O42913   9.205   6.829   6.945
14224WAT     H142914   9.263   6.852   6.866
14224WAT     H242915   9.250   6.758   7.000
14225WAT      O42916   4.493   6.009   5.435
14225WAT     H142917   4.561   5.936   5.426
14225WAT     H242918   4.523   6.090   5.386
14226WAT      O42919   8.055   7.695   6.200
14226WAT     H142920   8.101   7.610   6.227
14226WAT     H242921   8.123   7.760   6.165
14227WAT      O42922   5.953   6.955   9.697
14227WAT     H142923   5.914   6.878   9.748
14227WAT     H242924   6.040   6.981   9.739
14228WAT      O42925   3.858   5.997   1.800
14228WAT     H142926   3.918   6.073   1.826
14228WAT     H242927   3.890   5.913   1.844
14229WAT      O42928   3.042   0.334   0.909
14229WAT     H142929   3.112   0.279   0.955
14229WAT     H242930   3.072   0.430   0.906
14230WAT      O42931   6.915   6.247   5.601
14230WAT     H142932   6.864   6.289   5.676
14230WAT     H242933   6.885   6.152   5.589
14231WAT      O42934   1.720   8.387   3.542
14231WAT     H142935   1.632   8.377   3.495
14231WAT     H242936   1.768   8.466   3.505
14232WAT      O42937   7.608   3.795   6.889
14232WAT     H142938   7.600   3.870   6.822
14232WAT     H242939   7.680   3.816   6.954
14233WAT      O42940   7.593   6.207   8.579
14233WAT     H142941   7.622   6.302   8.565
14233WAT     H242942   7.628   6.174   8.667
14234WAT      O42943   4.666   2.813   1.656
14234WAT     H142944   4.699   2.809   1.750
14234WAT     H242945   4.743   2.806   1.593
14235WAT      O42946   7.808   7.874   4.865
14235WAT     H142947   7.900   7.857   4.828
14235WAT     H242948   7.777   7.965   4.835
14236WAT      O42949   5.778   4.722   6.257
14236WAT     H142950   5.782   4.625   6.280
14236WAT     H242951   5.768   4.732   6.158
14237WAT      O42952   4.829   5.723   8.737
14237WAT     H142953   4.856   5.717   8.640
14237WAT     H242954   4.734   5.753   8.743
14238WAT      O42955   8.798   0.408   2.859
14238WAT     H142956   8.896   0.408   2.841
14238WAT     H242957   8.756   0.488   2.816
14239WAT      O42958   0.678   3.852   9.267
14239WAT     H142959   0.632   3.899   9.343
14239WAT     H242960   0.714   3.765   9.300
14240WAT      O42961   0.806   0.555   8.310
14240WAT     H142962   0.753   0.473   8.331
14240WAT     H242963   0.869   0.536   8.235
14241WAT      O42964   6.672   9.265   1.622
14241WAT     H142965   6.644   9.177   1.662
14241WAT     H242966   6.669   9.258   1.522
14242WAT      O42967   4.001   0.458   7.370
14242WAT     H142968   4.013   0.549   7.329
14242WAT     H242969   4.082   0.403   7.353
14243WAT      O42970   7.910   8.956   3.451
14243WAT     H142971   7.948   8.904   3.375
14243WAT     H242972   7.815   8.929   3.466
14244WAT      O42973   8.227   3.138   1.228
14244WAT     H142974   8.272   3.227   1.232
14244WAT     H242975   8.288   3.071   1.185
14245WAT      O42976   0.889   5.687   3.571
14245WAT     H142977   0.968   5.625   3.562
14245WAT     H242978   0.916   5.768   3.623
14246WAT      O42979   9.572   2.023   2.857
14246WAT     H142980   9.611   2.009   2.948
14246WAT     H242981   9.643   2.010   2.788
14247WAT      O42982   2.018   1.072   7.720
14247WAT     H142983   1.995   1.154   7.668
14247WAT     H242984   2.065   1.098   7.804
14248WAT      O42985   2.332   6.196   1.701
14248WAT     H142986   2.418   6.225   1.744
14248WAT     H242987   2.321   6.243   1.614
14249WAT      O42988   2.461   8.604   7.345
14249WAT     H142989   2.395   8.642   7.410
14249WAT     H242990   2.427   8.517   7.310
14250WAT      O42991   0.280   7.623   2.646
14250WAT     H142992   0.251   7.588   2.735
14250WAT     H242993   0.200   7.633   2.586
14251WAT      O42994   7.011   2.288   0.131
14251WAT     H142995   7.009   2.193   0.165
14251WAT     H242996   6.917   2.318   0.113
14252WAT      O42997   7.327   9.453   0.290
14252WAT     H142998   7.316   9.414   0.198
14252WAT     H242999   7.398   9.403   0.339
14253WAT      O43000   8.316   2.128   3.774
14253WAT     H143001   8.393   2.164   3.722
14253WAT     H243002   8.283   2.197   3.838
14254WAT      O43003   6.338   5.809   6.121
14254WAT     H143004   6.293   5.781   6.037
14254WAT     H243005   6.428   5.848   6.099
14255WAT      O43006   4.327   6.875   3.234
14255WAT     H143007   4.388   6.937   3.186
14255WAT     H243008   4.244   6.861   3.180
14256WAT      O43009   1.801   0.247   5.053
14256WAT     H143010   1.814   0.344   5.032
14256WAT     H243011   1.838   0.192   4.978
14257WAT      O43012   0.257   9.437   0.912
14257WAT     H143013   0.332   9.453   0.976
14257WAT     H243014   0.242   9.519   0.857
14258WAT      O43015   5.494   5.577   4.219
14258WAT     H143016   5.418   5.640   4.209
14258WAT     H243017   5.572   5.610   4.166
14259WAT      O43018   5.807   0.768   4.992
14259WAT     H143019   5.782   0.745   4.898
14259WAT     H243020   5.775   0.861   5.013
14260WAT      O43021   0.359   4.948   6.962
14260WAT     H143022   0.407   4.882   6.904
14260WAT     H243023   0.355   5.037   6.916
14261WAT      O43024   5.987   5.990   0.502
14261WAT     H143025   5.936   6.064   0.545
14261WAT     H243026   5.991   6.004   0.403
14262WAT      O43027   2.451   8.759   0.871
14262WAT     H143028   2.428   8.712   0.786
14262WAT     H243029   2.540   8.728   0.903
14263WAT      O43030   9.686   2.800   7.371
14263WAT     H143031   9.783   2.824   7.381
14263WAT     H243032   9.633   2.845   7.443
14264WAT      O43033   4.565   6.228   5.297
14264WAT     H143034   4.660   6.198   5.284
14264WAT     H243035   4.562   6.328   5.302
14265WAT      O43036   5.778   4.254   7.012
14265WAT     H143037   5.804   4.191   6.939
14265WAT     H243038   5.680   4.248   7.028
14266WAT      O43039   7.194   3.215   3.598
14266WAT     H143040   7.203   3.167   3.685
14266WAT     H243041   7.265   3.182   3.535
14267WAT      O43042   4.926   4.147   7.711
14267WAT     H143043   4.826   4.145   7.712
14267WAT     H243044   4.958   4.188   7.625
14268WAT      O43045   7.273   1.749   0.625
14268WAT     H143046   7.270   1.650   0.613
14268WAT     H243047   7.343   1.773   0.692
14269WAT      O43048   4.866   3.974   6.290
14269WAT     H143049   4.861   3.938   6.197
14269WAT     H243050   4.908   4.064   6.289
14270WAT      O43051   2.560   7.815   2.465
14270WAT     H143052   2.539   7.720   2.486
14270WAT     H243053   2.477   7.870   2.476
14271WAT      O43054   2.272   4.169   1.090
14271WAT     H143055   2.317   4.229   1.157
14271WAT     H243056   2.256   4.220   1.005
14272WAT      O43057   6.567   8.946   7.466
14272WAT     H143058   6.623   8.919   7.388
14272WAT     H243059   6.473   8.915   7.453
14273WAT      O43060   5.246   7.467   2.509
14273WAT     H143061   5.197   7.494   2.591
14273WAT     H243062   5.180   7.450   2.435
14274WAT      O43063   1.188   7.646   7.062
14274WAT     H143064   1.283   7.630   7.038
14274WAT     H243065   1.183   7.711   7.138
14275WAT      O43066   1.856   1.839   2.237
14275WAT     H143067   1.795   1.768   2.270
14275WAT     H243068   1.932   1.798   2.187
14276WAT      O43069   8.834   4.563   8.011
14276WAT     H143070   8.854   4.553   8.109
14276WAT     H243071   8.888   4.496   7.959
14277WAT      O43072   1.130   2.920   2.288
14277WAT     H143073   1.034   2.894   2.277
14277WAT     H243074   1.183   2.884   2.212
14278WAT      O43075   3.941   0.432   8.040
14278WAT     H143076   4.005   0.430   8.116
14278WAT     H243077   3.980   0.484   7.964
14279WAT      O43078   8.927   4.816   1.055
14279WAT     H143079   8.865   4.881   1.011
14279WAT     H243080   8.909   4.813   1.153
14280WAT      O43081   3.000   0.568   8.765
14280WAT     H143082   2.966   0.632   8.835
14280WAT     H243083   2.963   0.477   8.782
14281WAT      O43084   8.482   1.519   5.749
14281WAT     H143085   8.508   1.442   5.807
14281WAT     H243086   8.409   1.571   5.793
14282WAT      O43087   8.714   2.218   0.304
14282WAT     H143088   8.799   2.200   0.253
14282WAT     H243089   8.669   2.131   0.324
14283WAT      O43090   2.096   3.343   0.146
14283WAT     H143091   2.033   3.324   0.222
14283WAT     H243092   2.176   3.392   0.181
14284WAT      O43093   7.452   8.111   5.976
14284WAT     H143094   7.459   8.016   5.945
14284WAT     H243095   7.370   8.152   5.937
14285WAT      O43096   5.597   3.857   5.708
14285WAT     H143097   5.580   3.953   5.726
14285WAT     H243098   5.542   3.801   5.769
14286WAT      O43099   5.509   3.028   4.096
14286WAT     H143100   5.581   2.968   4.132
14286WAT     H243101   5.548   3.091   4.029
14287WAT      O43102   2.323   0.549   1.242
14287WAT     H143103   2.395   0.619   1.254
14287WAT     H243104   2.313   0.527   1.145
14288WAT      O43105   9.393   0.417   1.728
14288WAT     H143106   9.480   0.451   1.766
14288WAT     H243107   9.332   0.495   1.711
14289WAT      O43108   3.000   4.126   5.491
14289WAT     H143109   2.967   4.198   5.430
14289WAT     H243110   3.073   4.075   5.445
14290WAT      O43111   2.198   3.640   5.471
14290WAT     H143112   2.206   3.665   5.568
14290WAT     H243113   2.288   3.620   5.434
14291WAT      O43114   5.868   9.242   1.789
14291WAT     H143115   5.862   9.331   1.833
14291WAT     H243116   5.964   9.216   1.778
14292WAT      O43117   2.808   5.664   2.922
14292WAT     H143118   2.765   5.660   2.832
14292WAT     H243119   2.881   5.595   2.927
14293WAT      O43120   6.361   1.721   3.806
14293WAT     H143121   6.441   1.717   3.746
14293WAT     H243122   6.312   1.807   3.791
14294WAT      O43123   3.274   2.239   5.268
14294WAT     H143124   3.282   2.143   5.293
14294WAT     H243125   3.194   2.251   5.208
14295WAT      O43126   5.566   4.766   5.307
14295WAT     H143127   5.488   4.733   5.254
14295WAT     H243128   5.636   4.802   5.245
14296WAT      O43129   1.338   0.010   3.571
14296WAT     H143130   1.262   0.068   3.542
14296WAT     H243131   1.340   0.006   3.671
14297WAT      O43132   0.772   3.412   7.868
14297WAT     H143133   0.800   3.420   7.964
14297WAT     H243134   0.839   3.457   7.810
14298WAT      O43135   8.092   3.205   4.970
14298WAT     H143136   8.183   3.237   4.996
14298WAT     H243137   8.030   3.283   4.964
14299WAT      O43138   8.980   2.600   2.931
14299WAT     H143139   8.969   2.692   2.894
14299WAT     H243140   9.064   2.559   2.896
14300WAT      O43141   3.867   8.258   8.654
14300WAT     H143142   3.892   8.352   8.677
14300WAT     H243143   3.924   8.227   8.577
14301WAT      O43144   3.963   2.218   6.670
14301WAT     H143145   4.049   2.172   6.652
14301WAT     H243146   3.912   2.168   6.740
14302WAT      O43147   5.290   5.543   8.078
14302WAT     H143148   5.354   5.516   8.007
14302WAT     H243149   5.329   5.618   8.132
14303WAT      O43150   8.628   7.174   0.682
14303WAT     H143151   8.542   7.225   0.684
14303WAT     H243152   8.614   7.085   0.727
14304WAT      O43153   7.560   0.771   5.602
14304WAT     H143154   7.602   0.846   5.552
14304WAT     H243155   7.465   0.793   5.623
14305WAT      O43156   2.262   7.803   3.248
14305WAT     H143157   2.187   7.858   3.287
14305WAT     H243158   2.343   7.811   3.306
14306WAT      O43159   8.307   5.853   7.640
14306WAT     H143160   8.249   5.779   7.674
14306WAT     H243161   8.361   5.891   7.715
14307WAT      O43162   5.549   1.476   7.756
14307WAT     H143163   5.565   1.552   7.693
14307WAT     H243164   5.504   1.510   7.839
14308WAT      O43165   5.231   6.472   4.523
14308WAT     H143166   5.175   6.396   4.490
14308WAT     H243167   5.327   6.450   4.511
14309WAT      O43168   1.409   0.296   2.379
14309WAT     H143169   1.483   0.350   2.340
14309WAT     H243170   1.444   0.238   2.453
14310WAT      O43171   2.666   8.764   8.622
14310WAT     H143172   2.755   8.718   8.614
14310WAT     H243173   2.675   8.846   8.678
14311WAT      O43174   9.136   2.670   5.640
14311WAT     H143175   9.206   2.737   5.615
14311WAT     H243176   9.054   2.718   5.671
14312WAT      O43177   3.950   4.602   8.731
14312WAT     H143178   4.036   4.639   8.694
14312WAT     H243179   3.971   4.530   8.796
14313WAT      O43180   6.258   8.412   8.858
14313WAT     H143181   6.313   8.328   8.864
14313WAT     H243182   6.213   8.428   8.946
14314WAT      O43183   6.984   4.927   0.566
14314WAT     H143184   6.943   4.905   0.477
14314WAT     H243185   6.914   4.923   0.637
14315WAT      O43186   5.921   7.401   9.009
14315WAT     H143187   5.890   7.321   9.060
14315WAT     H243188   5.963   7.372   8.922
14316WAT      O43189   6.805   8.515   8.637
14316WAT     H143190   6.734   8.576   8.672
14316WAT     H243191   6.894   8.561   8.641
14317WAT      O43192   9.792   7.447   6.143
14317WAT     H143193   9.843   7.457   6.228
14317WAT     H243194   9.755   7.536   6.115
14318WAT      O43195   6.931   3.150   6.188
14318WAT     H143196   6.853   3.209   6.169
14318WAT     H243197   6.906   3.055   6.169
14319WAT      O43198   6.862   2.137   0.483
14319WAT     H143199   6.900   2.084   0.408
14319WAT     H243200   6.926   2.136   0.560
14320WAT      O43201   3.221   7.702   0.028
14320WAT     H143202   3.129   7.680   0.060
14320WAT     H243203   3.236   7.661  -0.062
14321WAT      O43204   0.325   2.202   3.402
14321WAT     H143205   0.304   2.143   3.325
14321WAT     H243206   0.254   2.194   3.471
14322WAT      O43207   4.797   4.931   9.555
14322WAT     H143208   4.779   5.021   9.594
14322WAT     H243209   4.844   4.941   9.467
14323WAT      O43210   7.994   2.768   2.366
14323WAT     H143211   7.959   2.837   2.303
14323WAT     H243212   8.075   2.723   2.327
14324WAT      O43213   4.567   7.883   2.572
14324WAT     H143214   4.645   7.890   2.634
14324WAT     H243215   4.543   7.974   2.538
14325WAT      O43216   5.314   0.757   3.780
14325WAT     H143217   5.396   0.759   3.836
14325WAT     H243218   5.328   0.810   3.697
14326WAT      O43219   8.636   4.558   8.980
14326WAT     H143220   8.653   4.466   8.944
14326WAT     H243221   8.646   4.625   8.906
14327WAT      O43222   0.548   8.526   1.436
14327WAT     H143223   0.607   8.506   1.515
14327WAT     H243224   0.568   8.617   1.401
14328WAT      O43225   0.327   1.524   4.391
14328WAT     H143226   0.298   1.556   4.300
14328WAT     H243227   0.251   1.477   4.435
14329WAT      O43228   6.523   1.990   2.658
14329WAT     H143229   6.545   1.997   2.561
14329WAT     H243230   6.425   2.004   2.672
14330WAT      O43231   7.534   1.995   4.038
14330WAT     H143232   7.609   1.957   4.093
14330WAT     H243233   7.503   1.927   3.972
14331WAT      O43234   8.847   5.007   7.410
14331WAT     H143235   8.874   5.103   7.410
14331WAT     H243236   8.770   4.994   7.349
14332WAT      O43237   1.228   4.727   3.467
14332WAT     H143238   1.214   4.628   3.467
14332WAT     H243239   1.203   4.763   3.557
14333WAT      O43240   1.050   5.997   3.429
14333WAT     H143241   0.951   6.008   3.437
14333WAT     H243242   1.088   6.076   3.381
14334WAT      O43243   8.360   8.749   2.300
14334WAT     H143244   8.306   8.777   2.221
14334WAT     H243245   8.332   8.658   2.329
14335WAT      O43246   8.201   2.053   5.208
14335WAT     H143247   8.267   1.980   5.191
14335WAT     H243248   8.115   2.032   5.160
14336WAT      O43249   1.669   2.085   7.609
14336WAT     H143250   1.728   2.162   7.583
14336WAT     H243251   1.574   2.114   7.608
14337WAT      O43252   7.285   5.591   0.737
14337WAT     H143253   7.206   5.591   0.677
14337WAT     H243254   7.282   5.513   0.799
14338WAT      O43255   8.209   1.020   4.858
14338WAT     H143256   8.291   0.986   4.904
14338WAT     H243257   8.156   0.943   4.823
14339WAT      O43258   7.086   9.277   2.516
14339WAT     H143259   7.080   9.193   2.462
14339WAT     H243260   7.133   9.257   2.602
14340WAT      O43261   6.932   1.051   4.022
14340WAT     H143262   6.967   0.959   4.040
14340WAT     H243263   7.008   1.112   3.999
14341WAT      O43264   4.498   8.790   8.299
14341WAT     H143265   4.401   8.782   8.274
14341WAT     H243266   4.545   8.705   8.275
14342WAT      O43267   0.185   6.573   1.036
14342WAT     H143268   0.164   6.606   1.128
14342WAT     H243269   0.284   6.578   1.021
14343WAT      O43270   0.185   3.977   0.289
14343WAT     H143271   0.223   4.067   0.310
14343WAT     H243272   0.094   3.988   0.248
14344WAT      O43273   0.372   4.766   1.645
14344WAT     H143274   0.300   4.833   1.660
14344WAT     H243275   0.448   4.809   1.597
14345WAT      O43276   1.470   6.993   3.534
14345WAT     H143277   1.493   7.031   3.445
14345WAT     H243278   1.466   6.893   3.528
14346WAT      O43279   6.388   0.116   6.443
14346WAT     H143280   6.473   0.159   6.414
14346WAT     H243281   6.346   0.171   6.515
14347WAT      O43282   0.592   2.956   8.933
14347WAT     H143283   0.523   3.019   8.896
14347WAT     H243284   0.631   2.902   8.858
14348WAT      O43285   0.444   3.498   4.935
14348WAT     H143286   0.386   3.432   4.983
14348WAT     H243287   0.518   3.528   4.995
14349WAT      O43288   5.641   7.424   8.429
14349WAT     H143289   5.729   7.471   8.439
14349WAT     H243290   5.583   7.443   8.508
14350WAT      O43291   6.370   2.826   6.543
14350WAT     H143292   6.315   2.890   6.489
14350WAT     H243293   6.434   2.778   6.483
14351WAT      O43294   6.051   0.588   5.277
14351WAT     H143295   6.136   0.574   5.327
14351WAT     H243296   5.974   0.580   5.340
14352WAT      O43297   2.685   1.714   5.508
14352WAT     H143298   2.682   1.614   5.520
14352WAT     H243299   2.755   1.737   5.441
14353WAT      O43300   0.378   2.382   5.235
14353WAT     H143301   0.352   2.429   5.151
14353WAT     H243302   0.301   2.380   5.298
14354WAT      O43303   2.058   7.361   2.791
14354WAT     H143304   1.977   7.378   2.735
14354WAT     H243305   2.042   7.394   2.884
14355WAT      O43306   9.454   7.183   7.551
14355WAT     H143307   9.377   7.134   7.591
14355WAT     H243308   9.423   7.271   7.517
14356WAT      O43309   6.047   3.391   7.556
14356WAT     H143310   5.996   3.305   7.563
14356WAT     H243311   6.088   3.397   7.465
14357WAT      O43312   9.266   7.626   8.028
14357WAT     H143313   9.354   7.659   8.063
14357WAT     H243314   9.275   7.608   7.930
14358WAT      O43315   1.905   3.259   1.424
14358WAT     H143316   1.939   3.318   1.498
14358WAT     H243317   1.976   3.248   1.355
14359WAT      O43318   6.010   9.025   8.489
14359WAT     H143319   5.932   8.974   8.453
14359WAT     H243320   6.000   9.122   8.467
14360WAT      O43321   5.287   9.598   6.177
14360WAT     H143322   5.245   9.535   6.242
14360WAT     H243323   5.375   9.561   6.146
14361WAT      O43324   6.513   4.945   5.309
14361WAT     H143325   6.468   5.019   5.359
14361WAT     H243326   6.581   4.982   5.246
14362WAT      O43327   2.104   0.525   7.072
14362WAT     H143328   2.135   0.532   6.977
14362WAT     H243329   2.004   0.531   7.074
14363WAT      O43330   8.686   2.083   5.115
14363WAT     H143331   8.766   2.143   5.118
14363WAT     H243332   8.638   2.095   5.028
14364WAT      O43333   9.071   9.009   8.029
14364WAT     H143334   9.040   9.068   8.104
14364WAT     H243335   9.032   8.917   8.040
14365WAT      O43336   2.831   3.611   1.132
14365WAT     H143337   2.887   3.679   1.179
14365WAT     H243338   2.862   3.601   1.038
14366WAT      O43339   3.732   3.019   6.461
14366WAT     H143340   3.794   2.993   6.386
14366WAT     H243341   3.767   2.982   6.547
14367WAT      O43342   8.337   5.182   2.426
14367WAT     H143343   8.400   5.125   2.479
14367WAT     H243344   8.274   5.228   2.488
14368WAT      O43345   8.800   5.855   6.961
14368WAT     H143346   8.855   5.900   7.031
14368WAT     H243347   8.706   5.843   6.994
14369WAT      O43348   4.310   1.389   1.426
14369WAT     H143349   4.388   1.343   1.385
14369WAT     H243350   4.305   1.483   1.392
14370WAT      O43351   7.745   4.198   4.009
14370WAT     H143352   7.770   4.206   4.105
14370WAT     H243353   7.679   4.124   3.998
14371WAT      O43354   7.793   7.148   5.104
14371WAT     H143355   7.720   7.196   5.057
14371WAT     H243356   7.781   7.157   5.203
14372WAT      O43357   6.202   4.807   4.102
14372WAT     H143358   6.182   4.726   4.046
14372WAT     H243359   6.136   4.813   4.176
14373WAT      O43360   4.556   6.886   8.953
14373WAT     H143361   4.623   6.859   8.884
14373WAT     H243362   4.573   6.836   9.038
14374WAT      O43363   7.765   8.838   1.069
14374WAT     H143364   7.699   8.768   1.097
14374WAT     H243365   7.735   8.928   1.102
14375WAT      O43366   2.257   0.796   0.247
14375WAT     H143367   2.277   0.794   0.149
14375WAT     H243368   2.337   0.828   0.297
14376WAT      O43369   1.012   5.581   1.028
14376WAT     H143370   0.931   5.636   1.011
14376WAT     H243371   1.055   5.611   1.113
14377WAT      O43372   9.813   1.591   2.995
14377WAT     H143373   9.733   1.574   2.938
14377WAT     H243374   9.883   1.638   2.941
14378WAT      O43375   4.141   5.985   5.735
14378WAT     H143376   4.214   6.029   5.788
14378WAT     H243377   4.151   5.885   5.742
14379WAT      O43378   1.755   2.015   9.134
14379WAT     H143379   1.821   1.993   9.207
14379WAT     H243380   1.662   2.000   9.168
14380WAT      O43381   0.064   8.200   6.598
14380WAT     H143382   0.073   8.267   6.524
14380WAT     H243383  -0.007   8.133   6.574
14381WAT      O43384   8.135   2.129   1.660
14381WAT     H143385   8.172   2.167   1.576
14381WAT     H243386   8.185   2.167   1.739
14382WAT      O43387   3.722   7.535   5.668
14382WAT     H143388   3.768   7.624   5.679
14382WAT     H243389   3.772   7.480   5.601
14383WAT      O43390   4.611   5.900   4.145
14383WAT     H143391   4.582   5.987   4.184
14383WAT     H243392   4.547   5.874   4.072
14384WAT      O43393   8.501   0.945   1.851
14384WAT     H143394   8.416   0.924   1.899
14384WAT     H243395   8.488   1.025   1.793
14385WAT      O43396   7.143   6.157   7.378
14385WAT     H143397   7.086   6.187   7.455
14385WAT     H243398   7.093   6.089   7.325
14386WAT      O43399   1.030   6.707   8.760
14386WAT     H143400   1.059   6.747   8.673
14386WAT     H243401   1.035   6.777   8.832
14387WAT      O43402   5.030   0.808   2.405
14387WAT     H143403   4.932   0.826   2.401
14387WAT     H243404   5.047   0.710   2.395
14388WAT      O43405   6.621   0.017   5.240
14388WAT     H143406   6.561   0.077   5.293
14388WAT     H243407   6.651  -0.059   5.298
14389WAT      O43408   7.695   0.136   0.035
14389WAT     H143409   7.740   0.136   0.124
14389WAT     H243410   7.606   0.183   0.043
14390WAT      O43411   9.828   4.113   4.484
14390WAT     H143412   9.835   4.021   4.446
14390WAT     H243413   9.910   4.166   4.460
14391WAT      O43414   6.548   1.871   4.130
14391WAT     H143415   6.528   1.968   4.115
14391WAT     H243416   6.595   1.834   4.050
14392WAT      O43417   0.040   2.928   4.590
14392WAT     H143418  -0.030   2.962   4.653
14392WAT     H243419   0.009   2.842   4.549
14393WAT      O43420   8.221   4.849   1.881
14393WAT     H143421   8.311   4.891   1.892
14393WAT     H243422   8.161   4.910   1.831
14394WAT      O43423   2.643   2.290   7.871
14394WAT     H143424   2.604   2.237   7.795
14394WAT     H243425   2.581   2.365   7.893
14395WAT      O43426   6.406   4.198   6.165
14395WAT     H143427   6.456   4.115   6.190
14395WAT     H243428   6.308   4.184   6.182
14396WAT      O43429   0.122   4.132   6.689
14396WAT     H143430   0.121   4.202   6.761
14396WAT     H243431   0.196   4.151   6.625
14397WAT      O43432   4.426   3.711   7.684
14397WAT     H143433   4.395   3.798   7.720
14397WAT     H243434   4.388   3.636   7.738
14398WAT      O43435   5.958   7.775   2.717
14398WAT     H143436   6.048   7.745   2.746
14398WAT     H243437   5.920   7.839   2.783
14399WAT      O43438   6.839   7.733   1.602
14399WAT     H143439   6.825   7.827   1.632
14399WAT     H243440   6.787   7.671   1.661
14400WAT      O43441   1.736   1.919   5.619
14400WAT     H143442   1.801   1.962   5.682
14400WAT     H243443   1.760   1.823   5.606
14401WAT      O43444   7.417   0.438   0.130
14401WAT     H143445   7.443   0.529   0.098
14401WAT     H243446   7.460   0.420   0.218
14402WAT      O43447   2.394   3.121   2.666
14402WAT     H143448   2.311   3.176   2.658
14402WAT     H243449   2.405   3.091   2.760
14403WAT      O43450   6.331   6.258   4.208
14403WAT     H143451   6.362   6.184   4.267
14403WAT     H243452   6.400   6.276   4.138
14404WAT      O43453   8.045   1.424   8.347
14404WAT     H143454   7.969   1.486   8.364
14404WAT     H243455   8.124   1.453   8.402
14405WAT      O43456   5.395   6.755   2.731
14405WAT     H143457   5.307   6.791   2.764
14405WAT     H243458   5.433   6.817   2.663
14406WAT      O43459   3.287   1.085   9.731
14406WAT     H143460   3.339   1.026   9.793
14406WAT     H243461   3.323   1.178   9.737
14407WAT      O43462   0.416   0.404   7.509
14407WAT     H143463   0.443   0.339   7.438
14407WAT     H243464   0.361   0.358   7.578
14408WAT      O43465   8.795   7.509   6.912
14408WAT     H143466   8.754   7.560   6.988
14408WAT     H243467   8.851   7.435   6.948
14409WAT      O43468   6.806   1.338   0.485
14409WAT     H143469   6.839   1.358   0.577
14409WAT     H243470   6.745   1.259   0.487
14410WAT      O43471   0.889   2.319   1.053
14410WAT     H143472   0.860   2.348   0.962
14410WAT     H243473   0.848   2.378   1.122
14411WAT      O43474   7.685   9.063   0.851
14411WAT     H143475   7.629   8.996   0.899
14411WAT     H243476   7.669   9.055   0.753
14412WAT      O43477   7.542   7.888   9.092
14412WAT     H143478   7.494   7.864   9.176
14412WAT     H243479   7.499   7.968   9.050
14413WAT      O43480   8.547   8.935   8.394
14413WAT     H143481   8.626   8.873   8.401
14413WAT     H243482   8.513   8.955   8.486
14414WAT      O43483   7.482   9.567   5.792
14414WAT     H143484   7.546   9.533   5.723
14414WAT     H243485   7.503   9.526   5.881
14415WAT      O43486   2.691   8.464   4.933
14415WAT     H143487   2.609   8.412   4.908
14415WAT     H243488   2.668   8.530   5.005
14416WAT      O43489   9.122   8.349   1.591
14416WAT     H143490   9.201   8.309   1.545
14416WAT     H243491   9.142   8.360   1.689
14417WAT      O43492   9.144   0.573   1.384
14417WAT     H143493   9.170   0.599   1.477
14417WAT     H243494   9.224   0.579   1.325
14418WAT      O43495   1.507   7.792   1.213
14418WAT     H143496   1.538   7.867   1.272
14418WAT     H243497   1.558   7.792   1.128
14419WAT      O43498   7.261   5.278   5.197
14419WAT     H143499   7.361   5.276   5.191
14419WAT     H243500   7.228   5.191   5.234
14420WAT      O43501   2.262   3.515   8.976
14420WAT     H143502   2.345   3.515   8.920
14420WAT     H243503   2.261   3.435   9.035
14421WAT      O43504   0.593   7.635   2.286
14421WAT     H143505   0.640   7.699   2.224
14421WAT     H243506   0.556   7.686   2.364
14422WAT      O43507   2.482   9.365   7.860
14422WAT     H143508   2.412   9.397   7.923
14422WAT     H243509   2.499   9.437   7.792
14423WAT      O43510   0.842   8.716   8.731
14423WAT     H143511   0.940   8.737   8.726
14423WAT     H243512   0.800   8.731   8.642
14424WAT      O43513   2.142   1.321   2.462
14424WAT     H143514   2.087   1.402   2.441
14424WAT     H243515   2.156   1.268   2.379
14425WAT      O43516   6.456   1.367   3.153
14425WAT     H143517   6.362   1.339   3.136
14425WAT     H243518   6.470   1.460   3.117
14426WAT      O43519   9.762   5.490   3.749
14426WAT     H143520   9.791   5.585   3.737
14426WAT     H243521   9.808   5.433   3.681
14427WAT      O43522   8.331   3.536   8.257
14427WAT     H143523   8.347   3.451   8.206
14427WAT     H243524   8.234   3.543   8.281
14428WAT      O43525   3.318   1.415   1.406
14428WAT     H143526   3.317   1.329   1.354
14428WAT     H243527   3.406   1.460   1.395
14429WAT      O43528   1.678   2.986   9.889
14429WAT     H143529   1.606   2.943   9.834
14429WAT     H243530   1.658   2.973   9.986
14430WAT      O43531   3.633   7.571   4.842
14430WAT     H143532   3.641   7.623   4.927
14430WAT     H243533   3.724   7.544   4.811
14431WAT      O43534   3.726   1.027   2.122
14431WAT     H143535   3.628   1.036   2.135
14431WAT     H243536   3.756   1.093   2.053
14432WAT      O43537   0.253   3.125   6.569
14432WAT     H143538   0.311   3.043   6.566
14432WAT     H243539   0.278   3.180   6.649
14433WAT      O43540   1.472   7.457   7.492
14433WAT     H143541   1.500   7.390   7.423
14433WAT     H243542   1.504   7.428   7.582
14434WAT      O43543   2.164   2.115   1.445
14434WAT     H143544   2.095   2.187   1.443
14434WAT     H243545   2.120   2.026   1.440
14435WAT      O43546   1.679   6.049   6.939
14435WAT     H143547   1.618   6.128   6.934
14435WAT     H243548   1.765   6.070   6.893
14436WAT      O43549   8.615   1.740   8.284
14436WAT     H143550   8.546   1.738   8.356
14436WAT     H243551   8.706   1.730   8.325
14437WAT      O43552   9.520   0.931   3.450
14437WAT     H143553   9.475   1.019   3.431
14437WAT     H243554   9.461   0.875   3.508
14438WAT      O43555   7.413   8.635   3.320
14438WAT     H143556   7.470   8.588   3.386
14438WAT     H243557   7.470   8.676   3.249
14439WAT      O43558   0.486   6.751   0.333
14439WAT     H143559   0.524   6.759   0.241
14439WAT     H243560   0.560   6.733   0.398
14440WAT      O43561   2.582   8.138   7.804
14440WAT     H143562   2.625   8.210   7.858
14440WAT     H243563   2.494   8.114   7.845
14441WAT      O43564   2.571   8.057   0.957
14441WAT     H143565   2.641   7.994   0.988
14441WAT     H243566   2.580   8.144   1.006
14442WAT      O43567   1.661   9.300   5.407
14442WAT     H143568   1.636   9.289   5.503
14442WAT     H243569   1.760   9.317   5.400
14443WAT      O43570   5.419   4.202   7.546
14443WAT     H143571   5.506   4.194   7.594
14443WAT     H243572   5.429   4.167   7.453
14444WAT      O43573   4.522   1.957   1.723
14444WAT     H143574   4.560   2.031   1.668
14444WAT     H243575   4.445   1.990   1.776
14445WAT      O43576   7.449   2.556   7.219
14445WAT     H143577   7.360   2.554   7.263
14445WAT     H243578   7.481   2.651   7.212
14446WAT      O43579   0.415   3.202   1.406
14446WAT     H143580   0.407   3.297   1.374
14446WAT     H243581   0.492   3.157   1.361
14447WAT      O43582   8.851   8.490   7.517
14447WAT     H143583   8.924   8.448   7.464
14447WAT     H243584   8.797   8.419   7.562
14448WAT      O43585   6.642   0.191   6.403
14448WAT     H143586   6.716   0.254   6.430
14448WAT     H243587   6.668   0.142   6.321
14449WAT      O43588   2.302   2.590   6.844
14449WAT     H143589   2.390   2.559   6.810
14449WAT     H243590   2.232   2.520   6.826
14450WAT      O43591   8.039   9.675   2.198
14450WAT     H143592   7.988   9.591   2.180
14450WAT     H243593   8.136   9.653   2.208
14451WAT      O43594   0.418   5.266   7.657
14451WAT     H143595   0.395   5.195   7.590
14451WAT     H243596   0.513   5.294   7.644
14452WAT      O43597   1.368   8.682   0.336
14452WAT     H143598   1.387   8.734   0.419
14452WAT     H243599   1.336   8.590   0.361
14453WAT      O43600   2.642   8.590   1.380
14453WAT     H143601   2.580   8.515   1.403
14453WAT     H243602   2.589   8.670   1.354
14454WAT      O43603   8.328   2.130   8.446
14454WAT     H143604   8.384   2.183   8.383
14454WAT     H243605   8.333   2.170   8.537
14455WAT      O43606   2.769   1.808   0.444
14455WAT     H143607   2.708   1.880   0.410
14455WAT     H243608   2.776   1.736   0.375
14456WAT      O43609   8.762   9.717   3.806
14456WAT     H143610   8.767   9.641   3.870
14456WAT     H243611   8.699   9.694   3.732
14457WAT      O43612   1.704   6.906   3.104
14457WAT     H143613   1.788   6.961   3.107
14457WAT     H243614   1.658   6.921   3.016
14458WAT      O43615   9.868   4.400   0.952
14458WAT     H143616   9.868   4.416   1.050
14458WAT     H243617   9.957   4.426   0.914
14459WAT      O43618   7.398   9.731   0.807
14459WAT     H143619   7.391   9.831   0.801
14459WAT     H243620   7.436   9.695   0.722
14460WAT      O43621   3.615   5.852   2.204
14460WAT     H143622   3.588   5.896   2.119
14460WAT     H243623   3.711   5.873   2.224
14461WAT      O43624   6.990   3.570   5.637
14461WAT     H143625   6.938   3.645   5.596
14461WAT     H243626   6.971   3.486   5.587
14462WAT      O43627   2.200   1.539   3.513
14462WAT     H143628   2.183   1.518   3.416
14462WAT     H243629   2.264   1.616   3.520
14463WAT      O43630   9.794   1.621   2.375
14463WAT     H143631   9.745   1.644   2.290
14463WAT     H243632   9.878   1.572   2.353
14464WAT      O43633   9.189   1.489   9.550
14464WAT     H143634   9.260   1.463   9.615
14464WAT     H243635   9.100   1.461   9.585
14465WAT      O43636   0.867   5.907   1.958
14465WAT     H143637   0.845   5.836   1.891
14465WAT     H243638   0.901   5.988   1.911
14466WAT      O43639   9.336   4.209   5.650
14466WAT     H143640   9.257   4.149   5.637
14466WAT     H243641   9.339   4.276   5.575
14467WAT      O43642   4.651   5.431   0.792
14467WAT     H143643   4.671   5.528   0.778
14467WAT     H243644   4.702   5.397   0.871
14468WAT      O43645   4.931   1.187   2.290
14468WAT     H143646   4.841   1.182   2.246
14468WAT     H243647   4.923   1.163   2.386
14469WAT      O43648   7.246   3.101   3.856
14469WAT     H143649   7.244   3.169   3.930
14469WAT     H243650   7.234   3.010   3.893
14470WAT      O43651   6.852   8.933   1.835
14470WAT     H143652   6.797   8.937   1.752
14470WAT     H243653   6.940   8.977   1.819
14471WAT      O43654   8.997   2.336   2.271
14471WAT     H143655   8.990   2.305   2.177
14471WAT     H243656   8.946   2.421   2.282
14472WAT      O43657   6.549   2.749   3.827
14472WAT     H143658   6.624   2.814   3.835
14472WAT     H243659   6.465   2.789   3.864
14473WAT      O43660   4.912   6.620   2.415
14473WAT     H143661   4.913   6.525   2.446
14473WAT     H243662   4.826   6.640   2.370
14474WAT      O43663   7.261   0.576   1.038
14474WAT     H143664   7.192   0.523   1.087
14474WAT     H243665   7.215   0.646   0.983
14475WAT      O43666   3.290   5.285   2.700
14475WAT     H143667   3.352   5.210   2.682
14475WAT     H243668   3.274   5.337   2.616
14476WAT      O43669   0.747   2.498   1.222
14476WAT     H143670   0.811   2.568   1.190
14476WAT     H243671   0.721   2.517   1.317
14477WAT      O43672   1.716   4.437   3.496
14477WAT     H143673   1.784   4.366   3.483
14477WAT     H243674   1.746   4.499   3.569
14478WAT      O43675   4.324   2.143   8.564
14478WAT     H143676   4.319   2.094   8.478
14478WAT     H243677   4.235   2.140   8.610
14479WAT      O43678   6.952   8.201   3.703
14479WAT     H143679   7.049   8.207   3.726
14479WAT     H243680   6.941   8.200   3.604
14480WAT      O43681   1.765   0.013   8.006
14480WAT     H143682   1.781   0.111   8.012
14480WAT     H243683   1.853  -0.034   7.995
14481WAT      O43684   7.974   0.050   7.045
14481WAT     H143685   7.879   0.018   7.047
14481WAT     H243686   8.035  -0.027   7.034
14482WAT      O43687   9.863   5.126   8.520
14482WAT     H143688   9.950   5.102   8.564
14482WAT     H243689   9.863   5.223   8.498
14483WAT      O43690   5.991   4.791   5.149
14483WAT     H143691   6.066   4.821   5.090
14483WAT     H243692   5.912   4.849   5.134
14484WAT      O43693   4.371   5.528   1.947
14484WAT     H143694   4.301   5.565   2.008
14484WAT     H243695   4.339   5.533   1.852
14485WAT      O43696   5.004   4.275   9.276
14485WAT     H143697   5.040   4.354   9.324
14485WAT     H243698   4.980   4.204   9.342
14486WAT      O43699   0.972   8.939   1.524
14486WAT     H143700   0.954   8.876   1.449
14486WAT     H243701   1.034   8.896   1.590
14487WAT      O43702   4.391   5.151   1.750
14487WAT     H143703   4.374   5.064   1.703
14487WAT     H243704   4.384   5.137   1.849
14488WAT      O43705   7.011   3.176   7.901
14488WAT     H143706   7.052   3.209   7.986
14488WAT     H243707   6.916   3.150   7.918
14489WAT      O43708   4.594   1.210   7.154
14489WAT     H143709   4.573   1.252   7.065
14489WAT     H243710   4.615   1.113   7.141
14490WAT      O43711   3.657   7.285   4.624
14490WAT     H143712   3.686   7.343   4.547
14490WAT     H243713   3.685   7.329   4.710
14491WAT      O43714   3.133   0.709   9.106
14491WAT     H143715   3.157   0.614   9.088
14491WAT     H243716   3.044   0.730   9.065
14492WAT      O43717   6.068   3.750   0.154
14492WAT     H143718   6.069   3.832   0.210
14492WAT     H243719   6.020   3.769   0.068
14493WAT      O43720   5.660   2.447   8.585
14493WAT     H143721   5.589   2.495   8.534
14493WAT     H243722   5.729   2.512   8.616
14494WAT      O43723   8.023   1.254   7.745
14494WAT     H143724   8.026   1.176   7.683
14494WAT     H243725   8.108   1.306   7.739
14495WAT      O43726   6.274   0.102   4.242
14495WAT     H143727   6.264   0.201   4.245
14495WAT     H243728   6.282   0.066   4.335
14496WAT      O43729   6.559   2.247   1.097
14496WAT     H143730   6.571   2.204   1.187
14496WAT     H243731   6.564   2.347   1.108
14497WAT      O43732   0.498   3.636   1.816
14497WAT     H143733   0.531   3.657   1.724
14497WAT     H243734   0.511   3.539   1.835
14498WAT      O43735   9.878   3.066   8.135
14498WAT     H143736   9.840   3.154   8.163
14498WAT     H243737   9.804   3.009   8.098
14499WAT      O43738   9.767   9.774   0.776
14499WAT     H143739   9.801   9.853   0.828
14499WAT     H243740   9.747   9.802   0.682
14500WAT      O43741   6.494   2.146   4.110
14500WAT     H143742   6.419   2.189   4.160
14500WAT     H243743   6.522   2.206   4.035
14501WAT      O43744   1.479   8.992   5.072
14501WAT     H143745   1.461   9.075   5.019
14501WAT     H243746   1.553   8.941   5.028
14502WAT      O43747   8.421   8.526   0.525
14502WAT     H143748   8.491   8.462   0.555
14502WAT     H243749   8.331   8.483   0.532
14503WAT      O43750   9.642   8.813   2.994
14503WAT     H143751   9.657   8.715   3.006
14503WAT     H243752   9.565   8.842   3.050
14504WAT      O43753   6.475   0.599   3.672
14504WAT     H143754   6.526   0.599   3.587
14504WAT     H243755   6.377   0.590   3.653
14505WAT      O43756   7.288   7.030   1.353
14505WAT     H143757   7.337   7.046   1.439
14505WAT     H243758   7.312   6.940   1.317
14506WAT      O43759   6.754   6.146   4.350
14506WAT     H143760   6.786   6.227   4.300
14506WAT     H243761   6.831   6.107   4.401
14507WAT      O43762   0.436   7.502   7.813
14507WAT     H143763   0.361   7.527   7.875
14507WAT     H243764   0.521   7.495   7.866
14508WAT      O43765   3.872   2.310   2.860
14508WAT     H143766   3.845   2.214   2.866
14508WAT     H243767   3.934   2.323   2.783
14509WAT      O43768   7.690   1.520   2.574
14509WAT     H143769   7.722   1.584   2.644
14509WAT     H243770   7.600   1.548   2.541
14510WAT      O43771   6.444   2.899   8.887
14510WAT     H143772   6.368   2.922   8.947
14510WAT     H243773   6.465   2.802   8.895
14511WAT      O43774   8.260   4.701   5.541
14511WAT     H143775   8.196   4.695   5.465
14511WAT     H243776   8.323   4.623   5.538
14512WAT      O43777   7.402   3.693   7.581
14512WAT     H143778   7.440   3.635   7.653
14512WAT     H243779   7.310   3.723   7.607
14513WAT      O43780   8.515   7.522   2.656
14513WAT     H143781   8.417   7.539   2.655
14513WAT     H243782   8.535   7.438   2.606
14514WAT      O43783   5.483   3.614   9.835
14514WAT     H143784   5.447   3.706   9.847
14514WAT     H243785   5.423   3.548   9.882
14515WAT      O43786   9.278   4.869   1.538
14515WAT     H143787   9.367   4.830   1.517
14515WAT     H243788   9.283   4.969   1.531
14516WAT      O43789   0.860   5.760   7.052
14516WAT     H143790   0.826   5.731   7.141
14516WAT     H243791   0.783   5.783   6.993
14517WAT      O43792   3.999   9.391   1.302
14517WAT     H143793   3.917   9.335   1.291
14517WAT     H243794   4.046   9.365   1.386
14518WAT      O43795   5.298   1.899   6.374
14518WAT     H143796   5.213   1.952   6.365
14518WAT     H243797   5.276   1.802   6.381
14519WAT      O43798   9.058   0.289   5.411
14519WAT     H143799   8.992   0.361   5.391
14519WAT     H243800   9.023   0.231   5.484
14520WAT      O43801   5.532   0.102   8.172
14520WAT     H143802   5.436   0.077   8.183
14520WAT     H243803   5.576   0.106   8.262
14521WAT      O43804   0.044   6.529   4.941
14521WAT     H143805   0.007   6.510   5.032
14521WAT     H243806   0.096   6.615   4.944
14522WAT      O43807   3.830   2.969   1.549
14522WAT     H143808   3.923   2.937   1.528
14522WAT     H243809   3.833   3.022   1.634
14523WAT      O43810   7.987   7.781   4.124
14523WAT     H143811   7.960   7.877   4.134
14523WAT     H243812   7.930   7.737   4.054
14524WAT      O43813   7.768   0.667   8.414
14524WAT     H143814   7.697   0.729   8.446
14524WAT     H243815   7.856   0.714   8.413
14525WAT      O43816   5.694   7.262   1.065
14525WAT     H143817   5.747   7.347   1.068
14525WAT     H243818   5.723   7.203   1.141
14526WAT      O43819   5.329   6.475   2.053
14526WAT     H143820   5.372   6.385   2.041
14526WAT     H243821   5.230   6.465   2.046
14527WAT      O43822   7.397   3.323   0.493
14527WAT     H143823   7.403   3.274   0.406
14527WAT     H243824   7.458   3.402   0.491
14528WAT      O43825   1.579   0.490   1.616
14528WAT     H143826   1.625   0.564   1.664
14528WAT     H243827   1.604   0.492   1.519
14529WAT      O43828   4.107   1.524   9.130
14529WAT     H143829   4.171   1.595   9.100
14529WAT     H243830   4.052   1.494   9.053
14530WAT      O43831   0.967   5.775   5.581
14530WAT     H143832   0.964   5.862   5.532
14530WAT     H243833   1.024   5.710   5.532
14531WAT      O43834   3.085   1.894   4.497
14531WAT     H143835   3.088   1.992   4.474
14531WAT     H243836   3.110   1.881   4.593
14532WAT      O43837   2.226   5.481   0.980
14532WAT     H143838   2.296   5.475   0.908
14532WAT     H243839   2.271   5.491   1.069
14533WAT      O43840   2.898   6.030   6.367
14533WAT     H143841   2.915   6.125   6.392
14533WAT     H243842   2.800   6.014   6.360
14534WAT      O43843   3.761   8.862   8.281
14534WAT     H143844   3.842   8.920   8.291
14534WAT     H243845   3.788   8.766   8.280
14535WAT      O43846   2.041   3.475   5.959
14535WAT     H143847   2.019   3.568   5.990
14535WAT     H243848   1.958   3.430   5.928
14536WAT      O43849   8.844   0.183   1.690
14536WAT     H143850   8.821   0.173   1.787
14536WAT     H243851   8.831   0.279   1.662
14537WAT      O43852   5.306   9.396   8.199
14537WAT     H143853   5.235   9.377   8.267
14537WAT     H243854   5.396   9.382   8.239
14538WAT      O43855   7.495   4.877   3.236
14538WAT     H143856   7.517   4.934   3.316
14538WAT     H243857   7.439   4.800   3.266
14539WAT      O43858   6.620   2.817   5.447
14539WAT     H143859   6.664   2.801   5.358
14539WAT     H243860   6.632   2.736   5.505
14540WAT      O43861   2.073   3.974   3.679
14540WAT     H143862   2.072   4.050   3.744
14540WAT     H243863   2.009   3.903   3.709
14541WAT      O43864   3.334   1.273   3.322
14541WAT     H143865   3.402   1.236   3.258
14541WAT     H243866   3.353   1.240   3.414
14542WAT      O43867   5.555   1.621   2.804
14542WAT     H143868   5.596   1.544   2.852
14542WAT     H243869   5.486   1.664   2.862
14543WAT      O43870   2.133   0.543   4.145
14543WAT     H143871   2.104   0.456   4.185
14543WAT     H243872   2.232   0.555   4.159
14544WAT      O43873   7.084   1.948   6.911
14544WAT     H143874   7.054   1.907   6.997
14544WAT     H243875   7.073   2.047   6.915
14545WAT      O43876   3.742   0.112   6.011
14545WAT     H143877   3.797   0.102   6.094
14545WAT     H243878   3.778   0.052   5.940
14546WAT      O43879   0.759   3.689   8.449
14546WAT     H143880   0.822   3.708   8.373
14546WAT     H243881   0.671   3.659   8.412
14547WAT      O43882   2.055   1.419   2.056
14547WAT     H143883   2.019   1.363   1.981
14547WAT     H243884   2.153   1.402   2.067
14548WAT      O43885   5.274   5.234   2.400
14548WAT     H143886   5.260   5.252   2.498
14548WAT     H243887   5.296   5.319   2.353
14549WAT      O43888   8.152   7.139   7.227
14549WAT     H143889   8.247   7.139   7.260
14549WAT     H243890   8.152   7.151   7.127
14550WAT      O43891   0.253   0.452   0.166
14550WAT     H143892   0.325   0.499   0.218
14550WAT     H243893   0.274   0.457   0.068
14551WAT      O43894   5.065   2.294   6.053
14551WAT     H143895   5.130   2.288   6.129
14551WAT     H243896   5.114   2.277   5.967
14552WAT      O43897   8.747   4.141   3.836
14552WAT     H143898   8.805   4.096   3.904
14552WAT     H243899   8.669   4.183   3.881
14553WAT      O43900   3.969   1.788   8.043
14553WAT     H143901   3.962   1.688   8.046
14553WAT     H243902   4.032   1.819   8.114
14554WAT      O43903   2.119   7.408   2.068
14554WAT     H143904   2.180   7.487   2.057
14554WAT     H243905   2.139   7.362   2.154
14555WAT      O43906   6.009   1.387   9.886
14555WAT     H143907   6.007   1.292   9.855
14555WAT     H243908   5.925   1.433   9.857
14556WAT      O43909   3.558   1.622   6.644
14556WAT     H143910   3.579   1.698   6.583
14556WAT     H243911   3.631   1.554   6.638
14557WAT      O43912   2.624   3.962   1.398
14557WAT     H143913   2.608   3.863   1.403
14557WAT     H243914   2.537   4.010   1.413
14558WAT      O43915   4.097   9.133   3.066
14558WAT     H143916   4.004   9.100   3.051
14558WAT     H243917   4.152   9.114   2.985
14559WAT      O43918   4.216   6.143   0.296
14559WAT     H143919   4.242   6.076   0.226
14559WAT     H243920   4.268   6.227   0.282
14560WAT      O43921   5.084   7.643   1.275
14560WAT     H143922   5.125   7.634   1.184
14560WAT     H243923   5.156   7.656   1.343
14561WAT      O43924   4.186   3.402   2.438
14561WAT     H143925   4.115   3.449   2.491
14561WAT     H243926   4.213   3.319   2.486
14562WAT      O43927   8.856   5.180   8.096
14562WAT     H143928   8.923   5.205   8.025
14562WAT     H243929   8.812   5.094   8.071
14563WAT      O43930   9.830   0.784   7.319
14563WAT     H143931   9.846   0.881   7.298
14563WAT     H243932   9.916   0.733   7.307
14564WAT      O43933   2.391   5.177   1.473
14564WAT     H143934   2.473   5.228   1.447
14564WAT     H243935   2.399   5.148   1.569
14565WAT      O43936   8.113   8.090   4.700
14565WAT     H143937   8.054   8.116   4.624
14565WAT     H243938   8.085   8.138   4.783
14566WAT      O43939   7.032   3.469   2.070
14566WAT     H143940   6.940   3.508   2.076
14566WAT     H243941   7.031   3.392   2.006
14567WAT      O43942   1.660   5.656   6.486
14567WAT     H143943   1.625   5.588   6.422
14567WAT     H243944   1.690   5.610   6.570
14568WAT      O43945   0.592   6.997   6.290
14568WAT     H143946   0.669   7.059   6.307
14568WAT     H243947   0.577   6.990   6.192
14569WAT      O43948   3.345   0.743   5.699
14569WAT     H143949   3.299   0.817   5.748
14569WAT     H243950   3.433   0.724   5.742
14570WAT      O43951   4.156   8.855   3.231
14570WAT     H143952   4.177   8.772   3.282
14570WAT     H243953   4.238   8.913   3.228
14571WAT      O43954   4.075   6.682   0.384
14571WAT     H143955   3.983   6.665   0.346
14571WAT     H243956   4.095   6.614   0.454
14572WAT      O43957   7.582   0.664   0.102
14572WAT     H143958   7.664   0.612   0.127
14572WAT     H243959   7.576   0.746   0.158
14573WAT      O43960   8.291   6.640   5.869
14573WAT     H143961   8.390   6.629   5.873
14573WAT     H243962   8.269   6.724   5.820
14574WAT      O43963   0.116   2.948   3.268
14574WAT     H143964   0.197   2.980   3.220
14574WAT     H243965   0.121   2.973   3.364
14575WAT      O43966   5.018   3.156   9.457
14575WAT     H143967   5.064   3.098   9.389
14575WAT     H243968   5.087   3.200   9.514
14576WAT      O43969   6.283   0.243   0.064
14576WAT     H143970   6.199   0.207   0.105
14576WAT     H243971   6.309   0.328   0.110
14577WAT      O43972   7.360   6.920   3.281
14577WAT     H143973   7.437   6.864   3.314
14577WAT     H243974   7.280   6.862   3.270
14578WAT      O43975   4.924   1.796   3.067
14578WAT     H143976   4.861   1.866   3.035
14578WAT     H243977   4.981   1.833   3.140
14579WAT      O43978   7.008   4.809   9.236
14579WAT     H143979   7.061   4.724   9.239
14579WAT     H243980   6.941   4.804   9.162
14580WAT      O43981   7.514   7.704   3.052
14580WAT     H143982   7.500   7.717   3.150
14580WAT     H243983   7.612   7.696   3.033
14581WAT      O43984   5.020   3.609   8.037
14581WAT     H143985   5.024   3.688   8.099
14581WAT     H243986   5.041   3.639   7.944
14582WAT      O43987   3.341   2.998   2.749
14582WAT     H143988   3.374   3.085   2.714
14582WAT     H243989   3.247   2.982   2.717
14583WAT      O43990   6.298   4.699   8.106
14583WAT     H143991   6.282   4.778   8.165
14583WAT     H243992   6.243   4.709   8.023
14584WAT      O43993   2.582   7.803   2.943
14584WAT     H143994   2.655   7.859   2.904
14584WAT     H243995   2.495   7.850   2.935
14585WAT      O43996   7.322   4.106   5.273
14585WAT     H143997   7.307   4.124   5.370
14585WAT     H243998   7.271   4.173   5.218
14586WAT      O43999   4.966   2.850   6.084
14586WAT     H144000   4.969   2.753   6.107
14586WAT     H244001   4.876   2.873   6.047
14587WAT      O44002   6.823   7.120   9.110
14587WAT     H144003   6.894   7.167   9.058
14587WAT     H244004   6.831   7.144   9.207
14588WAT      O44005   9.659   4.526   1.651
14588WAT     H144006   9.693   4.443   1.694
14588WAT     H244007   9.708   4.541   1.565
14589WAT      O44008   6.202   2.734   4.276
14589WAT     H144009   6.185   2.812   4.215
14589WAT     H244010   6.217   2.652   4.222
14590WAT      O44011   9.105   5.235   9.411
14590WAT     H144012   9.092   5.180   9.493
14590WAT     H244013   9.160   5.185   9.345
14591WAT      O44014   9.686   2.390   3.401
14591WAT     H144015   9.770   2.385   3.348
14591WAT     H244016   9.646   2.299   3.410
14592WAT      O44017   5.800   4.891   8.108
14592WAT     H144018   5.756   4.853   8.027
14592WAT     H244019   5.842   4.816   8.161
14593WAT      O44020   9.462   3.001   1.330
14593WAT     H144021   9.407   3.060   1.270
14593WAT     H244022   9.424   3.004   1.423
14594WAT      O44023   6.132   6.599   3.579
14594WAT     H144024   6.061   6.529   3.582
14594WAT     H244025   6.186   6.595   3.663
14595WAT      O44026   5.850   8.257   4.896
14595WAT     H144027   5.873   8.166   4.931
14595WAT     H244028   5.898   8.327   4.949
14596WAT      O44029   6.535   6.901   7.870
14596WAT     H144030   6.527   6.813   7.917
14596WAT     H244031   6.491   6.895   7.780
14597WAT      O44032   0.264   0.332   6.409
14597WAT     H144033   0.289   0.238   6.388
14597WAT     H244034   0.226   0.375   6.327
14598WAT      O44035   3.782   3.414   0.740
14598WAT     H144036   3.786   3.327   0.691
14598WAT     H244037   3.874   3.452   0.749
14599WAT      O44038   9.256   5.450   8.022
14599WAT     H144039   9.198   5.425   7.944
14599WAT     H244040   9.325   5.378   8.036
14600WAT      O44041   2.281   5.083   6.297
14600WAT     H144042   2.236   5.028   6.227
14600WAT     H244043   2.246   5.059   6.387
14601WAT      O44044   0.389   5.367   8.684
14601WAT     H144045   0.359   5.329   8.597
14601WAT     H244046   0.329   5.334   8.757
14602WAT      O44047   6.677   2.000   9.534
14602WAT     H144048   6.704   2.095   9.553
14602WAT     H244049   6.637   1.960   9.617
14603WAT      O44050   0.841   7.452   5.281
14603WAT     H144051   0.896   7.481   5.360
14603WAT     H244052   0.901   7.429   5.205
14604WAT      O44053   7.042   7.605   6.770
14604WAT     H144054   6.992   7.686   6.802
14604WAT     H244055   7.127   7.597   6.822
14605WAT      O44056   4.577   0.560   2.870
14605WAT     H144057   4.628   0.496   2.928
14605WAT     H244058   4.516   0.509   2.809
14606WAT      O44059   2.433   1.812   5.526
14606WAT     H144060   2.533   1.805   5.519
14606WAT     H244061   2.406   1.907   5.513
14607WAT      O44062   4.408   1.815   0.747
14607WAT     H144063   4.368   1.819   0.655
14607WAT     H244064   4.478   1.885   0.757
14608WAT      O44065   8.165   2.246   8.675
14608WAT     H144066   8.249   2.295   8.652
14608WAT     H244067   8.091   2.277   8.615
14609WAT      O44068   4.795   6.874   8.164
14609WAT     H144069   4.725   6.861   8.235
14609WAT     H244070   4.871   6.812   8.180
14610WAT      O44071   2.407   7.093   5.402
14610WAT     H144072   2.407   7.139   5.314
14610WAT     H244073   2.479   7.025   5.405
14611WAT      O44074   3.167   5.631   7.706
14611WAT     H144075   3.074   5.660   7.684
14611WAT     H244076   3.225   5.639   7.625
14612WAT      O44077   3.493   6.419   8.782
14612WAT     H144078   3.520   6.367   8.701
14612WAT     H244079   3.536   6.509   8.780
14613WAT      O44080   0.292   6.816   2.402
14613WAT     H144081   0.386   6.829   2.435
14613WAT     H244082   0.282   6.723   2.368
14614WAT      O44083   0.173   2.901   2.451
14614WAT     H144084   0.221   2.881   2.536
14614WAT     H244085   0.237   2.942   2.386
14615WAT      O44086   6.512   5.180   8.387
14615WAT     H144087   6.418   5.216   8.389
14615WAT     H244088   6.508   5.080   8.374
14616WAT      O44089   2.898   5.408   8.440
14616WAT     H144090   2.804   5.416   8.406
14616WAT     H244091   2.905   5.328   8.500
14617WAT      O44092   4.098   8.452   2.689
14617WAT     H144093   4.189   8.494   2.693
14617WAT     H244094   4.071   8.422   2.780
14618WAT      O44095   3.067   3.765   6.928
14618WAT     H144096   3.084   3.757   7.026
14618WAT     H244097   3.006   3.692   6.899
14619WAT      O44098   3.340   7.156   8.483
14619WAT     H144099   3.290   7.070   8.475
14619WAT     H244100   3.389   7.158   8.570
14620WAT      O44101   4.732   8.356   1.247
14620WAT     H144102   4.708   8.349   1.150
14620WAT     H244103   4.649   8.365   1.302
14621WAT      O44104   9.019   8.898   7.626
14621WAT     H144105   8.970   8.953   7.694
14621WAT     H244106   9.084   8.838   7.673
14622WAT      O44107   0.582   9.821   3.438
14622WAT     H144108   0.627   9.805   3.526
14622WAT     H244109   0.494   9.774   3.436
14623WAT      O44110   6.225   2.517   4.097
14623WAT     H144111   6.185   2.452   4.161
14623WAT     H244112   6.324   2.509   4.099
14624WAT      O44113   4.566   6.977   4.704
14624WAT     H144114   4.639   6.911   4.720
14624WAT     H244115   4.553   6.990   4.605
14625WAT      O44116   9.564   9.727   5.809
14625WAT     H144117   9.631   9.653   5.818
14625WAT     H244118   9.612   9.814   5.799
14626WAT      O44119   5.407   4.912   8.050
14626WAT     H144120   5.459   4.883   8.131
14626WAT     H244121   5.403   5.011   8.047
14627WAT      O44122   5.706   5.808   2.762
14627WAT     H144123   5.791   5.859   2.771
14627WAT     H244124   5.638   5.845   2.827
14628WAT      O44125   0.780   4.132   3.522
14628WAT     H144126   0.838   4.086   3.454
14628WAT     H244127   0.786   4.231   3.510
14629WAT      O44128   0.913   7.139   6.660
14629WAT     H144129   0.915   7.227   6.707
14629WAT     H244130   0.959   7.147   6.572
14630WAT      O44131   9.404   0.148   0.561
14630WAT     H144132   9.400   0.117   0.466
14630WAT     H244133   9.405   0.069   0.622
14631WAT      O44134   3.365   9.652   6.848
14631WAT     H144135   3.460   9.664   6.876
14631WAT     H244136   3.361   9.631   6.750
14632WAT      O44137   8.028   5.505   0.576
14632WAT     H144138   8.078   5.578   0.622
14632WAT     H244139   8.092   5.433   0.549
14633WAT      O44140   7.814   6.398   8.827
14633WAT     H144141   7.852   6.307   8.839
14633WAT     H244142   7.827   6.451   8.911
14634WAT      O44143   8.352   6.446   6.590
14634WAT     H144144   8.444   6.482   6.605
14634WAT     H244145   8.336   6.368   6.651
14635WAT      O44146   8.231   1.535   8.120
14635WAT     H144147   8.212   1.499   8.211
14635WAT     H244148   8.323   1.574   8.118
14636WAT      O44149   4.125   7.740   7.436
14636WAT     H144150   4.192   7.805   7.472
14636WAT     H244151   4.161   7.647   7.444
14637WAT      O44152   2.651   5.562   5.741
14637WAT     H144153   2.565   5.606   5.764
14637WAT     H244154   2.723   5.594   5.802
14638WAT      O44155   2.117   0.463   2.971
14638WAT     H144156   2.194   0.410   3.006
14638WAT     H244157   2.148   0.555   2.947
14639WAT      O44158   7.902   5.658   2.458
14639WAT     H144159   7.925   5.745   2.415
14639WAT     H244160   7.951   5.649   2.545
14640WAT      O44161   6.273   0.314   7.630
14640WAT     H144162   6.347   0.354   7.577
14640WAT     H244163   6.295   0.219   7.653
14641WAT      O44164   7.716   7.306   3.374
14641WAT     H144165   7.624   7.282   3.406
14641WAT     H244166   7.782   7.289   3.446
14642WAT      O44167   1.684   5.416   4.608
14642WAT     H144168   1.672   5.513   4.631
14642WAT     H244169   1.665   5.360   4.689
14643WAT      O44170   0.292   2.884   1.170
14643WAT     H144171   0.342   2.813   1.218
14643WAT     H244172   0.317   2.883   1.073
14644WAT      O44173   4.580   4.527   7.611
14644WAT     H144174   4.560   4.515   7.514
14644WAT     H244175   4.552   4.445   7.661
14645WAT      O44176   6.983   9.566   9.075
14645WAT     H144177   7.030   9.577   9.163
14645WAT     H244178   6.890   9.534   9.090
14646WAT      O44179   5.989   8.014   5.009
14646WAT     H144180   6.034   8.053   5.089
14646WAT     H244181   6.057   7.967   4.952
14647WAT      O44182   4.925   6.131   1.335
14647WAT     H144183   4.979   6.208   1.300
14647WAT     H244184   4.841   6.165   1.376
14648WAT      O44185   7.952   0.605   2.458
14648WAT     H144186   7.852   0.610   2.463
14648WAT     H244187   7.987   0.557   2.538
14649WAT      O44188   4.872   7.948   3.611
14649WAT     H144189   4.802   7.966   3.542
14649WAT     H244190   4.909   8.035   3.644
14650WAT      O44191   0.837   3.881   8.899
14650WAT     H144192   0.926   3.872   8.854
14650WAT     H244193   0.764   3.862   8.833
14651WAT      O44194   3.548   5.949   1.950
14651WAT     H144195   3.615   5.952   1.876
14651WAT     H244196   3.459   5.922   1.913
14652WAT      O44197   3.695   0.452   8.168
14652WAT     H144198   3.786   0.433   8.132
14652WAT     H244199   3.661   0.372   8.218
14653WAT      O44200   4.962   9.821   4.907
14653WAT     H144201   4.895   9.753   4.938
14653WAT     H244202   5.002   9.865   4.987
14654WAT      O44203   5.706   2.720   0.791
14654WAT     H144204   5.611   2.691   0.774
14654WAT     H244205   5.714   2.817   0.772
14655WAT      O44206   5.680   5.639   4.035
14655WAT     H144207   5.682   5.566   3.967
14655WAT     H244208   5.772   5.673   4.051
14656WAT      O44209   3.613   8.131   0.112
14656WAT     H144210   3.683   8.059   0.117
14656WAT     H244211   3.655   8.219   0.132
14657WAT      O44212   2.137   0.832   5.434
14657WAT     H144213   2.224   0.815   5.389
14657WAT     H244214   2.143   0.914   5.490
14658WAT      O44215   5.656   4.911   5.826
14658WAT     H144216   5.561   4.935   5.850
14658WAT     H244217   5.684   4.831   5.879
14659WAT      O44218   9.848   6.354   0.302
14659WAT     H144219   9.789   6.434   0.303
14659WAT     H244220   9.792   6.271   0.292
14660WAT      O44221   6.546   4.323   0.617
14660WAT     H144222   6.468   4.261   0.629
14660WAT     H244223   6.601   4.293   0.539
14661WAT      O44224   6.403   5.578   1.207
14661WAT     H144225   6.434   5.482   1.202
14661WAT     H244226   6.428   5.616   1.295
14662WAT      O44227   0.859   4.030   1.012
14662WAT     H144228   0.880   3.933   1.005
14662WAT     H244229   0.944   4.083   1.009
14663WAT      O44230   1.014   8.156   8.130
14663WAT     H144231   0.970   8.215   8.062
14663WAT     H244232   1.093   8.204   8.168
14664WAT      O44233   6.972   4.143   7.221
14664WAT     H144234   7.017   4.231   7.234
14664WAT     H244235   7.041   4.070   7.220
14665WAT      O44236   0.546   0.847   1.478
14665WAT     H144237   0.486   0.874   1.402
14665WAT     H244238   0.593   0.761   1.455
14666WAT      O44239   1.856   1.388   5.045
14666WAT     H144240   1.943   1.408   5.000
14666WAT     H244241   1.851   1.436   5.132
14667WAT      O44242   1.860   9.137   8.162
14667WAT     H144243   1.960   9.145   8.154
14667WAT     H244244   1.837   9.109   8.255
14668WAT      O44245   1.003   6.523   8.520
14668WAT     H144246   1.042   6.489   8.435
14668WAT     H244247   0.989   6.447   8.583
14669WAT      O44248   3.766   7.255   6.031
14669WAT     H144249   3.846   7.294   5.986
14669WAT     H244250   3.793   7.173   6.081
14670WAT      O44251   3.745   4.541   5.969
14670WAT     H144252   3.699   4.452   5.978
14670WAT     H244253   3.732   4.593   6.053
14671WAT      O44254   9.478   7.079   9.218
14671WAT     H144255   9.472   7.178   9.211
14671WAT     H244256   9.525   7.054   9.303
14672WAT      O44257   6.411   6.004   7.279
14672WAT     H144258   6.374   6.043   7.363
14672WAT     H244259   6.345   6.015   7.205
14673WAT      O44260   9.600   6.355   6.681
14673WAT     H144261   9.575   6.450   6.662
14673WAT     H244262   9.657   6.320   6.606
14674WAT      O44263   8.517   8.757   5.914
14674WAT     H144264   8.569   8.677   5.883
14674WAT     H244265   8.530   8.832   5.849
14675WAT      O44266   6.770   9.253   8.436
14675WAT     H144267   6.752   9.159   8.408
14675WAT     H244268   6.755   9.262   8.534
14676WAT      O44269   5.000   3.129   1.770
14676WAT     H144270   4.977   3.038   1.735
14676WAT     H244271   4.937   3.152   1.844
14677WAT      O44272   4.061   3.061   9.118
14677WAT     H144273   4.066   3.135   9.051
14677WAT     H244274   4.059   3.100   9.210
14678WAT      O44275   9.782   9.560   4.632
14678WAT     H144276   9.771   9.482   4.694
14678WAT     H244277   9.872   9.601   4.645
14679WAT      O44278   4.073   3.938   5.386
14679WAT     H144279   4.126   3.896   5.312
14679WAT     H244280   4.035   3.867   5.445
14680WAT      O44281   7.001   8.502   4.481
14680WAT     H144282   7.092   8.464   4.462
14680WAT     H244283   6.984   8.499   4.580
14681WAT      O44284   5.580   6.449   2.232
14681WAT     H144285   5.514   6.443   2.157
14681WAT     H244286   5.539   6.410   2.315
14682WAT      O44287   1.680   5.356   4.084
14682WAT     H144288   1.646   5.355   4.178
14682WAT     H244289   1.763   5.301   4.078
14683WAT      O44290   9.037   2.619   1.721
14683WAT     H144291   8.983   2.604   1.639
14683WAT     H244292   9.024   2.542   1.784
14684WAT      O44293   0.594   6.040   1.219
14684WAT     H144294   0.600   6.111   1.289
14684WAT     H244295   0.649   6.067   1.140
14685WAT      O44296   2.939   5.186   5.747
14685WAT     H144297   2.867   5.234   5.698
14685WAT     H244298   3.004   5.147   5.682
14686WAT      O44299   4.821   7.773   8.776
14686WAT     H144300   4.776   7.741   8.693
14686WAT     H244301   4.759   7.763   8.854
14687WAT      O44302   2.717   0.981   9.682
14687WAT     H144303   2.764   1.055   9.633
14687WAT     H244304   2.753   0.975   9.775
14688WAT      O44305   7.784   1.728   2.726
14688WAT     H144306   7.794   1.805   2.663
14688WAT     H244307   7.700   1.738   2.778
14689WAT      O44308   3.800   2.356   7.643
14689WAT     H144309   3.883   2.407   7.617
14689WAT     H244310   3.725   2.384   7.584
14690WAT      O44311   0.672   7.829   8.117
14690WAT     H144312   0.699   7.787   8.204
14690WAT     H244313   0.573   7.820   8.105
14691WAT      O44314   0.580   7.119   4.780
14691WAT     H144315   0.618   7.191   4.837
14691WAT     H244316   0.625   7.120   4.690
14692WAT      O44317   7.051   9.691   4.488
14692WAT     H144318   7.008   9.613   4.534
14692WAT     H244319   7.058   9.672   4.390
14693WAT      O44320   2.374   6.334   9.822
14693WAT     H144321   2.377   6.430   9.851
14693WAT     H244322   2.360   6.276   9.902
14694WAT      O44323   5.271   1.029   8.150
14694WAT     H144324   5.285   1.117   8.104
14694WAT     H244325   5.188   0.986   8.114
14695WAT      O44326   4.685   3.056   9.154
14695WAT     H144327   4.704   3.060   9.252
14695WAT     H244328   4.755   3.001   9.108
14696WAT      O44329   3.322   3.790   0.385
14696WAT     H144330   3.270   3.724   0.439
14696WAT     H244331   3.394   3.742   0.334
14697WAT      O44332   9.357   5.173   5.279
14697WAT     H144333   9.388   5.151   5.186
14697WAT     H244334   9.416   5.244   5.318
14698WAT      O44335   9.381   6.666   8.265
14698WAT     H144336   9.325   6.723   8.204
14698WAT     H244337   9.389   6.574   8.226
14699WAT      O44338   4.045   7.784   5.264
14699WAT     H144339   4.084   7.693   5.249
14699WAT     H244340   4.116   7.853   5.252
14700WAT      O44341   8.081   1.602   1.021
14700WAT     H144342   8.074   1.702   1.029
14700WAT     H244343   8.168   1.572   1.059
14701WAT      O44344   6.943   6.232   7.585
14701WAT     H144345   6.928   6.289   7.667
14701WAT     H244346   6.886   6.150   7.591
14702WAT      O44347   2.827   1.461   3.453
14702WAT     H144348   2.805   1.536   3.392
14702WAT     H244349   2.865   1.497   3.538
14703WAT      O44350   0.391   3.310   3.666
14703WAT     H144351   0.424   3.387   3.611
14703WAT     H244352   0.292   3.301   3.655
14704WAT      O44353   5.500   1.073   5.387
14704WAT     H144354   5.414   1.057   5.435
14704WAT     H244355   5.500   1.021   5.301
14705WAT      O44356   8.774   7.939   3.439
14705WAT     H144357   8.820   7.854   3.464
14705WAT     H244358   8.708   7.921   3.366
14706WAT      O44359   6.313   3.666   5.461
14706WAT     H144360   6.236   3.729   5.470
14706WAT     H244361   6.302   3.612   5.378
14707WAT      O44362   0.490   1.568   4.686
14707WAT     H144363   0.539   1.483   4.670
14707WAT     H244364   0.533   1.642   4.634
14708WAT      O44365   6.501   4.155   1.268
14708WAT     H144366   6.600   4.150   1.259
14708WAT     H244367   6.462   4.064   1.256
14709WAT      O44368   3.078   8.860   1.023
14709WAT     H144369   3.030   8.943   1.050
14709WAT     H244370   3.176   8.873   1.029
14710WAT      O44371   1.643   5.337   9.621
14710WAT     H144372   1.621   5.273   9.694
14710WAT     H244373   1.724   5.390   9.647
14711WAT      O44374   4.420   7.499   7.559
14711WAT     H144375   4.344   7.496   7.494
14711WAT     H244376   4.405   7.574   7.624
14712WAT      O44377   7.506   7.817   2.786
14712WAT     H144378   7.529   7.896   2.843
14712WAT     H244379   7.513   7.733   2.840
14713WAT      O44380   7.740   4.378   9.225
14713WAT     H144381   7.840   4.372   9.227
14713WAT     H244382   7.713   4.471   9.202
14714WAT      O44383   3.106   9.015   3.093
14714WAT     H144384   3.090   9.110   3.065
14714WAT     H244385   3.081   9.004   3.190
14715WAT      O44386   5.160   8.552   3.524
14715WAT     H144387   5.209   8.467   3.544
14715WAT     H244388   5.169   8.573   3.427
14716WAT      O44389   7.518   4.732   1.456
14716WAT     H144390   7.472   4.747   1.544
14716WAT     H244391   7.617   4.744   1.468
14717WAT      O44392   6.788   2.805   5.234
14717WAT     H144393   6.714   2.828   5.172
14717WAT     H244394   6.842   2.729   5.196
14718WAT      O44395   7.714   9.762   7.063
14718WAT     H144396   7.700   9.674   7.109
14718WAT     H244397   7.630   9.817   7.071
14719WAT      O44398   3.791   8.244   0.912
14719WAT     H144399   3.890   8.233   0.918
14719WAT     H244400   3.760   8.310   0.980
14720WAT      O44401   7.772   1.638   6.671
14720WAT     H144402   7.796   1.670   6.579
14720WAT     H244403   7.705   1.564   6.664
14721WAT      O44404   9.759   3.793   7.590
14721WAT     H144405   9.790   3.881   7.553
14721WAT     H244406   9.834   3.751   7.642
14722WAT      O44407   8.076   8.033   3.482
14722WAT     H144408   8.053   8.098   3.555
14722WAT     H244409   7.992   7.989   3.450
14723WAT      O44410   3.753   0.772   7.155
14723WAT     H144411   3.754   0.826   7.239
14723WAT     H244412   3.721   0.679   7.175
14724WAT      O44413   2.777   2.342   6.794
14724WAT     H144414   2.800   2.313   6.701
14724WAT     H244415   2.855   2.324   6.855
14725WAT      O44416   5.787   4.743   2.748
14725WAT     H144417   5.789   4.741   2.648
14725WAT     H244418   5.744   4.828   2.779
14726WAT      O44419   6.457   3.346   8.633
14726WAT     H144420   6.470   3.329   8.731
14726WAT     H244421   6.546   3.340   8.586
14727WAT      O44422   8.597   7.480   8.733
14727WAT     H144423   8.585   7.578   8.715
14727WAT     H244424   8.555   7.427   8.659
14728WAT      O44425   1.798   7.706   6.513
14728WAT     H144426   1.772   7.715   6.609
14728WAT     H244427   1.882   7.652   6.506
14729WAT      O44428   9.592   7.990   4.206
14729WAT     H144429   9.610   7.898   4.242
14729WAT     H244430   9.523   7.984   4.134
14730WAT      O44431   3.725   8.900   2.872
14730WAT     H144432   3.628   8.897   2.899
14730WAT     H244433   3.757   8.807   2.854
14731WAT      O44434   7.631   5.035   6.673
14731WAT     H144435   7.550   5.000   6.721
14731WAT     H244436   7.652   5.127   6.706
14732WAT      O44437   4.512   7.577   4.526
14732WAT     H144438   4.507   7.639   4.448
14732WAT     H244439   4.562   7.621   4.601
14733WAT      O44440   9.768   3.476   5.361
14733WAT     H144441   9.734   3.513   5.275
14733WAT     H244442   9.793   3.380   5.349
14734WAT      O44443   6.867   8.689   6.719
14734WAT     H144444   6.889   8.747   6.640
14734WAT     H244445   6.769   8.669   6.719
14735WAT      O44446   4.060   4.056   9.604
14735WAT     H144447   4.075   4.078   9.700
14735WAT     H244448   3.992   4.118   9.565
14736WAT      O44449   0.315   1.040   3.147
14736WAT     H144450   0.281   1.121   3.194
14736WAT     H244451   0.255   1.019   3.069
14737WAT      O44452   0.439   9.744   5.173
14737WAT     H144453   0.366   9.677   5.157
14737WAT     H244454   0.527   9.701   5.155
14738WAT      O44455   6.549   1.026   9.328
14738WAT     H144456   6.528   1.071   9.241
14738WAT     H244457   6.583   1.093   9.393
14739WAT      O44458   6.792   9.315   7.573
14739WAT     H144459   6.773   9.239   7.635
14739WAT     H244460   6.835   9.280   7.490
14740WAT      O44461   9.423   4.289   6.839
14740WAT     H144462   9.377   4.206   6.809
14740WAT     H244463   9.426   4.355   6.764
14741WAT      O44464   8.892   4.679   4.162
14741WAT     H144465   8.987   4.685   4.195
14741WAT     H244466   8.831   4.667   4.240
14742WAT      O44467   2.957   7.981   9.393
14742WAT     H144468   2.959   7.892   9.347
14742WAT     H244469   2.868   8.024   9.377
14743WAT      O44470   7.634   3.993   8.232
14743WAT     H144471   7.558   3.984   8.168
14743WAT     H244472   7.662   3.903   8.264
14744WAT      O44473   9.715   9.260   8.528
14744WAT     H144474   9.656   9.295   8.455
14744WAT     H244475   9.659   9.219   8.600
14745WAT      O44476   7.068   7.975   5.139
14745WAT     H144477   7.165   7.984   5.161
14745WAT     H244478   7.014   8.012   5.215
14746WAT      O44479   6.703   0.463   6.044
14746WAT     H144480   6.736   0.493   6.134
14746WAT     H244481   6.763   0.392   6.008
14747WAT      O44482   2.151   9.695   7.700
14747WAT     H144483   2.112   9.691   7.608
14747WAT     H244484   2.118   9.777   7.747
14748WAT      O44485   7.826   6.154   3.022
14748WAT     H144486   7.871   6.215   2.957
14748WAT     H244487   7.892   6.127   3.093
14749WAT      O44488   1.584   0.837   4.287
14749WAT     H144489   1.631   0.849   4.374
14749WAT     H244490   1.529   0.918   4.268
14750WAT      O44491   6.998   3.873   6.125
14750WAT     H144492   7.057   3.844   6.050
14750WAT     H244493   7.013   3.970   6.143
14751WAT      O44494   4.655   1.161   1.534
14751WAT     H144495   4.617   1.117   1.615
14751WAT     H244496   4.685   1.253   1.558
14752WAT      O44497   6.981   0.125   9.675
14752WAT     H144498   7.024   0.036   9.694
14752WAT     H244499   7.019   0.162   9.590
14753WAT      O44500   2.488   8.404   4.293
14753WAT     H144501   2.472   8.324   4.234
14753WAT     H244502   2.427   8.478   4.265
14754WAT      O44503   1.739   1.316   5.802
14754WAT     H144504   1.808   1.276   5.741
14754WAT     H244505   1.738   1.266   5.889
14755WAT      O44506   3.329   1.800   5.134
14755WAT     H144507   3.331   1.707   5.098
14755WAT     H244508   3.395   1.857   5.085
14756WAT      O44509   8.211   9.464   7.588
14756WAT     H144510   8.169   9.414   7.512
14756WAT     H244511   8.140   9.513   7.638
14757WAT      O44512   1.096   5.618   5.370
14757WAT     H144513   1.131   5.578   5.455
14757WAT     H244514   1.015   5.568   5.340
14758WAT      O44515   1.349   7.419   4.315
14758WAT     H144516   1.303   7.350   4.258
14758WAT     H244517   1.385   7.376   4.397
14759WAT      O44518   4.542   8.520   6.589
14759WAT     H144519   4.511   8.475   6.673
14759WAT     H244520   4.616   8.585   6.612
14760WAT      O44521   3.155   8.748   5.186
14760WAT     H144522   3.056   8.752   5.195
14760WAT     H244523   3.183   8.655   5.162
14761WAT      O44524   4.340   0.674   7.109
14761WAT     H144525   4.375   0.755   7.155
14761WAT     H244526   4.352   0.594   7.167
14762WAT      O44527   6.626   1.117   2.446
14762WAT     H144528   6.530   1.135   2.428
14762WAT     H244529   6.672   1.202   2.473
14763WAT      O44530   7.434   6.178   4.771
14763WAT     H144531   7.500   6.224   4.830
14763WAT     H244532   7.479   6.154   4.684
14764WAT      O44533   2.411   0.606   5.893
14764WAT     H144534   2.439   0.645   5.980
14764WAT     H244535   2.486   0.617   5.826
14765WAT      O44536   3.465   3.948   7.018
14765WAT     H144537   3.420   4.031   6.986
14765WAT     H244538   3.443   3.933   7.114
14766WAT      O44539   2.738   7.062   3.164
14766WAT     H144540   2.829   7.070   3.206
14766WAT     H244541   2.747   7.018   3.075
14767WAT      O44542   1.356   6.645   2.571
14767WAT     H144543   1.407   6.568   2.607
14767WAT     H244544   1.338   6.631   2.474
14768WAT      O44545   9.117   5.675   4.568
14768WAT     H144546   9.176   5.731   4.511
14768WAT     H244547   9.026   5.671   4.528
14769WAT      O44548   3.360   3.423   5.548
14769WAT     H144549   3.412   3.448   5.629
14769WAT     H244550   3.354   3.501   5.486
14770WAT      O44551   6.356   3.212   9.774
14770WAT     H144552   6.288   3.284   9.785
14770WAT     H244553   6.405   3.226   9.688
14771WAT      O44554   0.108   1.757   0.167
14771WAT     H144555   0.135   1.843   0.209
14771WAT     H244556   0.009   1.754   0.156
14772WAT      O44557   8.920   7.303   8.202
14772WAT     H144558   8.857   7.376   8.231
14772WAT     H244559   8.992   7.293   8.270
14773WAT      O44560   6.820   0.125   9.271
14773WAT     H144561   6.903   0.082   9.235
14773WAT     H244562   6.743   0.063   9.262
14774WAT      O44563   1.023   4.480   4.583
14774WAT     H144564   0.950   4.433   4.534
14774WAT     H244565   1.109   4.468   4.534
14775WAT      O44566   8.772   5.443   8.489
14775WAT     H144567   8.820   5.382   8.426
14775WAT     H244568   8.680   5.461   8.455
14776WAT      O44569   1.239   0.718   5.497
14776WAT     H144570   1.323   0.683   5.539
14776WAT     H244571   1.169   0.647   5.498
14777WAT      O44572   5.121   3.520   0.040
14777WAT     H144573   5.088   3.536   0.133
14777WAT     H244574   5.075   3.440   0.002
14778WAT      O44575   7.827   3.216   6.100
14778WAT     H144576   7.809   3.214   6.002
14778WAT     H244577   7.921   3.245   6.116
14779WAT      O44578   1.214   8.171   5.246
14779WAT     H144579   1.268   8.210   5.171
14779WAT     H244580   1.269   8.104   5.295
14780WAT      O44581   0.429   5.698   6.469
14780WAT     H144582   0.414   5.653   6.557
14780WAT     H244583   0.520   5.740   6.468
14781WAT      O44584   7.789   8.710   6.378
14781WAT     H144585   7.857   8.774   6.414
14781WAT     H244586   7.769   8.640   6.447
14782WAT      O44587   3.106   7.516   0.378
14782WAT     H144588   3.097   7.514   0.478
14782WAT     H244589   3.043   7.584   0.340
14783WAT      O44590   9.255   4.292   3.982
14783WAT     H144591   9.158   4.282   3.961
14783WAT     H244592   9.302   4.205   3.969
14784WAT      O44593   2.658   5.145   3.160
14784WAT     H144594   2.609   5.172   3.078
14784WAT     H244595   2.731   5.081   3.136
14785WAT      O44596   7.750   5.286   6.726
14785WAT     H144597   7.812   5.308   6.652
14785WAT     H244598   7.802   5.262   6.808
14786WAT      O44599   1.638   4.786   3.451
14786WAT     H144600   1.724   4.823   3.417
14786WAT     H244601   1.656   4.705   3.507
14787WAT      O44602   4.140   1.409   1.985
14787WAT     H144603   4.100   1.501   1.978
14787WAT     H244604   4.071   1.341   1.960
14788WAT      O44605   2.381   5.860   2.493
14788WAT     H144606   2.377   5.836   2.590
14788WAT     H244607   2.474   5.886   2.469
14789WAT      O44608   0.108   3.380   2.214
14789WAT     H144609   0.165   3.349   2.290
14789WAT     H244610   0.042   3.309   2.190
14790WAT      O44611   8.145   0.844   7.933
14790WAT     H144612   8.234   0.803   7.915
14790WAT     H244613   8.122   0.834   8.030
14791WAT      O44614   2.442   2.418   6.511
14791WAT     H144615   2.345   2.395   6.517
14791WAT     H244616   2.472   2.412   6.416
14792WAT      O44617   5.130   4.555   8.751
14792WAT     H144618   5.099   4.616   8.678
14792WAT     H244619   5.086   4.466   8.739
14793WAT      O44620   9.775   3.528   1.219
14793WAT     H144621   9.734   3.586   1.290
14793WAT     H244622   9.702   3.478   1.172
14794WAT      O44623   0.575   3.429   0.277
14794WAT     H144624   0.500   3.452   0.340
14794WAT     H244625   0.581   3.329   0.268
14795WAT      O44626   9.718   3.780   5.892
14795WAT     H144627   9.696   3.723   5.812
14795WAT     H244628   9.793   3.738   5.943
14796WAT      O44629   7.626   0.807   5.006
14796WAT     H144630   7.664   0.896   5.033
14796WAT     H244631   7.537   0.821   4.962
14797WAT      O44632   9.327   6.592   7.065
14797WAT     H144633   9.421   6.619   7.042
14797WAT     H244634   9.311   6.498   7.035
14798WAT      O44635   9.478   9.337   3.082
14798WAT     H144636   9.435   9.281   3.153
14798WAT     H244637   9.466   9.434   3.104
14799WAT      O44638   6.875   9.441   6.369
14799WAT     H144639   6.847   9.512   6.434
14799WAT     H244640   6.974   9.428   6.374
14800WAT      O44641   2.021   5.026   7.898
14800WAT     H144642   2.089   4.958   7.926
14800WAT     H244643   1.931   4.983   7.893
14801WAT      O44644   9.233   7.296   1.133
14801WAT     H144645   9.244   7.363   1.059
14801WAT     H244646   9.150   7.242   1.117
14802WAT      O44647   2.119   3.001   5.369
14802WAT     H144648   2.157   3.093   5.359
14802WAT     H244649   2.168   2.938   5.309
14803WAT      O44650   8.878   7.341   2.210
14803WAT     H144651   8.928   7.368   2.127
14803WAT     H244652   8.814   7.414   2.235
14804WAT      O44653   2.896   5.312   6.626
14804WAT     H144654   2.861   5.360   6.545
14804WAT     H244655   2.818   5.280   6.681
14805WAT      O44656   3.552   6.587   3.237
14805WAT     H144657   3.593   6.590   3.145
14805WAT     H244658   3.470   6.529   3.235
14806WAT      O44659   7.875   2.823   1.387
14806WAT     H144660   7.916   2.824   1.296
14806WAT     H244661   7.830   2.735   1.402
14807WAT      O44662   7.347   4.134   6.396
14807WAT     H144663   7.412   4.170   6.463
14807WAT     H244664   7.326   4.039   6.417
14808WAT      O44665   0.117   1.100   5.789
14808WAT     H144666   0.147   1.178   5.844
14808WAT     H244667   0.021   1.081   5.808
14809WAT      O44668   6.984   0.911   2.724
14809WAT     H144669   6.973   0.973   2.801
14809WAT     H244670   6.989   0.817   2.758
14810WAT      O44671   6.654   6.509   6.418
14810WAT     H144672   6.736   6.456   6.398
14810WAT     H244673   6.577   6.447   6.437
14811WAT      O44674   4.027   3.472   0.871
14811WAT     H144675   4.040   3.373   0.873
14811WAT     H244676   4.099   3.516   0.926
14812WAT      O44677   8.909   4.867   6.085
14812WAT     H144678   8.993   4.842   6.037
14812WAT     H244679   8.837   4.884   6.018
14813WAT      O44680   9.683   5.371   3.977
14813WAT     H144681   9.704   5.413   3.888
14813WAT     H244682   9.612   5.302   3.965
14814WAT      O44683   2.784   5.631   0.145
14814WAT     H144684   2.744   5.706   0.093
14814WAT     H244685   2.851   5.583   0.088
14815WAT      O44686   8.054   9.324   8.127
14815WAT     H144687   8.001   9.343   8.210
14815WAT     H244688   8.017   9.377   8.051
14816WAT      O44689   5.665   9.146   3.641
14816WAT     H144690   5.565   9.142   3.644
14816WAT     H244691   5.695   9.204   3.566
14817WAT      O44692   6.732   6.578   7.511
14817WAT     H144693   6.724   6.672   7.477
14817WAT     H244694   6.760   6.518   7.436
14818WAT      O44695   9.067   0.412   2.817
14818WAT     H144696   9.072   0.462   2.903
14818WAT     H244697   9.148   0.431   2.762
14819WAT      O44698   5.968   5.620   7.282
14819WAT     H144699   5.946   5.602   7.378
14819WAT     H244700   5.899   5.576   7.224
14820WAT      O44701   0.468   8.147   1.230
14820WAT     H144702   0.461   8.246   1.220
14820WAT     H244703   0.558   8.124   1.268
14821WAT      O44704   0.345   5.971   4.431
14821WAT     H144705   0.338   6.005   4.525
14821WAT     H244706   0.362   6.048   4.369
14822WAT      O44707   8.143   0.042   4.806
14822WAT     H144708   8.051   0.056   4.771
14822WAT     H244709   8.141   0.040   4.906
14823WAT      O44710   6.681   6.807   6.472
14823WAT     H144711   6.769   6.821   6.426
14823WAT     H244712   6.660   6.709   6.474
14824WAT      O44713   0.615   3.567   7.007
14824WAT     H144714   0.573   3.542   7.094
14824WAT     H244715   0.571   3.516   6.933
14825WAT      O44716   4.862   1.177   7.793
14825WAT     H144717   4.911   1.151   7.710
14825WAT     H244718   4.842   1.095   7.847
14826WAT      O44719   1.463   8.461   4.175
14826WAT     H144720   1.420   8.550   4.187
14826WAT     H244721   1.437   8.401   4.250
14827WAT      O44722   4.977   6.429   6.690
14827WAT     H144723   4.912   6.420   6.614
14827WAT     H244724   4.952   6.365   6.762
14828WAT      O44725   1.922   5.546   5.464
14828WAT     H144726   1.872   5.630   5.443
14828WAT     H244727   2.003   5.568   5.519
14829WAT      O44728   8.193   8.328   7.358
14829WAT     H144729   8.152   8.418   7.373
14829WAT     H244730   8.292   8.333   7.374
14830WAT      O44731   4.423   8.189   8.752
14830WAT     H144732   4.430   8.216   8.656
14830WAT     H244733   4.327   8.192   8.781
14831WAT      O44734   3.568   1.736   2.957
14831WAT     H144735   3.548   1.807   3.024
14831WAT     H244736   3.651   1.687   2.983
14832WAT      O44737   2.287   3.404   1.302
14832WAT     H144738   2.277   3.485   1.361
14832WAT     H244739   2.373   3.358   1.324
14833WAT      O44740   6.567   8.619   8.740
14833WAT     H144741   6.477   8.662   8.742
14833WAT     H244742   6.558   8.521   8.758
14834WAT      O44743   7.646   1.302   9.142
14834WAT     H144744   7.622   1.307   9.045
14834WAT     H244745   7.719   1.368   9.162
14835WAT      O44746   3.152   0.183   4.417
14835WAT     H144747   3.065   0.139   4.439
14835WAT     H244748   3.147   0.280   4.439
14836WAT      O44749   1.675   4.318   9.752
14836WAT     H144750   1.741   4.267   9.696
14836WAT     H244751   1.584   4.279   9.740
14837WAT      O44752   1.775   7.614   8.009
14837WAT     H144753   1.841   7.655   7.946
14837WAT     H244754   1.757   7.519   7.982
14838WAT      O44755   5.658   3.184   5.501
14838WAT     H144756   5.561   3.185   5.480
14838WAT     H244757   5.684   3.094   5.538
14839WAT      O44758   4.529   5.165   0.734
14839WAT     H144759   4.436   5.173   0.770
14839WAT     H244760   4.583   5.243   0.764
14840WAT      O44761   7.131   0.373   5.078
14840WAT     H144762   7.160   0.454   5.028
14840WAT     H244763   7.056   0.328   5.029
14841WAT      O44764   2.093   6.071   2.632
14841WAT     H144765   2.026   6.142   2.650
14841WAT     H244766   2.176   6.089   2.685
14842WAT      O44767   3.789   3.970   9.891
14842WAT     H144768   3.752   3.955   9.800
14842WAT     H244769   3.880   3.931   9.898
14843WAT      O44770   2.462   7.682   6.463
14843WAT     H144771   2.368   7.714   6.471
14843WAT     H244772   2.489   7.634   6.546
14844WAT      O44773   8.717   2.508   5.502
14844WAT     H144774   8.660   2.529   5.422
14844WAT     H244775   8.781   2.434   5.479
14845WAT      O44776   2.246   2.486   2.227
14845WAT     H144777   2.179   2.429   2.274
14845WAT     H244778   2.274   2.442   2.143
14846WAT      O44779   1.972   1.119   8.559
14846WAT     H144780   1.944   1.049   8.624
14846WAT     H244781   1.943   1.209   8.593
14847WAT      O44782   4.335   0.743   6.383
14847WAT     H144783   4.400   0.671   6.359
14847WAT     H244784   4.385   0.821   6.420
14848WAT      O44785   2.748   9.603   6.225
14848WAT     H144786   2.771   9.561   6.313
14848WAT     H244787   2.790   9.694   6.219
14849WAT      O44788   2.313   1.397   2.117
14849WAT     H144789   2.310   1.438   2.208
14849WAT     H244790   2.397   1.425   2.070
14850WAT      O44791   0.765   7.363   1.038
14850WAT     H144792   0.803   7.454   1.021
14850WAT     H244793   0.694   7.344   0.971
14851WAT      O44794   0.051   3.663   5.993
14851WAT     H144795   0.034   3.616   6.080
14851WAT     H244796   0.132   3.624   5.950
14852WAT      O44797   0.458   2.279   5.803
14852WAT     H144798   0.513   2.195   5.803
14852WAT     H244799   0.419   2.293   5.894
14853WAT      O44800   7.495   9.304   6.515
14853WAT     H144801   7.445   9.296   6.601
14853WAT     H244802   7.437   9.272   6.440
14854WAT      O44803   6.574   5.339   2.683
14854WAT     H144804   6.508   5.265   2.671
14854WAT     H244805   6.534   5.410   2.742
14855WAT      O44806   0.058   5.376   5.438
14855WAT     H144807   0.022   5.463   5.405
14855WAT     H244808   0.157   5.383   5.449
14856WAT      O44809   2.349   7.374   4.115
14856WAT     H144810   2.299   7.453   4.079
14856WAT     H244811   2.438   7.367   4.069
14857WAT      O44812   2.845   9.666   7.683
14857WAT     H144813   2.858   9.589   7.621
14857WAT     H244814   2.885   9.644   7.772
14858WAT      O44815   4.665   6.252   6.613
14858WAT     H144816   4.639   6.221   6.705
14858WAT     H244817   4.617   6.337   6.591
14859WAT      O44818   4.996   5.985   4.240
14859WAT     H144819   5.093   6.001   4.259
14859WAT     H244820   4.943   6.065   4.265
14860WAT      O44821   3.436   8.279   8.041
14860WAT     H144822   3.443   8.206   7.973
14860WAT     H244823   3.340   8.302   8.055
14861WAT      O44824   7.368   0.329   1.681
14861WAT     H144825   7.280   0.349   1.638
14861WAT     H244826   7.353   0.286   1.770
14862WAT      O44827   3.635   8.802   4.259
14862WAT     H144828   3.638   8.798   4.159
14862WAT     H244829   3.644   8.709   4.296
14863WAT      O44830   8.780   6.439   0.610
14863WAT     H144831   8.694   6.388   0.608
14863WAT     H244832   8.785   6.497   0.528
14864WAT      O44833   6.118   3.684   9.665
14864WAT     H144834   6.036   3.639   9.630
14864WAT     H244835   6.094   3.746   9.739
14865WAT      O44836   4.419   0.260   4.960
14865WAT     H144837   4.464   0.186   4.910
14865WAT     H244838   4.423   0.344   4.907
14866WAT      O44839   2.060   6.468   9.839
14866WAT     H144840   2.132   6.489   9.905
14866WAT     H244841   2.010   6.388   9.869
14867WAT      O44842   5.005   6.053   8.628
14867WAT     H144843   5.031   6.143   8.591
14867WAT     H244844   4.918   6.061   8.676
14868WAT      O44845   0.430   7.747   2.489
14868WAT     H144846   0.358   7.707   2.545
14868WAT     H244847   0.500   7.788   2.548
14869WAT      O44848   5.881   4.562   5.199
14869WAT     H144849   5.921   4.648   5.166
14869WAT     H244850   5.954   4.500   5.226
14870WAT      O44851   2.764   1.464   0.770
14870WAT     H144852   2.860   1.439   0.754
14870WAT     H244853   2.754   1.563   0.764
14871WAT      O44854   2.536   6.303   7.623
14871WAT     H144855   2.498   6.226   7.571
14871WAT     H244856   2.631   6.284   7.647
14872WAT      O44857   8.973   6.632   8.849
14872WAT     H144858   9.021   6.714   8.882
14872WAT     H244859   9.031   6.584   8.782
14873WAT      O44860   9.704   6.133   8.706
14873WAT     H144861   9.783   6.073   8.696
14873WAT     H244862   9.641   6.117   8.630
14874WAT      O44863   0.981   1.921   6.082
14874WAT     H144864   0.886   1.949   6.096
14874WAT     H244865   1.029   1.991   6.029
14875WAT      O44866   6.362   5.872   1.861
14875WAT     H144867   6.359   5.773   1.847
14875WAT     H244868   6.393   5.916   1.777
14876WAT      O44869   4.730   2.834   0.353
14876WAT     H144870   4.638   2.813   0.319
14876WAT     H244871   4.726   2.848   0.452
14877WAT      O44872   3.912   3.365   0.229
14877WAT     H144873   3.836   3.407   0.180
14877WAT     H244874   3.941   3.424   0.304
14878WAT      O44875   0.241   1.292   6.973
14878WAT     H144876   0.173   1.272   6.902
14878WAT     H244877   0.286   1.207   7.000
14879WAT      O44878   4.541   1.322   3.788
14879WAT     H144879   4.564   1.343   3.883
14879WAT     H244880   4.496   1.402   3.747
14880WAT      O44881   5.899   9.227   8.793
14880WAT     H144882   5.818   9.271   8.832
14880WAT     H244883   5.947   9.177   8.865
14881WAT      O44884   0.093   1.882   3.016
14881WAT     H144885   0.017   1.941   2.988
14881WAT     H244886   0.122   1.826   2.938
14882WAT      O44887   7.249   8.741   2.607
14882WAT     H144888   7.278   8.647   2.588
14882WAT     H244889   7.319   8.805   2.574
14883WAT      O44890   1.275   5.785   2.579
14883WAT     H144891   1.351   5.831   2.532
14883WAT     H244892   1.257   5.697   2.535
14884WAT      O44893   7.852   0.989   3.279
14884WAT     H144894   7.813   0.927   3.348
14884WAT     H244895   7.859   0.940   3.192
14885WAT      O44896   1.887   9.716   7.082
14885WAT     H144897   1.912   9.738   6.987
14885WAT     H244898   1.899   9.618   7.097
14886WAT      O44899   3.889   1.236   8.211
14886WAT     H144900   3.824   1.244   8.135
14886WAT     H244901   3.839   1.209   8.293
14887WAT      O44902   5.531   7.305   1.440
14887WAT     H144903   5.625   7.278   1.422
14887WAT     H244904   5.503   7.374   1.373
14888WAT      O44905   6.908   1.756   4.361
14888WAT     H144906   7.006   1.737   4.365
14888WAT     H244907   6.886   1.797   4.273
14889WAT      O44908   3.272   2.146   2.571
14889WAT     H144909   3.237   2.111   2.658
14889WAT     H244910   3.266   2.074   2.501
14890WAT      O44911   4.706   6.770   1.248
14890WAT     H144912   4.655   6.833   1.308
14890WAT     H244913   4.657   6.759   1.162
14891WAT      O44914   0.321   9.722   4.428
14891WAT     H144915   0.379   9.792   4.472
14891WAT     H244916   0.379   9.650   4.391
14892WAT      O44917   1.584   0.420   7.156
14892WAT     H144918   1.631   0.350   7.210
14892WAT     H244919   1.523   0.375   7.091
14893WAT      O44920   6.181   4.043   3.594
14893WAT     H144921   6.251   4.015   3.528
14893WAT     H244922   6.109   3.974   3.598
14894WAT      O44923   6.639   9.487   4.749
14894WAT     H144924   6.573   9.540   4.694
14894WAT     H244925   6.650   9.396   4.709
14895WAT      O44926   6.855   3.825   2.647
14895WAT     H144927   6.792   3.899   2.622
14895WAT     H244928   6.802   3.748   2.683
14896WAT      O44929   6.490   5.567   9.400
14896WAT     H144930   6.484   5.638   9.470
14896WAT     H244931   6.410   5.572   9.340
14897WAT      O44932   8.654   9.330   7.514
14897WAT     H144933   8.692   9.244   7.479
14897WAT     H244934   8.570   9.311   7.564
14898WAT      O44935   5.557   8.005   3.216
14898WAT     H144936   5.581   7.940   3.144
14898WAT     H244937   5.533   8.093   3.175
14899WAT      O44938   0.838   2.873   6.241
14899WAT     H144939   0.767   2.803   6.249
14899WAT     H244940   0.796   2.960   6.215
14900WAT      O44941   9.732   5.853   0.201
14900WAT     H144942   9.731   5.889   0.108
14900WAT     H244943   9.714   5.755   0.200
14901WAT      O44944   8.803   6.097   5.855
14901WAT     H144945   8.782   6.072   5.950
14901WAT     H244946   8.854   6.183   5.854
14902WAT      O44947   5.790   1.500   8.715
14902WAT     H144948   5.790   1.412   8.762
14902WAT     H244949   5.874   1.510   8.663
14903WAT      O44950   0.903   9.572   2.718
14903WAT     H144951   0.975   9.635   2.688
14903WAT     H244952   0.814   9.614   2.702
14904WAT      O44953   4.352   4.855   1.282
14904WAT     H144954   4.423   4.829   1.216
14904WAT     H244955   4.367   4.804   1.367
14905WAT      O44956   2.120   5.620   4.623
14905WAT     H144957   2.079   5.531   4.642
14905WAT     H244958   2.049   5.690   4.616
14906WAT      O44959   8.625   9.478   0.458
14906WAT     H144960   8.555   9.436   0.517
14906WAT     H244961   8.589   9.563   0.419
14907WAT      O44962   1.320   2.252   1.205
14907WAT     H144963   1.410   2.207   1.208
14907WAT     H244964   1.316   2.323   1.275
14908WAT      O44965   1.178   9.790   5.283
14908WAT     H144966   1.235   9.729   5.339
14908WAT     H244967   1.236   9.836   5.215
14909WAT      O44968   4.696   0.995   6.446
14909WAT     H144969   4.710   0.977   6.349
14909WAT     H244970   4.717   0.913   6.499
14910WAT      O44971   8.729   0.358   5.646
14910WAT     H144972   8.675   0.292   5.699
14910WAT     H244973   8.814   0.377   5.695
14911WAT      O44974   2.944   4.614   2.351
14911WAT     H144975   2.908   4.580   2.264
14911WAT     H244976   3.040   4.586   2.360
14912WAT      O44977   7.801   8.034   0.167
14912WAT     H144978   7.751   7.951   0.193
14912WAT     H244979   7.873   8.052   0.235
14913WAT      O44980   9.288   3.589   1.056
14913WAT     H144981   9.322   3.677   1.022
14913WAT     H244982   9.294   3.521   0.983
14914WAT      O44983   9.225   7.219   5.565
14914WAT     H144984   9.189   7.166   5.641
14914WAT     H244985   9.249   7.311   5.598
14915WAT      O44986   2.701   9.009   1.733
14915WAT     H144987   2.738   9.096   1.699
14915WAT     H244988   2.756   8.977   1.810
14916WAT      O44989   3.628   2.767   8.085
14916WAT     H144990   3.588   2.845   8.132
14916WAT     H244991   3.669   2.705   8.152
14917WAT      O44992   4.026   2.273   6.055
14917WAT     H144993   4.007   2.343   5.987
14917WAT     H244994   4.124   2.252   6.056
14918WAT      O44995   7.070   0.411   2.925
14918WAT     H144996   7.002   0.456   2.983
14918WAT     H244997   7.084   0.465   2.842
14919WAT      O44998   0.835   9.536   1.863
14919WAT     H144999   0.916   9.588   1.838
14919WAT     H245000   0.768   9.542   1.789
14920WAT      O45001   6.595   0.994   6.655
14920WAT     H145002   6.521   0.980   6.589
14920WAT     H245003   6.556   0.997   6.747
14921WAT      O45004   5.060   6.348   1.234
14921WAT     H145005   5.009   6.434   1.239
14921WAT     H245006   5.153   6.362   1.268
14922WAT      O45007   8.189   5.678   0.682
14922WAT     H145008   8.224   5.690   0.776
14922WAT     H245009   8.265   5.654   0.622
14923WAT      O45010   0.570   8.602   9.658
14923WAT     H145011   0.577   8.513   9.702
14923WAT     H245012   0.607   8.598   9.565
14924WAT      O45013   3.671   5.761   9.067
14924WAT     H145014   3.630   5.832   9.124
14924WAT     H245015   3.605   5.686   9.055
14925WAT      O45016   6.721   3.487   4.585
14925WAT     H145017   6.705   3.494   4.487
14925WAT     H245018   6.635   3.470   4.633
14926WAT      O45019   3.657   6.538   2.773
14926WAT     H145020   3.710   6.602   2.717
14926WAT     H245021   3.704   6.450   2.775
14927WAT      O45022   9.791   8.061   0.778
14927WAT     H145023   9.771   8.066   0.876
14927WAT     H245024   9.792   7.966   0.748
14928WAT      O45025   7.488   7.795   1.607
14928WAT     H145026   7.451   7.845   1.529
14928WAT     H245027   7.556   7.729   1.576
14929WAT      O45028   9.474   2.604   6.622
14929WAT     H145029   9.554   2.548   6.602
14929WAT     H245030   9.499   2.701   6.616
14930WAT      O45031   6.951   0.892   7.313
14930WAT     H145032   6.870   0.854   7.268
14930WAT     H245033   6.931   0.906   7.410
14931WAT      O45034   7.519   0.798   6.979
14931WAT     H145035   7.567   0.874   6.936
14931WAT     H245036   7.430   0.828   7.011
14932WAT      O45037   7.249   0.052   1.269
14932WAT     H145038   7.246   0.130   1.207
14932WAT     H245039   7.297   0.079   1.353
14933WAT      O45040   6.090   1.433   2.536
14933WAT     H145041   5.995   1.459   2.553
14933WAT     H245042   6.151   1.505   2.569
14934WAT      O45043   3.509   7.174   0.349
14934WAT     H145044   3.465   7.202   0.264
14934WAT     H245045   3.589   7.232   0.365
14935WAT      O45046   7.744   0.798   3.437
14935WAT     H145047   7.702   0.857   3.506
14935WAT     H245048   7.677   0.730   3.407
14936WAT      O45049   0.337   8.289   7.459
14936WAT     H145050   0.337   8.310   7.557
14936WAT     H245051   0.251   8.245   7.434
14937WAT      O45052   0.849   1.465   3.821
14937WAT     H145053   0.823   1.556   3.789
14937WAT     H245054   0.943   1.446   3.795
14938WAT      O45055   6.693   1.658   2.992
14938WAT     H145056   6.690   1.672   2.893
14938WAT     H245057   6.730   1.567   3.011
14939WAT      O45058   1.786   4.319   6.541
14939WAT     H145059   1.752   4.241   6.593
14939WAT     H245060   1.856   4.288   6.476
14940WAT      O45061   8.446   8.609   0.147
14940WAT     H145062   8.352   8.613   0.113
14940WAT     H245063   8.466   8.517   0.179
14941WAT      O45064   1.460   0.418   0.875
14941WAT     H145065   1.429   0.444   0.966
14941WAT     H245066   1.560   0.418   0.873
14942WAT      O45067   4.995   8.254   5.424
14942WAT     H145068   4.942   8.170   5.432
14942WAT     H245069   4.984   8.291   5.331
14943WAT      O45070   5.162   8.669   0.483
14943WAT     H145071   5.199   8.659   0.576
14943WAT     H245072   5.064   8.689   0.488
14944WAT      O45073   1.483   2.543   9.371
14944WAT     H145074   1.512   2.572   9.463
14944WAT     H245075   1.551   2.479   9.334
14945WAT      O45076   8.000   0.919   6.015
14945WAT     H145077   7.923   0.948   5.959
14945WAT     H245078   8.078   0.899   5.956
14946WAT      O45079   8.097   3.096   2.827
14946WAT     H145080   8.172   3.032   2.810
14946WAT     H245081   8.022   3.048   2.873
14947WAT      O45082   9.756   4.484   0.169
14947WAT     H145083   9.752   4.507   0.072
14947WAT     H245084   9.778   4.566   0.222
14948WAT      O45085   4.527   9.546   0.631
14948WAT     H145086   4.483   9.604   0.699
14948WAT     H245087   4.546   9.457   0.670
14949WAT      O45088   1.481   6.829   7.357
14949WAT     H145089   1.511   6.808   7.450
14949WAT     H245090   1.398   6.778   7.336
14950WAT      O45091   8.767   1.094   0.721
14950WAT     H145092   8.855   1.049   0.704
14950WAT     H245093   8.780   1.193   0.727
14951WAT      O45094   5.459   4.094   3.166
14951WAT     H145095   5.518   4.018   3.195
14951WAT     H245096   5.444   4.089   3.068
14952WAT      O45097   9.684   6.380   7.808
14952WAT     H145098   9.754   6.410   7.743
14952WAT     H245099   9.596   6.372   7.760
14953WAT      O45100   8.161   4.133   1.490
14953WAT     H145101   8.107   4.216   1.481
14953WAT     H245102   8.109   4.064   1.540
14954WAT      O45103   4.111   6.524   0.599
14954WAT     H145104   4.166   6.441   0.606
14954WAT     H245105   4.088   6.557   0.690
14955WAT      O45106   1.501   8.405   0.387
14955WAT     H145107   1.493   8.468   0.464
14955WAT     H245108   1.596   8.376   0.377
14956WAT      O45109   1.539   5.782   1.506
14956WAT     H145110   1.540   5.729   1.422
14956WAT     H245111   1.482   5.736   1.574
14957WAT      O45112   9.520   2.486   7.787
14957WAT     H145113   9.595   2.427   7.758
14957WAT     H245114   9.458   2.501   7.711
14958WAT      O45115   2.608   2.605   4.941
14958WAT     H145116   2.514   2.572   4.947
14958WAT     H245117   2.671   2.527   4.942
14959WAT      O45118   8.675   8.126   9.343
14959WAT     H145119   8.769   8.118   9.376
14959WAT     H245120   8.622   8.180   9.408
14960WAT      O45121   0.721   2.516   6.576
14960WAT     H145122   0.677   2.430   6.550
14960WAT     H245123   0.677   2.552   6.659
14961WAT      O45124   0.963   5.949   0.994
14961WAT     H145125   0.898   5.873   0.991
14961WAT     H245126   1.046   5.925   0.945
14962WAT      O45127   5.031   2.330   0.334
14962WAT     H145128   5.044   2.233   0.354
14962WAT     H245129   5.025   2.342   0.235
14963WAT      O45130   7.177   0.696   3.105
14963WAT     H145131   7.108   0.627   3.086
14963WAT     H245132   7.132   0.782   3.129
14964WAT      O45133   9.495   5.024   7.625
14964WAT     H145134   9.443   5.110   7.628
14964WAT     H245135   9.572   5.034   7.562
14965WAT      O45136   7.696   2.065   5.018
14965WAT     H145137   7.622   2.108   4.965
14965WAT     H245138   7.659   2.029   5.103
14966WAT      O45139   3.319   9.085   7.631
14966WAT     H145140   3.241   9.096   7.570
14966WAT     H245141   3.403   9.079   7.577
14967WAT      O45142   1.597   6.575   6.420
14967WAT     H145143   1.695   6.581   6.400
14967WAT     H245144   1.550   6.651   6.376
14968WAT      O45145   6.737   8.588   0.337
14968WAT     H145146   6.811   8.650   0.311
14968WAT     H245147   6.666   8.588   0.266
14969WAT      O45148   7.336   3.671   2.789
14969WAT     H145149   7.398   3.629   2.723
14969WAT     H245150   7.262   3.606   2.810
14970WAT      O45151   1.219   0.981   5.539
14970WAT     H145152   1.125   1.006   5.562
14970WAT     H245153   1.225   0.882   5.528
14971WAT      O45154   3.111   6.861   6.819
14971WAT     H145155   3.144   6.780   6.867
14971WAT     H245156   3.182   6.931   6.818
14972WAT      O45157   2.338   1.669   2.665
14972WAT     H145158   2.412   1.613   2.628
14972WAT     H245159   2.375   1.757   2.696
14973WAT      O45160   1.710   4.503   3.014
14973WAT     H145161   1.787   4.549   2.970
14973WAT     H245162   1.686   4.421   2.963
14974WAT      O45163   2.299   3.099   5.932
14974WAT     H145164   2.397   3.116   5.917
14974WAT     H245165   2.287   3.010   5.975
14975WAT      O45166   2.017   1.288   1.814
14975WAT     H145167   1.955   1.210   1.811
14975WAT     H245168   2.052   1.307   1.722
14976WAT      O45169   6.750   2.527   3.976
14976WAT     H145170   6.711   2.511   3.886
14976WAT     H245171   6.772   2.440   4.020
14977WAT      O45172   8.960   6.817   1.712
14977WAT     H145173   8.861   6.817   1.699
14977WAT     H245174   9.001   6.744   1.657
14978WAT      O45175   9.050   6.036   2.936
14978WAT     H145176   9.104   5.960   2.974
14978WAT     H245177   8.981   6.064   3.003
14979WAT      O45178   8.696   0.100   6.633
14979WAT     H145179   8.721   0.125   6.540
14979WAT     H245180   8.697   0.181   6.691
14980WAT      O45181   0.727   4.282   6.892
14980WAT     H145182   0.743   4.294   6.794
14980WAT     H245183   0.684   4.193   6.908
14981WAT      O45184   4.480   0.892   5.082
14981WAT     H145185   4.454   0.908   5.178
14981WAT     H245186   4.399   0.866   5.030
14982WAT      O45187   1.961   8.647   7.826
14982WAT     H145188   1.945   8.727   7.768
14982WAT     H245189   1.895   8.575   7.802
14983WAT      O45190   3.855   9.199   4.917
14983WAT     H145191   3.914   9.122   4.889
14983WAT     H245192   3.843   9.196   5.016
14984WAT      O45193   4.644   9.824   3.596
14984WAT     H145194   4.588   9.758   3.646
14984WAT     H245195   4.716   9.776   3.545
14985WAT      O45196   4.371   3.463   9.430
14985WAT     H145197   4.340   3.444   9.523
14985WAT     H245198   4.469   3.445   9.423
14986WAT      O45199   0.106   7.083   7.680
14986WAT     H145200   0.201   7.114   7.685
14986WAT     H245201   0.067   7.107   7.591
14987WAT      O45202   5.088   2.412   7.721
14987WAT     H145203   5.133   2.368   7.799
14987WAT     H245204   5.011   2.466   7.754
14988WAT      O45205   9.850   7.987   3.821
14988WAT     H145206   9.890   7.898   3.844
14988WAT     H245207   9.750   7.982   3.830
14989WAT      O45208   8.518   7.898   3.996
14989WAT     H145209   8.589   7.936   3.937
14989WAT     H245210   8.500   7.961   4.072
14990WAT      O45211   8.739   9.694   5.597
14990WAT     H145212   8.652   9.660   5.559
14990WAT     H245213   8.807   9.621   5.592
14991WAT      O45214   1.221   6.169   3.279
14991WAT     H145215   1.194   6.223   3.199
14991WAT     H245216   1.282   6.095   3.250
14992WAT      O45217   9.501   7.857   0.106
14992WAT     H145218   9.482   7.942   0.155
14992WAT     H245219   9.518   7.877   0.010
14993WAT      O45220   4.450   2.938   0.854
14993WAT     H145221   4.499   2.929   0.941
14993WAT     H245222   4.424   2.847   0.821
14994WAT      O45223   3.650   4.003   6.251
14994WAT     H145224   3.666   3.912   6.291
14994WAT     H245225   3.673   4.073   6.318
14995WAT      O45226   1.524   0.792   8.328
14995WAT     H145227   1.559   0.836   8.411
14995WAT     H245228   1.512   0.861   8.257
14996WAT      O45229   8.228   3.331   3.808
14996WAT     H145230   8.246   3.241   3.847
14996WAT     H245231   8.209   3.321   3.710
14997WAT      O45232   3.123   0.608   0.908
14997WAT     H145233   3.163   0.645   0.824
14997WAT     H245234   3.039   0.658   0.930
14998WAT      O45235   1.375   5.569   8.305
14998WAT     H145236   1.291   5.610   8.267
14998WAT     H245237   1.448   5.575   8.237
14999WAT      O45238   4.589   3.433   7.386
14999WAT     H145239   4.648   3.452   7.308
14999WAT     H245240   4.504   3.485   7.377
15000WAT      O45241   9.067   0.609   4.198
15000WAT     H145242   9.150   0.590   4.250
15000WAT     H245243   9.062   0.548   4.119
15001WAT      O45244   9.599   4.077   2.689
15001WAT     H145245   9.600   3.985   2.649
15001WAT     H245246   9.509   4.118   2.676
15002WAT      O45247   5.242   4.060   5.731
15002WAT     H145248   5.154   4.097   5.762
15002WAT     H245249   5.230   3.965   5.702
15003WAT      O45250   8.204   3.669   2.465
15003WAT     H145251   8.269   3.670   2.541
15003WAT     H245252   8.137   3.742   2.478
15004WAT      O45253   0.221   3.428   5.437
15004WAT     H145254   0.304   3.375   5.422
15004WAT     H245255   0.141   3.368   5.428
15005WAT      O45256   8.622   3.438   9.398
15005WAT     H145257   8.684   3.498   9.450
15005WAT     H245258   8.649   3.343   9.412
15006WAT      O45259   4.703   6.281   3.621
15006WAT     H145260   4.612   6.296   3.659
15006WAT     H245261   4.747   6.206   3.671
15007WAT      O45262   1.163   5.313   9.367
15007WAT     H145263   1.139   5.220   9.338
15007WAT     H245264   1.256   5.313   9.404
15008WAT      O45265   8.488   7.583   8.141
15008WAT     H145266   8.571   7.548   8.097
15008WAT     H245267   8.493   7.683   8.146
15009WAT      O45268   9.615   0.626   4.151
15009WAT     H145269   9.588   0.537   4.115
15009WAT     H245270   9.695   0.616   4.209
15010WAT      O45271   5.764   9.421   6.503
15010WAT     H145272   5.770   9.373   6.416
15010WAT     H245273   5.845   9.480   6.514
15011WAT      O45274   7.612   5.268   0.362
15011WAT     H145275   7.555   5.216   0.298
15011WAT     H245276   7.560   5.346   0.397
15012WAT      O45277   6.253   1.134   6.611
15012WAT     H145278   6.315   1.181   6.675
15012WAT     H245279   6.214   1.201   6.548
15013WAT      O45280   0.414   7.846   0.137
15013WAT     H145281   0.346   7.802   0.196
15013WAT     H245282   0.490   7.880   0.193
15014WAT      O45283   9.858   3.098   1.877
15014WAT     H145284   9.830   3.010   1.837
15014WAT     H245285   9.952   3.117   1.851
15015WAT      O45286   8.639   9.024   8.854
15015WAT     H145287   8.696   9.106   8.856
15015WAT     H245288   8.698   8.943   8.844
15016WAT      O45289   3.552   3.451   5.769
15016WAT     H145290   3.596   3.540   5.763
15016WAT     H245291   3.594   3.388   5.703
15017WAT      O45292   7.431   7.575   5.614
15017WAT     H145293   7.386   7.648   5.562
15017WAT     H245294   7.368   7.540   5.683
15018WAT      O45295   5.978   2.821   8.509
15018WAT     H145296   6.007   2.725   8.507
15018WAT     H245297   6.046   2.875   8.559
15019WAT      O45298   4.496   8.633   3.173
15019WAT     H145299   4.517   8.584   3.088
15019WAT     H245300   4.548   8.719   3.175
15020WAT      O45301   0.129   5.378   9.349
15020WAT     H145302   0.093   5.414   9.263
15020WAT     H245303   0.153   5.454   9.409
15021WAT      O45304   8.087   6.723   8.943
15021WAT     H145305   8.017   6.769   8.998
15021WAT     H245306   8.073   6.746   8.847
15022WAT      O45307   8.393   3.430   3.141
15022WAT     H145308   8.388   3.422   3.241
15022WAT     H245309   8.321   3.491   3.109
15023WAT      O45310   7.419   5.013   4.743
15023WAT     H145311   7.417   4.976   4.651
15023WAT     H245312   7.501   4.982   4.790
15024WAT      O45313   2.501   4.676   1.938
15024WAT     H145314   2.481   4.732   2.018
15024WAT     H245315   2.600   4.665   1.929
15025WAT      O45316   3.932   0.559   0.599
15025WAT     H145317   3.871   0.586   0.524
15025WAT     H245318   3.888   0.487   0.653
15026WAT      O45319   9.004   4.990   8.379
15026WAT     H145320   9.005   5.089   8.387
15026WAT     H245321   8.910   4.957   8.389
15027WAT      O45322   4.713   2.587   2.784
15027WAT     H145323   4.748   2.497   2.810
15027WAT     H245324   4.629   2.606   2.835
15028WAT      O45325   4.425   9.328   1.438
15028WAT     H145326   4.459   9.371   1.354
15028WAT     H245327   4.429   9.229   1.429
15029WAT      O45328   6.275   2.359   8.507
15029WAT     H145329   6.364   2.313   8.501
15029WAT     H245330   6.224   2.321   8.584
15030WAT      O45331   2.997   5.521   3.309
15030WAT     H145332   2.958   5.609   3.334
15030WAT     H245333   2.923   5.456   3.288
15031WAT      O45334   6.275   5.400   9.798
15031WAT     H145335   6.298   5.312   9.757
15031WAT     H245336   6.230   5.385   9.886
15032WAT      O45337   9.595   4.248   9.294
15032WAT     H145338   9.674   4.206   9.339
15032WAT     H245339   9.557   4.184   9.227
15033WAT      O45340   4.722   1.943   5.935
15033WAT     H145341   4.755   2.005   6.006
15033WAT     H245342   4.747   1.979   5.845
15034WAT      O45343   2.987   0.495   3.139
15034WAT     H145344   3.054   0.480   3.212
15034WAT     H245345   2.910   0.433   3.151
15035WAT      O45346   2.128   2.719   1.779
15035WAT     H145347   2.048   2.693   1.833
15035WAT     H245348   2.099   2.752   1.689
15036WAT      O45349   3.874   8.448   4.995
15036WAT     H145350   3.961   8.492   4.975
15036WAT     H245351   3.808   8.470   4.924
15037WAT      O45352   2.468   8.614   9.752
15037WAT     H145353   2.443   8.517   9.754
15037WAT     H245354   2.541   8.631   9.818
15038WAT      O45355   3.770   3.477   8.709
15038WAT     H145356   3.797   3.489   8.614
15038WAT     H245357   3.697   3.409   8.715
15039WAT      O45358   5.427   5.829   9.096
15039WAT     H145359   5.363   5.874   9.158
15039WAT     H245360   5.387   5.824   9.004
15040WAT      O45361   8.763   0.220   1.367
15040WAT     H145362   8.851   0.262   1.345
15040WAT     H245363   8.703   0.224   1.287
15041WAT      O45364   6.276   7.770   0.148
15041WAT     H145365   6.231   7.858   0.131
15041WAT     H245366   6.366   7.770   0.105
15042WAT      O45367   8.569   5.913   4.144
15042WAT     H145368   8.504   5.960   4.084
15042WAT     H245369   8.662   5.944   4.124
15043WAT      O45370   0.808   1.280   4.035
15043WAT     H145371   0.822   1.339   3.956
15043WAT     H245372   0.778   1.335   4.113
15044WAT      O45373   9.708   1.539   4.973
15044WAT     H145374   9.799   1.539   4.932
15044WAT     H245375   9.708   1.600   5.053
15045WAT      O45376   7.449   4.875   6.376
15045WAT     H145377   7.515   4.801   6.366
15045WAT     H245378   7.368   4.841   6.424
15046WAT      O45379   2.947   8.983   6.890
15046WAT     H145380   3.030   9.008   6.840
15046WAT     H245381   2.916   9.060   6.944
15047WAT      O45382   4.265   5.896   5.386
15047WAT     H145383   4.248   5.831   5.460
15047WAT     H245384   4.354   5.941   5.402
15048WAT      O45385   6.745   4.342   8.004
15048WAT     H145386   6.659   4.293   8.017
15048WAT     H245387   6.726   4.436   7.976
15049WAT      O45388   1.080   8.265   1.959
15049WAT     H145389   1.128   8.350   1.938
15049WAT     H245390   1.110   8.193   1.896
15050WAT      O45391   2.316   9.694   9.404
15050WAT     H145392   2.351   9.745   9.483
15050WAT     H245393   2.216   9.686   9.412
15051WAT      O45394   6.882   8.943   4.653
15051WAT     H145395   6.815   8.956   4.580
15051WAT     H245396   6.963   8.899   4.617
15052WAT      O45397   3.366   4.276   3.411
15052WAT     H145398   3.452   4.227   3.425
15052WAT     H245399   3.378   4.345   3.340
15053WAT      O45400   9.550   4.078   4.898
15053WAT     H145401   9.455   4.066   4.927
15053WAT     H245402   9.610   4.078   4.978
15054WAT      O45403   5.457   6.670   6.140
15054WAT     H145404   5.394   6.686   6.064
15054WAT     H245405   5.452   6.748   6.203
15055WAT      O45406   3.061   4.920   3.754
15055WAT     H145407   3.113   4.846   3.710
15055WAT     H245408   3.122   4.998   3.770
15056WAT      O45409   5.827   2.464   1.565
15056WAT     H145410   5.924   2.483   1.579
15056WAT     H245411   5.816   2.410   1.482
15057WAT      O45412   4.019   8.222   8.442
15057WAT     H145413   4.079   8.146   8.414
15057WAT     H245414   4.045   8.304   8.392
15058WAT      O45415   7.339   3.384   7.166
15058WAT     H145416   7.338   3.430   7.256
15058WAT     H245417   7.425   3.406   7.119
15059WAT      O45418   3.883   0.605   7.753
15059WAT     H145419   3.801   0.616   7.810
15059WAT     H245420   3.960   0.653   7.796
15060WAT      O45421   1.061   7.790   8.631
15060WAT     H145422   1.038   7.697   8.602
15060WAT     H245423   1.123   7.831   8.564
15061WAT      O45424   5.052   3.761   4.702
15061WAT     H145425   5.101   3.835   4.747
15061WAT     H245426   4.975   3.799   4.651
15062WAT      O45427   9.230   7.496   4.379
15062WAT     H145428   9.286   7.460   4.304
15062WAT     H245429   9.247   7.594   4.389
15063WAT      O45430   8.787   5.663   4.826
15063WAT     H145431   8.746   5.688   4.738
15063WAT     H245432   8.880   5.699   4.831
15064WAT      O45433   7.084   6.672   0.776
15064WAT     H145434   7.095   6.741   0.704
15064WAT     H245435   7.173   6.653   0.818
15065WAT      O45436   1.203   0.333   1.724
15065WAT     H145437   1.199   0.254   1.785
15065WAT     H245438   1.298   0.355   1.704
15066WAT      O45439   8.615   1.239   1.493
15066WAT     H145440   8.551   1.219   1.419
15066WAT     H245441   8.653   1.330   1.481
15067WAT      O45442   4.181   7.436   6.152
15067WAT     H145443   4.267   7.473   6.117
15067WAT     H245444   4.194   7.398   6.243
15068WAT      O45445   9.099   4.107   3.591
15068WAT     H145446   9.183   4.066   3.625
15068WAT     H245447   9.109   4.131   3.495
15069WAT      O45448   6.962   2.374   8.940
15069WAT     H145449   6.900   2.447   8.910
15069WAT     H245450   7.019   2.407   9.015
15070WAT      O45451   4.957   0.288   0.611
15070WAT     H145452   5.023   0.246   0.673
15070WAT     H245453   4.865   0.254   0.631
15071WAT      O45454   1.261   9.279   2.929
15071WAT     H145455   1.336   9.328   2.974
15071WAT     H245456   1.177   9.332   2.938
15072WAT      O45457   8.404   4.880   4.605
15072WAT     H145458   8.354   4.867   4.519
15072WAT     H245459   8.473   4.951   4.593
15073WAT      O45460   1.408   3.786   7.236
15073WAT     H145461   1.364   3.875   7.238
15073WAT     H245462   1.506   3.797   7.256
15074WAT      O45463   1.472   2.736   5.033
15074WAT     H145464   1.488   2.815   4.974
15074WAT     H245465   1.474   2.765   5.129
15075WAT      O45466   0.773   5.793   1.701
15075WAT     H145467   0.845   5.724   1.691
15075WAT     H245468   0.783   5.862   1.629
15076WAT      O45469   4.714   9.625   4.415
15076WAT     H145470   4.691   9.626   4.318
15076WAT     H245471   4.701   9.534   4.452
15077WAT      O45472   7.751   5.828   4.335
15077WAT     H145473   7.765   5.866   4.427
15077WAT     H245474   7.819   5.757   4.318
15078WAT      O45475   6.165   1.225   3.863
15078WAT     H145476   6.241   1.164   3.841
15078WAT     H245477   6.176   1.312   3.816
15079WAT      O45478   1.291   2.559   4.857
15079WAT     H145479   1.362   2.608   4.909
15079WAT     H245480   1.203   2.570   4.903
15080WAT      O45481   8.772   3.765   7.564
15080WAT     H145482   8.855   3.819   7.578
15080WAT     H245483   8.783   3.707   7.483
15081WAT      O45484   6.961   2.644   6.113
15081WAT     H145485   6.935   2.572   6.049
15081WAT     H245486   7.006   2.603   6.193
15082WAT      O45487   7.144   0.817   9.156
15082WAT     H145488   7.190   0.828   9.244
15082WAT     H245489   7.203   0.851   9.083
15083WAT      O45490   6.701   6.427   9.232
15083WAT     H145491   6.789   6.424   9.280
15083WAT     H245492   6.651   6.342   9.249
15084WAT      O45493   2.575   8.156   5.733
15084WAT     H145494   2.610   8.065   5.755
15084WAT     H245495   2.641   8.226   5.764
15085WAT      O45496   0.499   0.483   3.753
15085WAT     H145497   0.594   0.473   3.725
15085WAT     H245498   0.442   0.503   3.673
15086WAT      O45499   7.022   3.211   0.585
15086WAT     H145500   6.960   3.259   0.647
15086WAT     H245501   7.116   3.229   0.611
15087WAT      O45502   1.269   2.137   0.410
15087WAT     H145503   1.262   2.095   0.319
15087WAT     H245504   1.244   2.069   0.479
15088WAT      O45505   5.648   2.313   0.131
15088WAT     H145506   5.552   2.287   0.144
15088WAT     H245507   5.703   2.277   0.206
15089WAT      O45508   7.214   7.472   8.443
15089WAT     H145509   7.210   7.376   8.416
15089WAT     H245510   7.134   7.521   8.408
15090WAT      O45511   5.940   0.734   1.808
15090WAT     H145512   5.926   0.668   1.734
15090WAT     H245513   6.038   0.747   1.822
15091WAT      O45514   4.856   1.273   0.529
15091WAT     H145515   4.863   1.198   0.594
15091WAT     H245516   4.864   1.360   0.578
15092WAT      O45517   7.119   5.748   7.291
15092WAT     H145518   7.100   5.667   7.236
15092WAT     H245519   7.205   5.736   7.341
15093WAT      O45520   4.866   2.628   4.555
15093WAT     H145521   4.889   2.724   4.536
15093WAT     H245522   4.774   2.609   4.519
15094WAT      O45523   9.149   7.822   8.159
15094WAT     H145524   9.051   7.814   8.141
15094WAT     H245525   9.197   7.744   8.119
15095WAT      O45526   2.135   1.150   7.957
15095WAT     H145527   2.203   1.115   8.020
15095WAT     H245528   2.106   1.242   7.986
15096WAT      O45529   4.629   9.736   7.183
15096WAT     H145530   4.659   9.832   7.176
15096WAT     H245531   4.535   9.728   7.152
15097WAT      O45532   1.835   6.588   2.929
15097WAT     H145533   1.786   6.585   3.016
15097WAT     H245534   1.770   6.594   2.854
15098WAT      O45535   3.119   1.357   2.992
15098WAT     H145536   3.155   1.318   2.907
15098WAT     H245537   3.097   1.284   3.056
15099WAT      O45538   3.363   9.620   4.830
15099WAT     H145539   3.341   9.586   4.922
15099WAT     H245540   3.402   9.546   4.775
15100WAT      O45541   1.816   8.165   1.159
15100WAT     H145542   1.837   8.108   1.079
15100WAT     H245543   1.843   8.259   1.140
15101WAT      O45544   7.175   1.199   1.806
15101WAT     H145545   7.274   1.187   1.803
15101WAT     H245546   7.135   1.136   1.873
15102WAT      O45547   4.799   2.131   4.910
15102WAT     H145548   4.843   2.078   4.837
15102WAT     H245549   4.858   2.132   4.990
15103WAT      O45550   9.154   6.090   2.375
15103WAT     H145551   9.220   6.078   2.449
15103WAT     H245552   9.065   6.055   2.404
15104WAT      O45553   9.157   4.490   9.324
15104WAT     H145554   9.135   4.573   9.273
15104WAT     H245555   9.101   4.487   9.407
15105WAT      O45556   5.443   2.806   1.663
15105WAT     H145557   5.536   2.770   1.654
15105WAT     H245558   5.410   2.791   1.756
15106WAT      O45559   4.914   1.713   9.390
15106WAT     H145560   4.893   1.641   9.457
15106WAT     H245561   4.832   1.767   9.372
15107WAT      O45562   2.215   4.484   0.434
15107WAT     H145563   2.218   4.403   0.375
15107WAT     H245564   2.125   4.491   0.476
15108WAT      O45565   6.060   7.985   4.611
15108WAT     H145566   5.979   7.983   4.669
15108WAT     H245567   6.140   7.956   4.664
15109WAT      O45568   2.076   7.763   5.261
15109WAT     H145569   2.157   7.775   5.204
15109WAT     H245570   2.097   7.791   5.355
15110WAT      O45571   6.351   9.345   5.598
15110WAT     H145572   6.422   9.398   5.553
15110WAT     H245573   6.279   9.322   5.532
15111WAT      O45574   6.223   5.556   1.444
15111WAT     H145575   6.252   5.481   1.384
15111WAT     H245576   6.289   5.631   1.437
15112WAT      O45577   9.290   4.792   9.386
15112WAT     H145578   9.319   4.888   9.387
15112WAT     H245579   9.237   4.772   9.469
15113WAT      O45580   4.027   1.390   2.687
15113WAT     H145581   3.954   1.333   2.726
15113WAT     H245582   4.049   1.464   2.751
15114WAT      O45583   0.799   3.135   8.742
15114WAT     H145584   0.865   3.153   8.669
15114WAT     H245585   0.720   3.086   8.704
15115WAT      O45586   5.723   7.496   0.768
15115WAT     H145587   5.819   7.523   0.762
15115WAT     H245588   5.717   7.398   0.785
15116WAT      O45589   8.501   3.824   2.231
15116WAT     H145590   8.518   3.726   2.235
15116WAT     H245591   8.532   3.867   2.315
15117WAT      O45592   1.965   3.711   2.698
15117WAT     H145593   1.944   3.631   2.754
15117WAT     H245594   2.033   3.686   2.629
15118WAT      O45595   1.410   1.245   4.491
15118WAT     H145596   1.386   1.219   4.584
15118WAT     H245597   1.346   1.314   4.458
15119WAT      O45598   4.678   1.026   5.653
15119WAT     H145599   4.716   0.936   5.632
15119WAT     H245600   4.658   1.074   5.567
15120WAT      O45601   4.014   1.181   3.019
15120WAT     H145602   3.938   1.184   3.084
15120WAT     H245603   4.085   1.119   3.053
15121WAT      O45604   6.040   3.296   6.462
15121WAT     H145605   6.001   3.310   6.553
15121WAT     H245606   5.966   3.281   6.396
15122WAT      O45607   9.396   1.182   4.679
15122WAT     H145608   9.460   1.257   4.662
15122WAT     H245609   9.310   1.218   4.714
15123WAT      O45610   8.470   2.410   9.542
15123WAT     H145611   8.506   2.482   9.600
15123WAT     H245612   8.421   2.342   9.598
15124WAT      O45613   9.860   1.825   6.042
15124WAT     H145614   9.819   1.734   6.041
15124WAT     H245615   9.802   1.888   5.991
15125WAT      O45616   3.776   8.631   0.197
15125WAT     H145617   3.785   8.671   0.106
15125WAT     H245618   3.680   8.635   0.227
15126WAT      O45619   8.902   3.483   4.778
15126WAT     H145620   8.918   3.496   4.680
15126WAT     H245621   8.982   3.514   4.829
15127WAT      O45622   7.592   8.307   5.857
15127WAT     H145623   7.573   8.223   5.908
15127WAT     H245624   7.658   8.362   5.908
15128WAT      O45625   3.453   0.091   3.721
15128WAT     H145626   3.440   0.055   3.813
15128WAT     H245627   3.482   0.017   3.660
15129WAT      O45628   6.368   6.347   6.977
15129WAT     H145629   6.285   6.295   6.961
15129WAT     H245630   6.448   6.286   6.972
15130WAT      O45631   8.820   1.609   6.216
15130WAT     H145632   8.879   1.646   6.288
15130WAT     H245633   8.874   1.551   6.155
15131WAT      O45634   1.540   6.257   9.605
15131WAT     H145635   1.590   6.240   9.520
15131WAT     H245636   1.587   6.210   9.680
15132WAT      O45637   2.360   9.109   7.826
15132WAT     H145638   2.303   9.112   7.744
15132WAT     H245639   2.396   9.200   7.846
15133WAT      O45640   1.393   2.335   0.171
15133WAT     H145641   1.451   2.410   0.203
15133WAT     H245642   1.303   2.342   0.213
15134WAT      O45643   7.905   0.388   4.981
15134WAT     H145644   7.950   0.377   4.892
15134WAT     H245645   7.948   0.462   5.032
15135WAT      O45646   6.866   6.008   4.858
15135WAT     H145647   6.915   5.923   4.838
15135WAT     H245648   6.916   6.086   4.821
15136WAT      O45649   1.715   4.718   4.752
15136WAT     H145650   1.713   4.636   4.809
15136WAT     H245651   1.622   4.743   4.727
15137WAT      O45652   3.355   0.291   6.870
15137WAT     H145653   3.328   0.195   6.863
15137WAT     H245654   3.392   0.321   6.783
15138WAT      O45655   0.747   1.372   3.405
15138WAT     H145656   0.771   1.287   3.451
15138WAT     H245657   0.820   1.439   3.416
15139WAT      O45658   1.696   5.947   4.521
15139WAT     H145659   1.634   6.005   4.574
15139WAT     H245660   1.773   6.002   4.489
15140WAT      O45661   2.552   0.844   3.452
15140WAT     H145662   2.537   0.806   3.361
15140WAT     H245663   2.508   0.785   3.520
15141WAT      O45664   3.408   6.932   1.360
15141WAT     H145665   3.413   6.868   1.437
15141WAT     H245666   3.473   6.905   1.290
15142WAT      O45667   9.401   0.461   1.245
15142WAT     H145668   9.468   0.446   1.172
15142WAT     H245669   9.345   0.379   1.256
15143WAT      O45670   9.282   4.490   7.306
15143WAT     H145671   9.252   4.462   7.215
15143WAT     H245672   9.335   4.416   7.348
15144WAT      O45673   6.273   8.805   0.916
15144WAT     H145674   6.194   8.803   0.854
15144WAT     H245675   6.274   8.722   0.971
15145WAT      O45676   9.823   8.256   6.838
15145WAT     H145677   9.770   8.176   6.869
15145WAT     H245678   9.879   8.229   6.759
15146WAT      O45679   6.329   3.260   6.463
15146WAT     H145680   6.353   3.266   6.560
15146WAT     H245681   6.233   3.285   6.450
15147WAT      O45682   4.412   4.444   9.427
15147WAT     H145683   4.436   4.499   9.347
15147WAT     H245684   4.350   4.370   9.399
15148WAT      O45685   0.801   5.320   9.295
15148WAT     H145686   0.901   5.323   9.285
15148WAT     H245687   0.760   5.292   9.208
15149WAT      O45688   1.077   1.629   3.163
15149WAT     H145689   1.177   1.640   3.155
15149WAT     H245690   1.032   1.703   3.114
15150WAT      O45691   3.920   9.653   1.316
15150WAT     H145692   3.961   9.562   1.313
15150WAT     H245693   3.973   9.711   1.378
15151WAT      O45694   3.447   5.331   6.222
15151WAT     H145695   3.365   5.313   6.168
15151WAT     H245696   3.528   5.323   6.164
15152WAT      O45697   2.072   5.793   6.433
15152WAT     H145698   2.166   5.812   6.460
15152WAT     H245699   2.023   5.751   6.509
15153WAT      O45700   0.172   3.789   5.060
15153WAT     H145701   0.107   3.859   5.088
15153WAT     H245702   0.186   3.793   4.961
15154WAT      O45703   6.998   1.861   1.231
15154WAT     H145704   6.955   1.854   1.320
15154WAT     H245705   7.082   1.915   1.238
15155WAT      O45706   8.976   1.063   5.040
15155WAT     H145707   8.988   0.993   4.970
15155WAT     H245708   8.995   1.024   5.130
15156WAT      O45709   2.609   3.987   2.930
15156WAT     H145710   2.517   4.017   2.905
15156WAT     H245711   2.677   4.039   2.879
15157WAT      O45712   4.277   1.431   5.059
15157WAT     H145713   4.247   1.337   5.075
15157WAT     H245714   4.256   1.486   5.140
15158WAT      O45715   6.202   7.388   1.312
15158WAT     H145716   6.120   7.331   1.307
15158WAT     H245717   6.282   7.332   1.290
15159WAT      O45718   8.854   6.155   8.880
15159WAT     H145719   8.760   6.182   8.861
15159WAT     H245720   8.864   6.135   8.978
15160WAT      O45721   9.644   9.348   0.559
15160WAT     H145722   9.547   9.347   0.581
15160WAT     H245723   9.695   9.304   0.633
15161WAT      O45724   7.805   0.121   1.899
15161WAT     H145725   7.732   0.057   1.875
15161WAT     H245726   7.848   0.157   1.816
15162WAT      O45727   5.582   2.627   5.667
15162WAT     H145728   5.498   2.638   5.614
15162WAT     H245729   5.573   2.675   5.754
15163WAT      O45730   6.452   3.704   8.880
15163WAT     H145731   6.378   3.733   8.941
15163WAT     H245732   6.427   3.724   8.786
15164WAT      O45733   5.268   4.151   2.828
15164WAT     H145734   5.342   4.214   2.852
15164WAT     H245735   5.306   4.061   2.807
15165WAT      O45736   3.776   4.884   6.755
15165WAT     H145737   3.743   4.811   6.695
15165WAT     H245738   3.855   4.928   6.713
15166WAT      O45739   6.053   1.137   7.287
15166WAT     H145740   6.124   1.205   7.301
15166WAT     H245741   6.095   1.050   7.261
15167WAT      O45742   1.488   6.054   1.458
15167WAT     H145743   1.502   5.956   1.473
15167WAT     H245744   1.569   6.104   1.488
15168WAT      O45745   2.326   4.570   4.527
15168WAT     H145746   2.391   4.495   4.542
15168WAT     H245747   2.308   4.617   4.613
15169WAT      O45748   4.058   0.223   1.132
15169WAT     H145749   4.051   0.275   1.047
15169WAT     H245750   4.148   0.180   1.138
15170WAT      O45751   0.448   1.241   7.575
15170WAT     H145752   0.355   1.205   7.582
15170WAT     H245753   0.461   1.281   7.484
15171WAT      O45754   9.609   8.175   3.542
15171WAT     H145755   9.664   8.242   3.491
15171WAT     H245756   9.607   8.201   3.638
15172WAT      O45757   8.964   9.499   6.029
15172WAT     H145758   9.037   9.513   6.096
15172WAT     H245759   9.005   9.481   5.939
15173WAT      O45760   0.348   4.097   6.238
15173WAT     H145761   0.272   4.035   6.258
15173WAT     H245762   0.358   4.107   6.139
15174WAT      O45763   0.775   4.153   7.576
15174WAT     H145764   0.823   4.119   7.495
15174WAT     H245765   0.819   4.238   7.607
15175WAT      O45766   6.405   6.413   2.082
15175WAT     H145767   6.330   6.374   2.136
15175WAT     H245768   6.473   6.452   2.143
15176WAT      O45769   6.286   6.044   6.618
15176WAT     H145770   6.285   6.035   6.518
15176WAT     H245771   6.199   6.012   6.656
15177WAT      O45772   8.640   2.660   8.454
15177WAT     H145773   8.699   2.724   8.504
15177WAT     H245774   8.560   2.639   8.510
15178WAT      O45775   1.146   2.793   0.817
15178WAT     H145776   1.144   2.893   0.813
15178WAT     H245777   1.168   2.757   0.726
15179WAT      O45778   6.645   7.740   5.563
15179WAT     H145779   6.696   7.723   5.479
15179WAT     H245780   6.592   7.659   5.587
15180WAT      O45781   1.585   3.145   2.682
15180WAT     H145782   1.574   3.240   2.651
15180WAT     H245783   1.526   3.128   2.760
15181WAT      O45784   6.507   7.538   3.552
15181WAT     H145785   6.531   7.493   3.639
15181WAT     H245786   6.468   7.627   3.571
15182WAT      O45787   5.993   5.022   7.338
15182WAT     H145788   5.998   5.094   7.407
15182WAT     H245789   5.952   5.058   7.255
15183WAT      O45790   1.838   3.021   2.745
15183WAT     H145791   1.862   2.993   2.838
15183WAT     H245792   1.750   3.069   2.746
15184WAT      O45793   3.117   8.843   0.346
15184WAT     H145794   3.181   8.904   0.392
15184WAT     H245795   3.168   8.770   0.299
15185WAT      O45796   4.425   3.429   4.941
15185WAT     H145797   4.467   3.516   4.916
15185WAT     H245798   4.454   3.358   4.878
15186WAT      O45799   4.895   8.295   3.334
15186WAT     H145800   4.927   8.375   3.284
15186WAT     H245801   4.811   8.319   3.384
15187WAT      O45802   8.183   6.129   8.737
15187WAT     H145803   8.213   6.036   8.759
15187WAT     H245804   8.259   6.193   8.749
15188WAT      O45805   0.353   1.302   8.289
15188WAT     H145806   0.318   1.213   8.260
15188WAT     H245807   0.377   1.299   8.386
15189WAT      O45808   6.725   8.914   7.244
15189WAT     H145809   6.662   8.977   7.197
15189WAT     H245810   6.717   8.823   7.204
15190WAT      O45811   4.970   8.569   6.197
15190WAT     H145812   4.911   8.594   6.273
15190WAT     H245813   5.063   8.604   6.214
15191WAT      O45814   2.566   2.716   8.744
15191WAT     H145815   2.663   2.693   8.753
15191WAT     H245816   2.557   2.804   8.697
15192WAT      O45817   6.007   3.615   3.203
15192WAT     H145818   6.094   3.566   3.199
15192WAT     H245819   5.978   3.638   3.110
15193WAT      O45820   8.707   1.779   0.554
15193WAT     H145821   8.782   1.722   0.587
15193WAT     H245822   8.662   1.823   0.632
15194WAT      O45823   1.120   0.324   2.585
15194WAT     H145824   1.125   0.420   2.556
15194WAT     H245825   1.127   0.264   2.505
15195WAT      O45826   4.064   7.404   9.822
15195WAT     H145827   4.120   7.462   9.763
15195WAT     H245828   4.108   7.395   9.911
15196WAT      O45829   8.948   6.065   6.680
15196WAT     H145830   8.924   6.101   6.770
15196WAT     H245831   8.998   6.134   6.628
15197WAT      O45832   5.648   7.858   1.995
15197WAT     H145833   5.568   7.841   1.937
15197WAT     H245834   5.693   7.942   1.967
15198WAT      O45835   1.437   2.750   7.481
15198WAT     H145836   1.447   2.742   7.382
15198WAT     H245837   1.351   2.797   7.503
15199WAT      O45838   8.216   3.281   2.258
15199WAT     H145839   8.221   3.275   2.358
15199WAT     H245840   8.183   3.371   2.232
15200WAT      O45841   0.070   4.214   7.875
15200WAT     H145842   0.096   4.145   7.808
15200WAT     H245843   0.018   4.286   7.830
15201WAT      O45844   2.042   5.501   3.349
15201WAT     H145845   1.976   5.459   3.286
15201WAT     H245846   2.124   5.443   3.354
15202WAT      O45847   2.333   0.294   6.467
15202WAT     H145848   2.302   0.384   6.436
15202WAT     H245849   2.402   0.305   6.539
15203WAT      O45850   8.674   9.570   4.449
15203WAT     H145851   8.578   9.544   4.461
15203WAT     H245852   8.719   9.503   4.390
15204WAT      O45853   6.625   6.604   0.965
15204WAT     H145854   6.709   6.625   1.016
15204WAT     H245855   6.627   6.508   0.937
15205WAT      O45856   0.456   0.005   9.845
15205WAT     H145857   0.499  -0.082   9.867
15205WAT     H245858   0.526   0.071   9.817
15206WAT      O45859   0.118   9.171   6.104
15206WAT     H145860   0.073   9.236   6.164
15206WAT     H245861   0.144   9.217   6.018
15207WAT      O45862   0.911   7.963   9.662
15207WAT     H145863   0.990   7.978   9.721
15207WAT     H245864   0.827   7.991   9.710
15208WAT      O45865   2.413   9.606   4.900
15208WAT     H145866   2.344   9.614   4.972
15208WAT     H245867   2.445   9.512   4.895
15209WAT      O45868   4.938   4.680   9.257
15209WAT     H145869   4.972   4.692   9.164
15209WAT     H245870   5.009   4.704   9.323
15210WAT      O45871   4.051   2.672   4.210
15210WAT     H145872   4.050   2.606   4.285
15210WAT     H245873   4.056   2.765   4.246
15211WAT      O45874   3.926   2.435   4.972
15211WAT     H145875   3.888   2.424   5.065
15211WAT     H245876   3.906   2.528   4.939
15212WAT      O45877   8.017   3.177   1.803
15212WAT     H145878   8.010   3.230   1.888
15212WAT     H245879   8.095   3.114   1.809
15213WAT      O45880   9.808   4.040   8.557
15213WAT     H145881   9.885   4.089   8.598
15213WAT     H245882   9.791   4.077   8.465
15214WAT      O45883   8.950   3.888   3.657
15214WAT     H145884   8.981   3.829   3.582
15214WAT     H245885   8.990   3.980   3.645
15215WAT      O45886   5.230   9.354   6.307
15215WAT     H145887   5.300   9.290   6.275
15215WAT     H245888   5.225   9.351   6.407
15216WAT      O45889   6.659   1.166   6.944
15216WAT     H145890   6.741   1.115   6.921
15216WAT     H245891   6.586   1.103   6.969
15217WAT      O45892   2.766   9.146   5.595
15217WAT     H145893   2.745   9.244   5.598
15217WAT     H245894   2.711   9.099   5.665
15218WAT      O45895   1.692   9.687   6.320
15218WAT     H145896   1.638   9.624   6.375
15218WAT     H245897   1.746   9.636   6.253
15219WAT      O45898   0.436   0.154   5.283
15219WAT     H145899   0.453   0.062   5.248
15219WAT     H245900   0.438   0.219   5.207
15220WAT      O45901   1.565   7.369   5.593
15220WAT     H145902   1.519   7.336   5.676
15220WAT     H245903   1.650   7.319   5.580
15221WAT      O45904   7.766   8.753   9.839
15221WAT     H145905   7.752   8.718   9.747
15221WAT     H245906   7.834   8.827   9.837
15222WAT      O45907   7.503   5.838   8.014
15222WAT     H145908   7.579   5.870   7.958
15222WAT     H245909   7.472   5.748   7.981
15223WAT      O45910   4.857   8.203   3.888
15223WAT     H145911   4.913   8.225   3.808
15223WAT     H245912   4.790   8.277   3.902
15224WAT      O45913   7.894   2.325   3.085
15224WAT     H145914   7.920   2.237   3.125
15224WAT     H245915   7.964   2.355   3.021
15225WAT      O45916   2.992   8.848   2.873
15225WAT     H145917   3.056   8.789   2.824
15225WAT     H245918   3.030   8.872   2.962
15226WAT      O45919   3.531   9.816   8.870
15226WAT     H145920   3.470   9.874   8.815
15226WAT     H245921   3.480   9.780   8.949
15227WAT      O45922   3.508   7.694   2.621
15227WAT     H145923   3.432   7.679   2.684
15227WAT     H245924   3.480   7.760   2.551
15228WAT      O45925   7.385   8.141   0.171
15228WAT     H145926   7.384   8.043   0.192
15228WAT     H245927   7.427   8.191   0.246
15229WAT      O45928   4.191   8.947   1.319
15229WAT     H145929   4.104   8.984   1.286
15229WAT     H245930   4.266   8.984   1.265
15230WAT      O45931   9.220   3.506   4.386
15230WAT     H145932   9.225   3.416   4.430
15230WAT     H245933   9.183   3.497   4.294
15231WAT      O45934   1.544   3.890   2.815
15231WAT     H145935   1.625   3.862   2.866
15231WAT     H245936   1.478   3.932   2.877
15232WAT      O45937   3.660   3.087   0.107
15232WAT     H145938   3.657   3.009   0.170
15232WAT     H245939   3.722   3.065   0.031
15233WAT      O45940   7.867   0.855   0.013
15233WAT     H145941   7.933   0.818  -0.053
15233WAT     H245942   7.901   0.838   0.105
15234WAT      O45943   6.861   2.669   6.868
15234WAT     H145944   6.880   2.704   6.777
15234WAT     H245945   6.942   2.621   6.903
15235WAT      O45946   5.353   3.285   6.623
15235WAT     H145947   5.394   3.350   6.558
15235WAT     H245948   5.316   3.207   6.573
15236WAT      O45949   2.205   2.288   0.066
15236WAT     H145950   2.283   2.261   0.123
15236WAT     H245951   2.139   2.338   0.122
15237WAT      O45952   4.381   1.431   8.918
15237WAT     H145953   4.360   1.525   8.943
15237WAT     H245954   4.332   1.407   8.834
15238WAT      O45955   1.717   0.681   8.649
15238WAT     H145956   1.710   0.594   8.599
15238WAT     H245957   1.691   0.667   8.744
15239WAT      O45958   0.600   4.221   7.218
15239WAT     H145959   0.656   4.297   7.253
15239WAT     H245960   0.516   4.258   7.178
15240WAT      O45961   5.948   3.397   8.678
15240WAT     H145962   5.916   3.392   8.773
15240WAT     H245963   6.021   3.330   8.664
15241WAT      O45964   8.585   5.628   1.944
15241WAT     H145965   8.656   5.558   1.944
15241WAT     H245966   8.530   5.621   1.862
15242WAT      O45967   8.715   1.398   5.648
15242WAT     H145968   8.692   1.367   5.556
15242WAT     H245969   8.634   1.439   5.691
15243WAT      O45970   2.079   8.051   5.840
15243WAT     H145971   2.083   7.961   5.797
15243WAT     H245972   2.061   8.120   5.770
15244WAT      O45973   4.670   7.543   0.776
15244WAT     H145974   4.654   7.453   0.815
15244WAT     H245975   4.693   7.534   0.679
15245WAT      O45976   0.830   8.253   1.526
15245WAT     H145977   0.853   8.189   1.453
15245WAT     H245978   0.892   8.331   1.523
15246WAT      O45979   1.792   0.823   7.241
15246WAT     H145980   1.754   0.915   7.247
15246WAT     H245981   1.717   0.757   7.234
15247WAT      O45982   1.023   2.959   6.994
15247WAT     H145983   1.080   2.917   7.065
15247WAT     H245984   0.989   2.888   6.932
15248WAT      O45985   7.076   1.025   2.329
15248WAT     H145986   7.025   0.967   2.265
15248WAT     H245987   7.113   1.104   2.280
15249WAT      O45988   9.481   3.981   5.901
15249WAT     H145989   9.408   3.916   5.923
15249WAT     H245990   9.561   3.932   5.866
15250WAT      O45991   4.279   6.660   6.730
15250WAT     H145992   4.319   6.585   6.782
15250WAT     H245993   4.333   6.675   6.647
15251WAT      O45994   3.839   4.806   6.467
15251WAT     H145995   3.938   4.799   6.462
15251WAT     H245996   3.801   4.719   6.499
15252WAT      O45997   6.944   0.508   0.546
15252WAT     H145998   6.939   0.606   0.531
15252WAT     H245999   6.919   0.460   0.462
15253WAT      O46000   2.197   3.323   2.753
15253WAT     H146001   2.176   3.258   2.826
15253WAT     H246002   2.201   3.416   2.791
15254WAT      O46003   6.406   3.619   6.377
15254WAT     H146004   6.331   3.558   6.351
15254WAT     H246005   6.435   3.597   6.470
15255WAT      O46006   7.326   4.552   6.560
15255WAT     H146007   7.277   4.491   6.498
15255WAT     H246008   7.370   4.499   6.632
15256WAT      O46009   2.285   9.603   5.495
15256WAT     H146010   2.382   9.585   5.508
15256WAT     H246011   2.244   9.529   5.441
15257WAT      O46012   4.607   7.999   7.909
15257WAT     H146013   4.558   7.936   7.969
15257WAT     H246014   4.550   8.079   7.891
15258WAT      O46015   9.090   0.304   2.235
15258WAT     H146016   9.139   0.337   2.155
15258WAT     H246017   9.152   0.248   2.291
15259WAT      O46018   3.772   1.097   5.645
15259WAT     H146019   3.687   1.061   5.607
15259WAT     H246020   3.759   1.120   5.741
15260WAT      O46021   2.158   8.114   9.122
15260WAT     H146022   2.107   8.094   9.205
15260WAT     H246023   2.256   8.120   9.143
15261WAT      O46024   0.651   9.590   2.374
15261WAT     H146025   0.697   9.676   2.351
15261WAT     H246026   0.610   9.598   2.465
15262WAT      O46027   0.226   5.841   7.335
15262WAT     H146028   0.146   5.813   7.282
15262WAT     H246029   0.199   5.861   7.429
15263WAT      O46030   0.099   5.029   8.972
15263WAT     H146031   0.088   4.942   8.923
15263WAT     H246032   0.145   5.011   9.059
15264WAT      O46033   9.756   5.180   1.746
15264WAT     H146034   9.823   5.254   1.743
15264WAT     H246035   9.744   5.150   1.841
15265WAT      O46036   7.687   4.652   4.891
15265WAT     H146037   7.656   4.564   4.854
15265WAT     H246038   7.786   4.651   4.900
15266WAT      O46039   1.794   7.834   7.486
15266WAT     H146040   1.872   7.772   7.480
15266WAT     H246041   1.720   7.789   7.535
15267WAT      O46042   9.292   4.938   4.858
15267WAT     H146043   9.368   4.897   4.808
15267WAT     H246044   9.210   4.882   4.846
15268WAT      O46045   3.058   0.826   7.950
15268WAT     H146046   3.091   0.732   7.946
15268WAT     H246047   3.091   0.870   8.033
15269WAT      O46048   4.168   8.413   4.631
15269WAT     H146049   4.268   8.413   4.639
15269WAT     H246050   4.141   8.454   4.544
15270WAT      O46051   1.482   4.086   7.852
15270WAT     H146052   1.519   4.095   7.759
15270WAT     H246053   1.529   4.151   7.912
15271WAT      O46054   2.939   5.834   6.198
15271WAT     H146055   2.939   5.924   6.242
15271WAT     H246056   2.920   5.844   6.100
15272WAT      O46057   4.271   2.995   4.455
15272WAT     H146058   4.352   2.936   4.455
15272WAT     H246059   4.290   3.079   4.405
15273WAT      O46060   8.679   4.740   0.618
15273WAT     H146061   8.663   4.757   0.521
15273WAT     H246062   8.591   4.734   0.666
15274WAT      O46063   7.037   7.845   7.031
15274WAT     H146064   7.129   7.872   7.002
15274WAT     H246065   6.989   7.924   7.068
15275WAT      O46066   0.142   7.270   3.839
15275WAT     H146067   0.075   7.293   3.768
15275WAT     H246068   0.199   7.350   3.857
15276WAT      O46069   2.399   6.463   5.266
15276WAT     H146070   2.365   6.516   5.188
15276WAT     H246071   2.364   6.369   5.261
15277WAT      O46072   1.480   7.705   5.878
15277WAT     H146073   1.577   7.708   5.854
15277WAT     H246074   1.442   7.616   5.852
15278WAT      O46075   3.995   1.547   3.776
15278WAT     H146076   4.012   1.610   3.700
15278WAT     H246077   3.909   1.498   3.761
15279WAT      O46078   6.622   3.323   3.571
15279WAT     H146079   6.574   3.245   3.611
15279WAT     H246080   6.680   3.291   3.496
15280WAT      O46081   3.758   2.036   1.396
15280WAT     H146082   3.674   2.086   1.375
15280WAT     H246083   3.828   2.100   1.427
15281WAT      O46084   3.508   8.312   3.309
15281WAT     H146085   3.604   8.285   3.305
15281WAT     H246086   3.502   8.411   3.323
15282WAT      O46087   4.727   6.294   9.398
15282WAT     H146088   4.655   6.319   9.463
15282WAT     H246089   4.703   6.207   9.354
15283WAT      O46090   3.660   8.206   8.802
15283WAT     H146091   3.573   8.208   8.752
15283WAT     H246092   3.733   8.239   8.743
15284WAT      O46093   0.967   2.206   9.454
15284WAT     H146094   1.058   2.209   9.495
15284WAT     H246095   0.974   2.207   9.354
15285WAT      O46096   7.080   2.237   8.722
15285WAT     H146097   7.129   2.316   8.684
15285WAT     H246098   7.036   2.263   8.808
15286WAT      O46099   3.691   7.666   0.121
15286WAT     H146100   3.740   7.617   0.049
15286WAT     H246101   3.598   7.628   0.129
15287WAT      O46102   6.497   2.405   2.408
15287WAT     H146103   6.409   2.363   2.429
15287WAT     H246104   6.519   2.388   2.311
15288WAT      O46105   6.010   5.476   1.302
15288WAT     H146106   5.942   5.435   1.362
15288WAT     H246107   6.074   5.530   1.357
15289WAT      O46108   8.612   5.529   7.604
15289WAT     H146109   8.597   5.589   7.683
15289WAT     H246110   8.526   5.514   7.556
15290WAT      O46111   1.263   2.854   3.935
15290WAT     H146112   1.168   2.879   3.954
15290WAT     H246113   1.279   2.856   3.837
15291WAT      O46114   3.392   3.684   2.601
15291WAT     H146115   3.480   3.731   2.606
15291WAT     H246116   3.328   3.739   2.547
15292WAT      O46117   1.373   8.304   5.069
15292WAT     H146118   1.396   8.401   5.072
15292WAT     H246119   1.431   8.258   5.001
15293WAT      O46120   7.894   2.039   9.846
15293WAT     H146121   7.854   2.079   9.764
15293WAT     H246122   7.828   1.974   9.886
15294WAT      O46123   1.708   6.627   0.698
15294WAT     H146124   1.778   6.592   0.636
15294WAT     H246125   1.669   6.551   0.749
15295WAT      O46126   0.055   7.005   2.104
15295WAT     H146127   0.018   6.960   2.185
15295WAT     H246128   0.105   7.087   2.130
15296WAT      O46129   6.258   6.227   4.744
15296WAT     H146130   6.177   6.188   4.789
15296WAT     H246131   6.290   6.165   4.673
15297WAT      O46132   1.982   3.987   1.092
15297WAT     H146133   2.054   3.944   1.146
15297WAT     H246134   2.005   3.982   0.995
15298WAT      O46135   4.743   6.544   2.204
15298WAT     H146136   4.808   6.584   2.140
15298WAT     H246137   4.671   6.497   2.152
15299WAT      O46138   6.767   2.240   9.662
15299WAT     H146139   6.743   2.187   9.744
15299WAT     H246140   6.853   2.205   9.624
15300WAT      O46141   4.622   2.257   4.517
15300WAT     H146142   4.582   2.292   4.432
15300WAT     H246143   4.696   2.318   4.547
15301WAT      O46144   7.979   1.756   7.864
15301WAT     H146145   7.997   1.854   7.857
15301WAT     H246146   7.880   1.740   7.864
15302WAT      O46147   1.963   3.510   5.457
15302WAT     H146148   2.040   3.570   5.477
15302WAT     H246149   1.949   3.505   5.358
15303WAT      O46150   4.803   0.037   7.889
15303WAT     H146151   4.794   0.136   7.886
15303WAT     H246152   4.791   0.005   7.983
15304WAT      O46153   4.258   0.264   4.633
15304WAT     H146154   4.357   0.259   4.620
15304WAT     H246155   4.234   0.222   4.721
15305WAT      O46156   5.931   1.329   2.167
15305WAT     H146157   5.958   1.253   2.227
15305WAT     H246158   5.838   1.314   2.134
15306WAT      O46159   9.824   8.579   2.876
15306WAT     H146160   9.866   8.669   2.862
15306WAT     H246161   9.851   8.518   2.801
15307WAT      O46162   9.838   3.993   0.704
15307WAT     H146163   9.938   4.002   0.698
15307WAT     H246164   9.805   4.041   0.785
15308WAT      O46165   7.034   7.347   6.887
15308WAT     H146166   7.036   7.372   6.984
15308WAT     H246167   7.045   7.430   6.832
15309WAT      O46168   0.935   5.877   8.502
15309WAT     H146169   1.023   5.845   8.469
15309WAT     H246170   0.935   5.878   8.602
15310WAT      O46171   7.186   4.120   4.108
15310WAT     H146172   7.256   4.174   4.062
15310WAT     H246173   7.133   4.069   4.040
15311WAT      O46174   2.572   5.292   7.875
15311WAT     H146175   2.572   5.226   7.800
15311WAT     H246176   2.641   5.267   7.942
15312WAT      O46177   2.771   2.750   6.068
15312WAT     H146178   2.840   2.822   6.059
15312WAT     H246179   2.690   2.786   6.113
15313WAT      O46180   0.226   4.475   0.856
15313WAT     H146181   0.285   4.405   0.896
15313WAT     H246182   0.227   4.466   0.756
15314WAT      O46183   4.592   7.956   0.304
15314WAT     H146184   4.593   8.056   0.299
15314WAT     H246185   4.550   7.928   0.390
15315WAT      O46186   3.077   3.429   3.479
15315WAT     H146187   3.037   3.484   3.406
15315WAT     H246188   3.038   3.337   3.476
15316WAT      O46189   5.368   0.665   5.690
15316WAT     H146190   5.292   0.617   5.733
15316WAT     H246191   5.401   0.613   5.611
15317WAT      O46192   0.358   4.058   2.042
15317WAT     H146193   0.451   4.023   2.035
15317WAT     H246194   0.328   4.090   1.952
15318WAT      O46195   3.270   3.704   6.728
15318WAT     H146196   3.200   3.699   6.799
15318WAT     H246197   3.227   3.698   6.638
15319WAT      O46198   9.607   0.101   2.316
15319WAT     H146199   9.574   0.064   2.229
15319WAT     H246200   9.680   0.042   2.351
15320WAT      O46201   9.708   7.957   8.309
15320WAT     H146202   9.807   7.966   8.296
15320WAT     H246203   9.661   7.981   8.224
15321WAT      O46204   4.501   4.583   0.441
15321WAT     H146205   4.505   4.539   0.531
15321WAT     H246206   4.468   4.517   0.373
15322WAT      O46207   4.393   8.199   4.131
15322WAT     H146208   4.421   8.115   4.177
15322WAT     H246209   4.352   8.176   4.043
15323WAT      O46210   5.908   3.796   9.846
15323WAT     H146211   5.848   3.730   9.802
15323WAT     H246212   5.866   3.887   9.843
15324WAT      O46213   7.913   9.838   0.891
15324WAT     H146214   7.842   9.806   0.828
15324WAT     H246215   8.002   9.835   0.845
15325WAT      O46216   9.459   3.339   1.616
15325WAT     H146217   9.389   3.312   1.549
15325WAT     H246218   9.435   3.301   1.705
15326WAT      O46219   5.014   6.583   5.121
15326WAT     H146220   4.995   6.498   5.170
15326WAT     H246221   5.070   6.564   5.041
15327WAT      O46222   7.741   3.482   1.706
15327WAT     H146223   7.768   3.557   1.645
15327WAT     H246224   7.763   3.395   1.662
15328WAT      O46225   6.287   4.240   0.848
15328WAT     H146226   6.227   4.321   0.846
15328WAT     H246227   6.274   4.187   0.765
15329WAT      O46228   0.566   3.579   7.940
15329WAT     H146229   0.657   3.549   7.914
15329WAT     H246230   0.512   3.500   7.969
15330WAT      O46231   8.736   2.573   9.817
15330WAT     H146232   8.744   2.498   9.884
15330WAT     H246233   8.752   2.660   9.863
15331WAT      O46234   2.597   8.406   6.554
15331WAT     H146235   2.632   8.363   6.471
15331WAT     H246236   2.530   8.346   6.598
15332WAT      O46237   0.044   6.529   6.788
15332WAT     H146238   0.010   6.504   6.879
15332WAT     H246239  -0.020   6.592   6.744
15333WAT      O46240   0.379   9.654   2.654
15333WAT     H146241   0.387   9.753   2.656
15333WAT     H246242   0.329   9.626   2.572
15334WAT      O46243   3.967   2.187   4.872
15334WAT     H146244   3.943   2.270   4.923
15334WAT     H246245   3.954   2.107   4.930
15335WAT      O46246   6.240   3.035   5.518
15335WAT     H146247   6.184   2.952   5.517
15335WAT     H246248   6.255   3.067   5.424
15336WAT      O46249   3.536   0.798   8.504
15336WAT     H146250   3.517   0.718   8.446
15336WAT     H246251   3.580   0.768   8.588
15337WAT      O46252   7.565   7.918   9.546
15337WAT     H146253   7.664   7.921   9.557
15337WAT     H246254   7.522   7.917   9.637
15338WAT      O46255   2.220   6.116   2.155
15338WAT     H146256   2.128   6.079   2.168
15338WAT     H246257   2.276   6.049   2.106
15339WAT      O46258   3.819   1.503   4.577
15339WAT     H146259   3.743   1.499   4.512
15339WAT     H246260   3.836   1.598   4.602
15340WAT      O46261   3.232   9.036   1.575
15340WAT     H146262   3.191   9.072   1.660
15340WAT     H246263   3.193   9.086   1.497
15341WAT      O46264   6.365   4.332   1.103
15341WAT     H146265   6.396   4.268   1.173
15341WAT     H246266   6.334   4.281   1.022
15342WAT      O46267   8.231   7.394   5.142
15342WAT     H146268   8.173   7.469   5.110
15342WAT     H246269   8.306   7.381   5.078
15343WAT      O46270   2.522   2.672   2.113
15343WAT     H146271   2.434   2.703   2.148
15343WAT     H246272   2.565   2.745   2.060
15344WAT      O46273   2.733   7.766   4.187
15344WAT     H146274   2.814   7.769   4.129
15344WAT     H246275   2.760   7.764   4.283
15345WAT      O46276   9.844   6.774   7.754
15345WAT     H146277   9.745   6.788   7.747
15345WAT     H246278   9.884   6.850   7.805
15346WAT      O46279   2.995   5.337   8.150
15346WAT     H146280   2.975   5.415   8.208
15346WAT     H246281   3.066   5.361   8.084
15347WAT      O46282   5.757   2.010   2.749
15347WAT     H146283   5.685   2.079   2.749
15347WAT     H246284   5.722   1.926   2.707
15348WAT      O46285   6.496   4.267   8.081
15348WAT     H146286   6.500   4.239   8.177
15348WAT     H246287   6.452   4.195   8.027
15349WAT      O46288   7.793   1.381   6.844
15349WAT     H146289   7.699   1.407   6.826
15349WAT     H246290   7.834   1.447   6.908
15350WAT      O46291   7.010   1.032   1.960
15350WAT     H146292   6.982   0.968   2.031
15350WAT     H246293   6.932   1.090   1.936
15351WAT      O46294   4.213   7.773   0.091
15351WAT     H146295   4.273   7.731   0.160
15351WAT     H246296   4.238   7.869   0.079
15352WAT      O46297   9.763   9.793   7.417
15352WAT     H146298   9.729   9.722   7.479
15352WAT     H246299   9.698   9.804   7.342
15353WAT      O46300   1.236   6.630   5.401
15353WAT     H146301   1.332   6.609   5.380
15353WAT     H246302   1.230   6.663   5.496
15354WAT      O46303   0.184   2.957   9.044
15354WAT     H146304   0.137   3.018   9.107
15354WAT     H246305   0.265   3.003   9.007
15355WAT      O46306   1.696   1.079   9.788
15355WAT     H146307   1.716   1.001   9.848
15355WAT     H246308   1.601   1.108   9.800
15356WAT      O46309   0.868   5.833   6.367
15356WAT     H146310   0.855   5.930   6.345
15356WAT     H246311   0.836   5.777   6.291
15357WAT      O46312   5.697   2.740   8.509
15357WAT     H146313   5.651   2.761   8.423
15357WAT     H246314   5.795   2.758   8.499
15358WAT      O46315   0.541   1.811   2.377
15358WAT     H146316   0.527   1.849   2.286
15358WAT     H246317   0.456   1.770   2.410
15359WAT      O46318   0.244   4.279   2.972
15359WAT     H146319   0.180   4.335   2.919
15359WAT     H246320   0.293   4.218   2.910
15360WAT      O46321   8.003   9.833   8.742
15360WAT     H146322   8.017   9.831   8.643
15360WAT     H246323   7.972   9.924   8.770
15361WAT      O46324   5.547   9.788   5.417
15361WAT     H146325   5.492   9.736   5.351
15361WAT     H246326   5.495   9.802   5.501
15362WAT      O46327   3.218   8.960   4.090
15362WAT     H146328   3.175   8.958   4.000
15362WAT     H246329   3.264   9.048   4.103
15363WAT      O46330   7.979   6.456   4.149
15363WAT     H146331   8.061   6.485   4.100
15363WAT     H246332   7.966   6.357   4.136
15364WAT      O46333   5.369   0.939   1.167
15364WAT     H146334   5.459   0.961   1.204
15364WAT     H246335   5.303   0.931   1.242
15365WAT      O46336   9.841   3.018   2.593
15365WAT     H146337   9.867   3.078   2.668
15365WAT     H246338   9.923   2.982   2.549
15366WAT      O46339   1.466   3.938   3.442
15366WAT     H146340   1.483   4.007   3.373
15366WAT     H246341   1.431   3.855   3.398
15367WAT      O46342   8.465   0.452   0.622
15367WAT     H146343   8.384   0.474   0.675
15367WAT     H246344   8.547   0.476   0.674
15368WAT      O46345   2.979   3.129   4.137
15368WAT     H146346   3.026   3.041   4.152
15368WAT     H246347   3.042   3.204   4.157
15369WAT      O46348   6.453   8.128   1.052
15369WAT     H146349   6.471   8.109   1.149
15369WAT     H246350   6.540   8.141   1.005
15370WAT      O46351   3.310   8.477   9.573
15370WAT     H146352   3.382   8.530   9.617
15370WAT     H246353   3.265   8.419   9.642
15371WAT      O46354   8.560   0.417   4.640
15371WAT     H146355   8.576   0.463   4.552
15371WAT     H246356   8.462   0.395   4.648
15372WAT      O46357   8.888   6.259   8.177
15372WAT     H146358   8.876   6.357   8.162
15372WAT     H246359   8.884   6.239   8.275
15373WAT      O46360   6.324   5.247   4.617
15373WAT     H146361   6.345   5.343   4.639
15373WAT     H246362   6.279   5.243   4.528
15374WAT      O46363   3.880   4.378   1.743
15374WAT     H146364   3.895   4.407   1.649
15374WAT     H246365   3.948   4.420   1.803
15375WAT      O46366   2.981   7.509   7.002
15375WAT     H146367   2.931   7.434   6.958
15375WAT     H246368   3.035   7.557   6.933
15376WAT      O46369   6.329   1.595   8.862
15376WAT     H146370   6.331   1.607   8.961
15376WAT     H246371   6.315   1.683   8.818
15377WAT      O46372   2.071   1.632   9.060
15377WAT     H146373   2.130   1.678   9.126
15377WAT     H246374   2.100   1.656   8.967
15378WAT      O46375   3.528   5.979   4.163
15378WAT     H146376   3.612   5.988   4.110
15378WAT     H246377   3.449   5.995   4.104
15379WAT      O46378   7.336   8.730   1.179
15379WAT     H146379   7.297   8.642   1.151
15379WAT     H246380   7.307   8.752   1.272
15380WAT      O46381   1.721   0.261   4.699
15380WAT     H146382   1.724   0.298   4.606
15380WAT     H246383   1.797   0.197   4.712
15381WAT      O46384   9.047   2.147   0.458
15381WAT     H146385   9.092   2.102   0.535
15381WAT     H246386   9.042   2.084   0.381
15382WAT      O46387   9.544   5.537   6.505
15382WAT     H146388   9.615   5.591   6.460
15382WAT     H246389   9.454   5.567   6.473
15383WAT      O46390   1.155   3.060   2.901
15383WAT     H146391   1.091   3.023   2.833
15383WAT     H246392   1.117   3.044   2.993
15384WAT      O46393   3.316   8.927   3.243
15384WAT     H146394   3.258   8.979   3.181
15384WAT     H246395   3.264   8.901   3.324
15385WAT      O46396   5.534   2.738   3.396
15385WAT     H146397   5.440   2.756   3.425
15385WAT     H246398   5.582   2.687   3.468
15386WAT      O46399   6.591   7.488   9.187
15386WAT     H146400   6.683   7.462   9.158
15386WAT     H246401   6.575   7.458   9.280
15387WAT      O46402   3.451   0.490   3.698
15387WAT     H146403   3.439   0.581   3.659
15387WAT     H246404   3.367   0.461   3.743
15388WAT      O46405   3.327   7.173   7.320
15388WAT     H146406   3.296   7.097   7.264
15388WAT     H246407   3.350   7.251   7.261
15389WAT      O46408   0.911   6.538   5.740
15389WAT     H146409   0.944   6.632   5.726
15389WAT     H246410   0.829   6.540   5.797
15390WAT      O46411   9.049   1.194   6.001
15390WAT     H146412   9.142   1.203   5.964
15390WAT     H246413   8.983   1.201   5.927
15391WAT      O46414   0.348   3.372   0.449
15391WAT     H146415   0.336   3.457   0.501
15391WAT     H246416   0.268   3.314   0.460
15392WAT      O46417   2.989   0.228   5.404
15392WAT     H146418   3.052   0.302   5.381
15392WAT     H246419   3.034   0.140   5.388
15393WAT      O46420   0.769   3.224   4.947
15393WAT     H146421   0.821   3.277   4.880
15393WAT     H246422   0.831   3.166   4.999
15394WAT      O46423   8.460   7.107   5.482
15394WAT     H146424   8.502   7.059   5.560
15394WAT     H246425   8.516   7.095   5.401
15395WAT      O46426   5.351   8.398   6.812
15395WAT     H146427   5.290   8.338   6.864
15395WAT     H246428   5.390   8.347   6.735
15396WAT      O46429   9.197   8.274   2.092
15396WAT     H146430   9.177   8.305   2.185
15396WAT     H246431   9.204   8.174   2.092
15397WAT      O46432   6.457   1.644   3.134
15397WAT     H146433   6.553   1.637   3.108
15397WAT     H246434   6.407   1.695   3.064
15398WAT      O46435   6.791   1.314   3.702
15398WAT     H146436   6.851   1.240   3.671
15398WAT     H246437   6.698   1.298   3.669
15399WAT      O46438   7.516   1.186   6.474
15399WAT     H146439   7.592   1.137   6.517
15399WAT     H246440   7.484   1.258   6.534
15400WAT      O46441   8.968   7.980   7.053
15400WAT     H146442   8.959   7.956   6.956
15400WAT     H246443   8.880   8.009   7.089
15401WAT      O46444   6.477   4.868   1.717
15401WAT     H146445   6.552   4.934   1.708
15401WAT     H246446   6.512   4.775   1.701
15402WAT      O46447   1.686  -0.003   0.464
15402WAT     H146448   1.763   0.000   0.528
15402WAT     H246449   1.702   0.062   0.389
15403WAT      O46450   9.666   5.665   3.972
15403WAT     H146451   9.623   5.749   4.005
15403WAT     H246452   9.731   5.687   3.899
15404WAT      O46453   9.503   8.490   8.557
15404WAT     H146454   9.468   8.414   8.612
15404WAT     H246455   9.427   8.530   8.506
15405WAT      O46456   4.736   3.982   3.720
15405WAT     H146457   4.757   3.972   3.622
15405WAT     H246458   4.819   3.965   3.773
15406WAT      O46459   9.200   4.487   5.227
15406WAT     H146460   9.168   4.479   5.132
15406WAT     H246461   9.159   4.568   5.269
15407WAT      O46462   7.405   3.794   1.434
15407WAT     H146463   7.416   3.826   1.339
15407WAT     H246464   7.450   3.858   1.496
15408WAT      O46465   2.462   9.264   3.802
15408WAT     H146466   2.551   9.218   3.795
15408WAT     H246467   2.398   9.203   3.848
15409WAT      O46468   5.721   8.858   4.312
15409WAT     H146469   5.632   8.886   4.347
15409WAT     H246470   5.775   8.819   4.386
15410WAT      O46471   6.986   8.664   9.054
15410WAT     H146472   7.003   8.596   9.125
15410WAT     H246473   6.899   8.644   9.009
15411WAT      O46474   6.487   2.405   6.766
15411WAT     H146475   6.483   2.429   6.669
15411WAT     H246476   6.531   2.479   6.817
15412WAT      O46477   0.589   2.608   8.799
15412WAT     H146478   0.657   2.538   8.777
15412WAT     H246479   0.505   2.590   8.748
15413WAT      O46480   4.136   1.044   0.426
15413WAT     H146481   4.180   0.979   0.488
15413WAT     H246482   4.067   1.097   0.475
15414WAT      O46483   1.880   2.483   1.729
15414WAT     H146484   1.973   2.455   1.754
15414WAT     H246485   1.859   2.451   1.637
15415WAT      O46486   7.258   6.502   2.581
15415WAT     H146487   7.249   6.435   2.655
15415WAT     H246488   7.170   6.512   2.534
15416WAT      O46489   6.137   2.586   9.286
15416WAT     H146490   6.190   2.540   9.214
15416WAT     H246491   6.115   2.520   9.358
15417WAT      O46492   3.762   2.186   8.033
15417WAT     H146493   3.713   2.248   7.972
15417WAT     H246494   3.724   2.093   8.023
15418WAT      O46495   3.260   0.708   2.308
15418WAT     H146496   3.163   0.685   2.298
15418WAT     H246497   3.301   0.649   2.378
15419WAT      O46498   3.325   3.808   8.306
15419WAT     H146499   3.291   3.885   8.360
15419WAT     H246500   3.408   3.835   8.257
15420WAT      O46501   0.639   8.319   7.693
15420WAT     H146502   0.625   8.404   7.643
15420WAT     H246503   0.723   8.274   7.661
15421WAT      O46504   0.805   6.703   1.258
15421WAT     H146505   0.770   6.621   1.213
15421WAT     H246506   0.902   6.715   1.237
15422WAT      O46507   1.998   1.221   7.191
15422WAT     H146508   2.082   1.183   7.228
15422WAT     H246509   1.951   1.274   7.261
15423WAT      O46510   5.712   8.270   0.848
15423WAT     H146511   5.655   8.210   0.905
15423WAT     H246512   5.777   8.318   0.906
15424WAT      O46513   1.186   0.398   0.480
15424WAT     H146514   1.178   0.497   0.467
15424WAT     H246515   1.160   0.374   0.573
15425WAT      O46516   4.687   5.656   9.093
15425WAT     H146517   4.609   5.688   9.039
15425WAT     H246518   4.678   5.558   9.110
15426WAT      O46519   8.254   6.810   4.193
15426WAT     H146520   8.208   6.729   4.230
15426WAT     H246521   8.334   6.831   4.249
15427WAT      O46522   7.252   2.386   8.136
15427WAT     H146523   7.226   2.290   8.138
15427WAT     H246524   7.223   2.427   8.049
15428WAT      O46525   3.479   9.212   6.549
15428WAT     H146526   3.414   9.213   6.474
15428WAT     H246527   3.442   9.159   6.625
15429WAT      O46528   4.926   1.161   7.315
15429WAT     H146529   4.946   1.094   7.244
15429WAT     H246530   4.881   1.241   7.275
15430WAT      O46531   7.799   9.338   9.264
15430WAT     H146532   7.813   9.307   9.170
15430WAT     H246533   7.840   9.428   9.276
15431WAT      O46534   0.364   5.543   5.624
15431WAT     H146535   0.359   5.630   5.575
15431WAT     H246536   0.386   5.470   5.560
15432WAT      O46537   4.409   2.995   8.832
15432WAT     H146538   4.495   3.045   8.827
15432WAT     H246539   4.372   3.002   8.924
15433WAT      O46540   3.028   9.730   4.175
15433WAT     H146541   3.121   9.698   4.157
15433WAT     H246542   3.010   9.729   4.273
15434WAT      O46543   8.883   3.788   1.631
15434WAT     H146544   8.837   3.724   1.570
15434WAT     H246545   8.980   3.764   1.638
15435WAT      O46546   9.630   7.037   2.252
15435WAT     H146547   9.657   7.009   2.344
15435WAT     H246548   9.646   6.963   2.187
15436WAT      O46549   1.824   9.227   2.886
15436WAT     H146550   1.786   9.153   2.941
15436WAT     H246551   1.922   9.213   2.874
15437WAT      O46552   9.768   7.498   8.935
15437WAT     H146553   9.816   7.581   8.907
15437WAT     H246554   9.830   7.420   8.931
15438WAT      O46555   1.418   8.022   2.441
15438WAT     H146556   1.401   8.028   2.343
15438WAT     H246557   1.332   8.034   2.491
15439WAT      O46558   1.665   4.499   4.134
15439WAT     H146559   1.742   4.438   4.114
15439WAT     H246560   1.677   4.585   4.084
15440WAT      O46561   3.356   0.533   0.191
15440WAT     H146562   3.347   0.574   0.100
15440WAT     H246563   3.369   0.434   0.181
15441WAT      O46564   7.572   6.856   8.839
15441WAT     H146565   7.564   6.795   8.761
15441WAT     H246566   7.589   6.802   8.922
15442WAT      O46567   4.419   6.786   5.973
15442WAT     H146568   4.374   6.757   6.058
15442WAT     H246569   4.362   6.760   5.895
15443WAT      O46570   3.055   5.980   6.577
15443WAT     H146571   2.996   5.988   6.497
15443WAT     H246572   3.130   6.046   6.569
15444WAT      O46573   2.915   3.454   8.649
15444WAT     H146574   2.838   3.449   8.585
15444WAT     H246575   3.001   3.451   8.598
15445WAT      O46576   7.898   5.470   8.854
15445WAT     H146577   7.908   5.569   8.852
15445WAT     H246578   7.956   5.433   8.927
15446WAT      O46579   6.292   8.024   3.006
15446WAT     H146580   6.247   8.070   2.930
15446WAT     H246581   6.224   7.973   3.059
15447WAT      O46582   6.935   6.312   2.832
15447WAT     H146583   6.971   6.402   2.856
15447WAT     H246584   6.879   6.278   2.907
15448WAT      O46585   1.280   7.284   6.936
15448WAT     H146586   1.298   7.188   6.955
15448WAT     H246587   1.190   7.309   6.970
15449WAT      O46588   3.682   1.213   7.983
15449WAT     H146589   3.708   1.131   7.931
15449WAT     H246590   3.601   1.192   8.038
15450WAT      O46591   7.277   7.747   8.816
15450WAT     H146592   7.355   7.800   8.783
15450WAT     H246593   7.288   7.652   8.788
15451WAT      O46594   7.228   9.311   9.588
15451WAT     H146595   7.210   9.410   9.586
15451WAT     H246596   7.163   9.266   9.649
15452WAT      O46597   0.429   5.283   1.254
15452WAT     H146598   0.375   5.365   1.273
15452WAT     H246599   0.523   5.298   1.286
15453WAT      O46600   3.168   8.480   3.210
15453WAT     H146601   3.228   8.555   3.182
15453WAT     H246602   3.168   8.472   3.309
15454WAT      O46603   2.802   4.446   5.494
15454WAT     H146604   2.808   4.412   5.400
15454WAT     H246605   2.743   4.526   5.497
15455WAT      O46606   7.092   3.633   6.720
15455WAT     H146607   7.171   3.636   6.781
15455WAT     H246608   7.043   3.720   6.724
15456WAT      O46609   5.861   9.246   4.631
15456WAT     H146610   5.831   9.338   4.608
15456WAT     H246611   5.837   9.227   4.726
15457WAT      O46612   4.825   3.907   7.540
15457WAT     H146613   4.873   3.829   7.501
15457WAT     H246614   4.793   3.967   7.466
15458WAT      O46615   6.902   4.289   5.346
15458WAT     H146616   6.809   4.254   5.332
15458WAT     H246617   6.900   4.363   5.413
15459WAT      O46618   0.101   9.175   6.558
15459WAT     H146619   0.136   9.188   6.650
15459WAT     H246620   0.060   9.260   6.525
15460WAT      O46621   8.272   7.994   2.225
15460WAT     H146622   8.215   8.077   2.217
15460WAT     H246623   8.331   8.001   2.304
15461WAT      O46624   4.885   7.814   1.345
15461WAT     H146625   4.961   7.749   1.336
15461WAT     H246626   4.804   7.765   1.377
15462WAT      O46627   8.918   5.500   5.451
15462WAT     H146628   9.004   5.530   5.491
15462WAT     H246629   8.858   5.463   5.522
15463WAT      O46630   2.083   5.699   1.562
15463WAT     H146631   2.098   5.792   1.527
15463WAT     H246632   2.004   5.699   1.623
15464WAT      O46633   0.207   3.895   1.713
15464WAT     H146634   0.201   3.799   1.684
15464WAT     H246635   0.149   3.908   1.793
15465WAT      O46636   1.619   0.229   5.822
15465WAT     H146637   1.671   0.238   5.907
15465WAT     H246638   1.547   0.161   5.834
15466WAT      O46639   0.600   6.215   1.416
15466WAT     H146640   0.681   6.271   1.433
15466WAT     H246641   0.527   6.241   1.479
15467WAT      O46642   8.599   2.455   4.809
15467WAT     H146643   8.647   2.503   4.882
15467WAT     H246644   8.522   2.510   4.777
15468WAT      O46645   2.820   2.848   2.766
15468WAT     H146646   2.820   2.814   2.860
15468WAT     H246647   2.739   2.814   2.718
15469WAT      O46648   7.502   3.212   0.730
15469WAT     H146649   7.450   3.243   0.650
15469WAT     H246650   7.442   3.161   0.791
15470WAT      O46651   6.250   8.599   1.081
15470WAT     H146652   6.214   8.634   1.167
15470WAT     H246653   6.234   8.500   1.076
15471WAT      O46654   4.672   4.484   7.335
15471WAT     H146655   4.616   4.555   7.292
15471WAT     H246656   4.679   4.405   7.273
15472WAT      O46657   0.705   6.413   4.773
15472WAT     H146658   0.776   6.458   4.719
15472WAT     H246659   0.625   6.473   4.780
15473WAT      O46660   5.381   4.376   7.854
15473WAT     H146661   5.334   4.463   7.866
15473WAT     H246662   5.320   4.311   7.809
15474WAT      O46663   4.167   9.547   2.457
15474WAT     H146664   4.221   9.480   2.508
15474WAT     H246665   4.152   9.514   2.364
15475WAT      O46666   7.514   1.937   8.590
15475WAT     H146667   7.475   2.029   8.599
15475WAT     H246668   7.442   1.872   8.567
15476WAT      O46669   6.325   3.386   7.691
15476WAT     H146670   6.285   3.433   7.613
15476WAT     H246671   6.413   3.346   7.666
15477WAT      O46672   0.318   4.234   7.990
15477WAT     H146673   0.230   4.215   7.947
15477WAT     H246674   0.391   4.220   7.924
15478WAT      O46675   0.343   9.810   8.372
15478WAT     H146676   0.267   9.870   8.346
15478WAT     H246677   0.313   9.750   8.446
15479WAT      O46678   8.263   1.237   3.393
15479WAT     H146679   8.224   1.298   3.462
15479WAT     H246680   8.201   1.232   3.314
15480WAT      O46681   5.091   8.527   9.342
15480WAT     H146682   5.087   8.626   9.337
15480WAT     H246683   5.038   8.487   9.267
15481WAT      O46684   3.904   7.617   2.976
15481WAT     H146685   3.974   7.645   2.910
15481WAT     H246686   3.816   7.606   2.928
15482WAT      O46687   5.488   7.182   5.713
15482WAT     H146688   5.420   7.151   5.779
15482WAT     H246689   5.443   7.203   5.626
15483WAT      O46690   3.153   2.764   0.112
15483WAT     H146691   3.083   2.732   0.177
15483WAT     H246692   3.124   2.742   0.019
15484WAT      O46693   6.465   6.136   1.051
15484WAT     H146694   6.412   6.071   1.106
15484WAT     H246695   6.463   6.108   0.955
15485WAT      O46696   2.756   8.551   7.748
15485WAT     H146697   2.754   8.468   7.804
15485WAT     H246698   2.847   8.592   7.753
15486WAT      O46699   8.647   3.117   2.620
15486WAT     H146700   8.690   3.036   2.579
15486WAT     H246701   8.594   3.165   2.550
15487WAT      O46702   3.919   3.456   4.437
15487WAT     H146703   3.836   3.402   4.427
15487WAT     H246704   3.894   3.548   4.469
15488WAT      O46705   7.958   2.440   7.361
15488WAT     H146706   7.906   2.355   7.364
15488WAT     H246707   7.983   2.461   7.267
15489WAT      O46708   5.376   9.618   0.055
15489WAT     H146709   5.376   9.718   0.050
15489WAT     H246710   5.406   9.590   0.146
15490WAT      O46711   7.319   9.271   6.715
15490WAT     H146712   7.336   9.210   6.792
15490WAT     H246713   7.223   9.301   6.716
15491WAT      O46714   3.219   2.263   7.282
15491WAT     H146715   3.178   2.208   7.209
15491WAT     H246716   3.318   2.262   7.273
15492WAT      O46717   5.862   2.426   4.661
15492WAT     H146718   5.764   2.415   4.676
15492WAT     H246719   5.877   2.472   4.573
15493WAT      O46720   7.884   2.290   1.803
15493WAT     H146721   7.812   2.248   1.858
15493WAT     H246722   7.958   2.225   1.788
15494WAT      O46723   6.105   3.424   5.515
15494WAT     H146724   6.205   3.421   5.520
15494WAT     H246725   6.067   3.338   5.547
15495WAT      O46726   6.799   8.844   9.178
15495WAT     H146727   6.778   8.933   9.138
15495WAT     H246728   6.871   8.800   9.125
15496WAT      O46729   6.352   0.236   2.344
15496WAT     H146730   6.318   0.249   2.436
15496WAT     H246731   6.330   0.143   2.313
15497WAT      O46732   5.115   7.356   9.673
15497WAT     H146733   5.159   7.370   9.762
15497WAT     H246734   5.016   7.353   9.685
15498WAT      O46735   6.505   1.436   6.701
15498WAT     H146736   6.580   1.481   6.750
15498WAT     H246737   6.543   1.366   6.640
15499WAT      O46738   3.113   1.087   5.097
15499WAT     H146739   3.081   1.028   5.022
15499WAT     H246740   3.193   1.045   5.139
15500WAT      O46741   2.660   4.573   0.496
15500WAT     H146742   2.619   4.486   0.526
15500WAT     H246743   2.725   4.555   0.422
15501WAT      O46744   0.500   5.921   1.946
15501WAT     H146745   0.547   5.921   2.035
15501WAT     H246746   0.498   5.828   1.910
15502WAT      O46747   2.472   8.566   2.643
15502WAT     H146748   2.379   8.603   2.641
15502WAT     H246749   2.467   8.466   2.642
15503WAT      O46750   2.636   0.899   2.778
15503WAT     H146751   2.638   0.901   2.678
15503WAT     H246752   2.544   0.920   2.811
15504WAT      O46753   1.567   5.800   8.229
15504WAT     H146754   1.497   5.866   8.255
15504WAT     H246755   1.590   5.743   8.308
15505WAT      O46756   5.935   7.578   2.489
15505WAT     H146757   6.026   7.549   2.520
15505WAT     H246758   5.942   7.667   2.444
15506WAT      O46759   1.538   8.779   9.833
15506WAT     H146760   1.557   8.762   9.737
15506WAT     H246761   1.523   8.877   9.848
15507WAT      O46762   8.855   5.662   1.076
15507WAT     H146763   8.954   5.656   1.080
15507WAT     H246764   8.827   5.724   1.002
15508WAT      O46765   0.866   6.288   1.555
15508WAT     H146766   0.856   6.220   1.627
15508WAT     H246767   0.857   6.380   1.595
15509WAT      O46768   4.901   5.337   9.857
15509WAT     H146769   4.996   5.344   9.826
15509WAT     H246770   4.866   5.428   9.880
15510WAT      O46771   5.637   8.323   2.010
15510WAT     H146772   5.641   8.399   2.074
15510WAT     H246773   5.559   8.335   1.948
15511WAT      O46774   5.631   3.514   1.641
15511WAT     H146775   5.706   3.511   1.575
15511WAT     H246776   5.543   3.518   1.593
15512WAT      O46777   5.144   1.272   3.382
15512WAT     H146778   5.239   1.248   3.360
15512WAT     H246779   5.132   1.268   3.481
15513WAT      O46780   0.672   8.856   9.307
15513WAT     H146781   0.661   8.763   9.340
15513WAT     H246782   0.716   8.855   9.217
15514WAT      O46783   1.088   6.938   7.012
15514WAT     H146784   1.118   6.854   7.058
15514WAT     H246785   1.042   6.997   7.078
15515WAT      O46786   6.481   9.020   9.017
15515WAT     H146787   6.422   9.095   9.046
15515WAT     H246788   6.425   8.938   9.003
15516WAT      O46789   3.327   6.228   6.990
15516WAT     H146790   3.347   6.159   6.921
15516WAT     H246791   3.234   6.262   6.977
15517WAT      O46792   2.881   6.150   1.229
15517WAT     H146793   2.890   6.240   1.186
15517WAT     H246794   2.870   6.161   1.328
15518WAT      O46795   8.055   6.429   1.892
15518WAT     H146796   8.082   6.398   1.801
15518WAT     H246797   7.955   6.426   1.900
15519WAT      O46798   5.049   9.350   0.484
15519WAT     H146799   5.139   9.385   0.511
15519WAT     H246800   5.022   9.278   0.547
15520WAT      O46801   1.527   3.718   6.164
15520WAT     H146802   1.434   3.736   6.132
15520WAT     H246803   1.592   3.777   6.116
15521WAT      O46804   8.539   1.626   5.516
15521WAT     H146805   8.620   1.684   5.506
15521WAT     H246806   8.528   1.601   5.612
15522WAT      O46807   9.767   4.758   1.094
15522WAT     H146808   9.853   4.808   1.106
15522WAT     H246809   9.754   4.736   0.998
15523WAT      O46810   9.572   5.275   7.195
15523WAT     H146811   9.657   5.259   7.245
15523WAT     H246812   9.578   5.232   7.105
15524WAT      O46813   1.106   7.806   4.435
15524WAT     H146814   1.058   7.820   4.521
15524WAT     H246815   1.198   7.771   4.452
15525WAT      O46816   1.376   5.801   6.046
15525WAT     H146817   1.366   5.785   6.145
15525WAT     H246818   1.308   5.746   5.997
15526WAT      O46819   0.608   7.424   6.120
15526WAT     H146820   0.625   7.385   6.030
15526WAT     H246821   0.509   7.430   6.135
15527WAT      O46822   7.161   7.870   5.800
15527WAT     H146823   7.165   7.839   5.895
15527WAT     H246824   7.140   7.792   5.740
15528WAT      O46825   9.427   2.093   9.609
15528WAT     H146826   9.376   2.090   9.524
15528WAT     H246827   9.525   2.090   9.590
15529WAT      O46828   7.412   0.303   7.965
15529WAT     H146829   7.413   0.401   7.988
15529WAT     H246830   7.403   0.292   7.866
15530WAT      O46831   3.322   8.352   2.572
15530WAT     H146832   3.404   8.347   2.628
15530WAT     H246833   3.336   8.418   2.498
15531WAT      O46834   0.240   1.861   1.688
15531WAT     H146835   0.189   1.947   1.701
15531WAT     H246836   0.177   1.784   1.694
15532WAT      O46837   3.906   0.270   8.710
15532WAT     H146838   3.861   0.181   8.705
15532WAT     H246839   3.972   0.269   8.786
15533WAT      O46840   4.801   2.542   2.036
15533WAT     H146841   4.875   2.539   2.103
15533WAT     H246842   4.822   2.480   1.960
15534WAT      O46843   2.067   2.347   2.664
15534WAT     H146844   2.025   2.274   2.718
15534WAT     H246845   2.158   2.368   2.702
15535WAT      O46846   3.508   2.845   8.520
15535WAT     H146847   3.423   2.893   8.497
15535WAT     H246848   3.583   2.884   8.466
15536WAT      O46849   0.318   5.042   0.651
15536WAT     H146850   0.232   4.993   0.664
15536WAT     H246851   0.365   5.050   0.739
15537WAT      O46852   0.745   5.890   2.753
15537WAT     H146853   0.830   5.863   2.706
15537WAT     H246854   0.747   5.855   2.847
15538WAT      O46855   4.152   7.047   5.427
15538WAT     H146856   4.207   7.040   5.344
15538WAT     H246857   4.069   6.992   5.417
15539WAT      O46858   8.394   4.068   6.195
15539WAT     H146859   8.333   4.010   6.249
15539WAT     H246860   8.407   4.156   6.241
15540WAT      O46861   5.510   2.111   0.926
15540WAT     H146862   5.591   2.169   0.938
15540WAT     H246863   5.539   2.016   0.910
15541WAT      O46864   0.089   3.119   2.805
15541WAT     H146865   0.181   3.158   2.794
15541WAT     H246866   0.088   3.060   2.886
15542WAT      O46867   2.361   0.222   0.782
15542WAT     H146868   2.313   0.168   0.852
15542WAT     H246869   2.456   0.237   0.811
15543WAT      O46870   9.098   7.218   9.133
15543WAT     H146871   9.067   7.313   9.141
15543WAT     H246872   9.071   7.168   9.216
15544WAT      O46873   5.807   8.509   4.296
15544WAT     H146874   5.729   8.497   4.235
15544WAT     H246875   5.892   8.490   4.247
15545WAT      O46876   2.055   1.413   5.527
15545WAT     H146877   2.040   1.486   5.593
15545WAT     H246878   2.087   1.452   5.440
15546WAT      O46879   3.639   1.526   7.696
15546WAT     H146880   3.662   1.487   7.607
15546WAT     H246881   3.560   1.586   7.687
15547WAT      O46882   0.348   9.394   8.345
15547WAT     H146883   0.307   9.380   8.255
15547WAT     H246884   0.405   9.315   8.368
15548WAT      O46885   8.528   1.109   8.348
15548WAT     H146886   8.434   1.078   8.332
15548WAT     H246887   8.569   1.139   8.261
15549WAT      O46888   4.551   4.851   5.397
15549WAT     H146889   4.630   4.821   5.343
15549WAT     H246890   4.560   4.948   5.417
15550WAT      O46891   6.362   8.084   7.813
15550WAT     H146892   6.339   8.168   7.764
15550WAT     H246893   6.322   8.006   7.766
15551WAT      O46894   6.099   1.828   3.594
15551WAT     H146895   6.101   1.870   3.503
15551WAT     H246896   6.158   1.879   3.656
15552WAT      O46897   6.922   7.304   0.875
15552WAT     H146898   6.931   7.248   0.793
15552WAT     H246899   6.912   7.244   0.955
15553WAT      O46900   7.392   0.132   4.036
15553WAT     H146901   7.465   0.064   4.036
15553WAT     H246902   7.432   0.223   4.022
15554WAT      O46903   6.663   5.411   0.401
15554WAT     H146904   6.655   5.382   0.496
15554WAT     H246905   6.676   5.511   0.398
15555WAT      O46906   1.992   6.934   0.031
15555WAT     H146907   2.059   7.002   0.059
15555WAT     H246908   2.001   6.852   0.088
15556WAT      O46909   7.974   3.311   6.639
15556WAT     H146910   7.970   3.404   6.604
15556WAT     H246911   7.920   3.251   6.580
15557WAT      O46912   6.868   4.489   9.872
15557WAT     H146913   6.803   4.429   9.826
15557WAT     H246914   6.921   4.539   9.805
15558WAT      O46915   5.956   4.241   4.669
15558WAT     H146916   5.890   4.315   4.654
15558WAT     H246917   5.955   4.214   4.765
15559WAT      O46918   8.355   1.126   0.871
15559WAT     H146919   8.381   1.052   0.934
15559WAT     H246920   8.425   1.135   0.800
15560WAT      O46921   2.320   1.818   6.029
15560WAT     H146922   2.409   1.859   6.050
15560WAT     H246923   2.283   1.776   6.112
15561WAT      O46924   9.405   0.423   3.707
15561WAT     H146925   9.393   0.505   3.763
15561WAT     H246926   9.465   0.359   3.755
15562WAT      O46927   7.510   1.514   0.678
15562WAT     H146928   7.483   1.472   0.590
15562WAT     H246929   7.472   1.460   0.753
15563WAT      O46930   1.617   8.689   8.588
15563WAT     H146931   1.642   8.664   8.682
15563WAT     H246932   1.611   8.607   8.532
15564WAT      O46933   1.831   9.437   7.076
15564WAT     H146934   1.759   9.393   7.022
15564WAT     H246935   1.899   9.369   7.102
15565WAT      O46936   6.412   1.797   1.906
15565WAT     H146937   6.489   1.823   1.848
15565WAT     H246938   6.440   1.723   1.967
15566WAT      O46939   5.188   1.611   1.557
15566WAT     H146940   5.166   1.667   1.637
15566WAT     H246941   5.204   1.670   1.478
15567WAT      O46942   1.201   7.801   7.274
15567WAT     H146943   1.170   7.857   7.351
15567WAT     H246944   1.217   7.860   7.194
15568WAT      O46945   5.124   8.974   4.530
15568WAT     H146946   5.033   8.978   4.488
15568WAT     H246947   5.181   9.048   4.495
15569WAT      O46948   3.788   4.499   6.399
15569WAT     H146949   3.731   4.517   6.478
15569WAT     H246950   3.826   4.407   6.404
15570WAT      O46951   7.151   8.034   5.457
15570WAT     H146952   7.178   8.085   5.539
15570WAT     H246953   7.221   8.045   5.386
15571WAT      O46954   5.352   7.073   1.466
15571WAT     H146955   5.434   7.124   1.439
15571WAT     H246956   5.275   7.102   1.409
15572WAT      O46957   5.961   2.414   5.226
15572WAT     H146958   5.970   2.507   5.262
15572WAT     H246959   5.938   2.418   5.129
15573WAT      O46960   7.598   4.822   9.674
15573WAT     H146961   7.672   4.822   9.741
15573WAT     H246962   7.632   4.853   9.585
15574WAT      O46963   0.578   0.906   7.696
15574WAT     H146964   0.588   0.884   7.599
15574WAT     H246965   0.481   0.913   7.719
15575WAT      O46966   4.519   0.288   4.581
15575WAT     H146967   4.585   0.214   4.569
15575WAT     H246968   4.558   0.359   4.639
15576WAT      O46969   8.191   2.738   1.741
15576WAT     H146970   8.150   2.744   1.833
15576WAT     H246971   8.222   2.829   1.713
15577WAT      O46972   1.907   5.861   0.854
15577WAT     H146973   1.857   5.819   0.778
15577WAT     H246974   1.915   5.795   0.929
15578WAT      O46975   0.406   6.621   6.921
15578WAT     H146976   0.418   6.710   6.966
15578WAT     H246977   0.356   6.560   6.982
15579WAT      O46978   9.016   3.968   1.130
15579WAT     H146979   9.100   4.020   1.115
15579WAT     H246980   8.960   3.970   1.047
15580WAT      O46981   4.791   6.315   0.783
15580WAT     H146982   4.860   6.386   0.794
15580WAT     H246983   4.702   6.358   0.764
15581WAT      O46984   6.391   1.427   4.810
15581WAT     H146985   6.389   1.527   4.803
15581WAT     H246986   6.321   1.388   4.750
15582WAT      O46987   6.793   0.699   7.662
15582WAT     H146988   6.887   0.667   7.678
15582WAT     H246989   6.753   0.730   7.749
15583WAT      O46990   0.016   7.719   3.881
15583WAT     H146991   0.001   7.672   3.793
15583WAT     H246992  -0.040   7.675   3.951
15584WAT      O46993   8.977   0.445   5.736
15584WAT     H146994   8.945   0.522   5.790
15584WAT     H246995   9.076   0.451   5.724
15585WAT      O46996   8.163   8.522   0.464
15585WAT     H146997   8.100   8.468   0.409
15585WAT     H246998   8.199   8.598   0.410
15586WAT      O46999   2.256   1.908   1.772
15586WAT     H147000   2.185   1.977   1.759
15586WAT     H247001   2.335   1.930   1.715
15587WAT      O47002   8.993   7.245   4.967
15587WAT     H147003   9.015   7.153   5.001
15587WAT     H247004   9.023   7.253   4.872
15588WAT      O47005   2.323   3.102   7.687
15588WAT     H147006   2.247   3.039   7.702
15588WAT     H247007   2.389   3.092   7.762
15589WAT      O47008   8.561   6.190   1.855
15589WAT     H147009   8.482   6.160   1.907
15589WAT     H247010   8.645   6.175   1.908
15590WAT      O47011   3.325   1.887   3.992
15590WAT     H147012   3.334   1.789   4.010
15590WAT     H247013   3.265   1.902   3.914
15591WAT      O47014   7.987   5.536   5.487
15591WAT     H147015   7.902   5.544   5.539
15591WAT     H247016   7.968   5.552   5.390
15592WAT      O47017   3.016   1.501   9.754
15592WAT     H147018   3.043   1.583   9.804
15592WAT     H247019   3.062   1.500   9.665
15593WAT      O47020   2.613   3.200   0.921
15593WAT     H147021   2.656   3.179   1.009
15593WAT     H247022   2.541   3.268   0.935
15594WAT      O47023   4.659   3.605   0.142
15594WAT     H147024   4.718   3.546   0.197
15594WAT     H247025   4.704   3.626   0.056
15595WAT      O47026   1.152   5.974   1.561
15595WAT     H147027   1.144   6.052   1.498
15595WAT     H247028   1.207   5.903   1.517
15596WAT      O47029   0.301   9.456   6.959
15596WAT     H147030   0.363   9.523   7.000
15596WAT     H247031   0.334   9.433   6.868
15597WAT      O47032   6.747   2.162   2.734
15597WAT     H147033   6.778   2.228   2.666
15597WAT     H247034   6.674   2.106   2.695
15598WAT      O47035   6.721   2.067   4.253
15598WAT     H147036   6.772   1.995   4.205
15598WAT     H247037   6.634   2.083   4.206
15599WAT      O47038   4.567   5.208   6.462
15599WAT     H147039   4.530   5.229   6.371
15599WAT     H247040   4.628   5.130   6.456
15600WAT      O47041   6.303   0.971   9.480
15600WAT     H147042   6.243   0.988   9.558
15600WAT     H247043   6.398   0.969   9.511
15601WAT      O47044   2.374   0.870   0.954
15601WAT     H147045   2.327   0.810   0.888
15601WAT     H247046   2.348   0.965   0.936
15602WAT      O47047   9.085   9.529   4.589
15602WAT     H147048   9.138   9.445   4.579
15602WAT     H247049   9.087   9.580   4.502
15603WAT      O47050   0.623   1.653   6.517
15603WAT     H147051   0.714   1.615   6.532
15603WAT     H247052   0.585   1.618   6.431
15604WAT      O47053   9.556   6.727   0.022
15604WAT     H147054   9.610   6.662  -0.032
15604WAT     H247055   9.534   6.686   0.111
15605WAT      O47056   8.006   5.853   3.869
15605WAT     H147057   8.098   5.831   3.900
15605WAT     H247058   8.011   5.930   3.805
15606WAT      O47059   0.827   5.309   7.080
15606WAT     H147060   0.861   5.215   7.072
15606WAT     H247061   0.895   5.373   7.045
15607WAT      O47062   0.093   3.778   2.356
15607WAT     H147063   0.090   3.725   2.271
15607WAT     H247064   0.079   3.717   2.434
15608WAT      O47065   4.660   6.086   8.627
15608WAT     H147066   4.695   6.076   8.720
15608WAT     H247067   4.666   6.182   8.599
15609WAT      O47068   0.234   3.090   1.602
15609WAT     H147069   0.183   3.033   1.537
15609WAT     H247070   0.308   3.137   1.553
15610WAT      O47071   2.155   4.554   8.075
15610WAT     H147072   2.188   4.549   7.981
15610WAT     H247073   2.159   4.649   8.107
15611WAT      O47074   5.997   4.834   4.719
15611WAT     H147075   5.934   4.791   4.783
15611WAT     H247076   6.080   4.780   4.712
15612WAT      O47077   0.842   3.792   1.503
15612WAT     H147078   0.841   3.890   1.522
15612WAT     H247079   0.918   3.771   1.441
15613WAT      O47080   2.532   2.839   4.174
15613WAT     H147081   2.611   2.840   4.113
15613WAT     H247082   2.542   2.765   4.240
15614WAT      O47083   3.509   4.765   8.194
15614WAT     H147084   3.413   4.771   8.166
15614WAT     H247085   3.515   4.766   8.294
15615WAT      O47086   6.096   3.789   8.278
15615WAT     H147087   6.007   3.787   8.324
15615WAT     H247088   6.131   3.696   8.269
15616WAT      O47089   9.590   6.287   3.409
15616WAT     H147090   9.686   6.313   3.393
15616WAT     H247091   9.567   6.303   3.505
15617WAT      O47092   9.027   0.866   1.213
15617WAT     H147093   8.992   0.916   1.134
15617WAT     H247094   9.111   0.818   1.188
15618WAT      O47095   6.783   2.637   1.624
15618WAT     H147096   6.838   2.554   1.620
15618WAT     H247097   6.686   2.613   1.631
15619WAT      O47098   5.360   1.762   4.644
15619WAT     H147099   5.304   1.811   4.710
15619WAT     H247100   5.377   1.820   4.564
15620WAT      O47101   9.639   4.924   0.175
15620WAT     H147102   9.546   4.917   0.139
15620WAT     H247103   9.704   4.913   0.100
15621WAT      O47104   5.796   5.471   5.447
15621WAT     H147105   5.889   5.483   5.411
15621WAT     H247106   5.762   5.559   5.482
15622WAT      O47107   5.651   2.544   2.664
15622WAT     H147108   5.632   2.470   2.600
15622WAT     H247109   5.564   2.582   2.696
15623WAT      O47110   2.280   4.970   3.635
15623WAT     H147111   2.291   4.879   3.675
15623WAT     H247112   2.185   5.000   3.646
15624WAT      O47113   9.186   6.789   4.974
15624WAT     H147114   9.276   6.825   4.996
15624WAT     H247115   9.192   6.731   4.893
15625WAT      O47116   7.032   6.578   3.811
15625WAT     H147117   7.070   6.512   3.746
15625WAT     H247118   7.079   6.570   3.899
15626WAT      O47119   0.197   0.892   3.886
15626WAT     H147120   0.187   0.815   3.950
15626WAT     H247121   0.121   0.891   3.821
15627WAT      O47122   3.805   6.263   8.901
15627WAT     H147123   3.809   6.278   9.000
15627WAT     H247124   3.762   6.342   8.857
15628WAT      O47125   9.733   6.742   9.454
15628WAT     H147126   9.798   6.804   9.411
15628WAT     H247127   9.776   6.700   9.535
15629WAT      O47128   7.182   9.569   9.614
15629WAT     H147129   7.196   9.597   9.519
15629WAT     H247130   7.210   9.643   9.675
15630WAT      O47131   6.850   4.640   6.756
15630WAT     H147132   6.885   4.706   6.689
15630WAT     H247133   6.760   4.668   6.787
15631WAT      O47134   4.568   0.223   3.657
15631WAT     H147135   4.587   0.125   3.654
15631WAT     H247136   4.596   0.259   3.746
15632WAT      O47137   5.551   9.729   4.764
15632WAT     H147138   5.460   9.710   4.800
15632WAT     H247139   5.616   9.664   4.803
15633WAT      O47140   7.679   4.898   8.538
15633WAT     H147141   7.680   4.997   8.552
15633WAT     H247142   7.773   4.865   8.528
15634WAT      O47143   5.817   5.064   3.340
15634WAT     H147144   5.841   4.981   3.289
15634WAT     H247145   5.764   5.125   3.281
15635WAT      O47146   2.633   4.852   7.307
15635WAT     H147147   2.573   4.873   7.384
15635WAT     H247148   2.715   4.807   7.340
15636WAT      O47149   1.913   2.477   4.167
15636WAT     H147150   1.835   2.486   4.229
15636WAT     H247151   1.917   2.383   4.132
15637WAT      O47152   8.661   5.368   4.041
15637WAT     H147153   8.705   5.439   4.097
15637WAT     H247154   8.652   5.401   3.947
15638WAT      O47155   8.778   3.040   5.662
15638WAT     H147156   8.796   2.967   5.596
15638WAT     H247157   8.681   3.064   5.659
15639WAT      O47158   0.221   8.188   9.770
15639WAT     H147159   0.175   8.260   9.717
15639WAT     H247160   0.308   8.223   9.805
15640WAT      O47161   3.675   2.211   3.988
15640WAT     H147162   3.612   2.287   3.997
15640WAT     H247163   3.624   2.125   3.984
15641WAT      O47164   9.751   8.580   6.297
15641WAT     H147165   9.774   8.573   6.200
15641WAT     H247166   9.769   8.673   6.328
15642WAT      O47167   5.465   1.242   2.622
15642WAT     H147168   5.504   1.266   2.534
15642WAT     H247169   5.397   1.169   2.610
15643WAT      O47170   3.878   5.085   7.751
15643WAT     H147171   3.794   5.097   7.697
15643WAT     H247172   3.908   4.990   7.744
15644WAT      O47173   4.686   1.112   8.943
15644WAT     H147174   4.772   1.161   8.926
15644WAT     H247175   4.640   1.153   9.022
15645WAT      O47176   5.564   9.606   1.334
15645WAT     H147177   5.492   9.644   1.393
15645WAT     H247178   5.568   9.507   1.347
15646WAT      O47179   1.127   4.779   0.550
15646WAT     H147180   1.105   4.724   0.469
15646WAT     H247181   1.165   4.719   0.621
15647WAT      O47182   8.565   3.937   9.487
15647WAT     H147183   8.517   3.943   9.399
15647WAT     H247184   8.541   3.851   9.533
15648WAT      O47185   8.332   1.998   6.620
15648WAT     H147186   8.391   2.001   6.539
15648WAT     H247187   8.249   1.947   6.598
15649WAT      O47188   8.332   3.524   0.852
15649WAT     H147189   8.354   3.570   0.766
15649WAT     H247190   8.364   3.429   0.849
15650WAT      O47191   3.890   0.550   3.540
15650WAT     H147192   3.852   0.496   3.615
15650WAT     H247193   3.962   0.611   3.575
15651WAT      O47194   2.499   8.287   4.848
15651WAT     H147195   2.484   8.189   4.854
15651WAT     H247196   2.543   8.310   4.761
15652WAT      O47197   1.557   9.518   6.467
15652WAT     H147198   1.512   9.545   6.552
15652WAT     H247199   1.505   9.445   6.424
15653WAT      O47200   1.335   8.083   4.707
15653WAT     H147201   1.350   8.113   4.612
15653WAT     H247202   1.412   8.112   4.764
15654WAT      O47203   6.706   6.447   8.578
15654WAT     H147204   6.761   6.394   8.514
15654WAT     H247205   6.751   6.449   8.667
15655WAT      O47206   8.036   6.198   9.324
15655WAT     H147207   8.079   6.269   9.381
15655WAT     H247208   8.098   6.121   9.315
15656WAT      O47209   2.159   8.082   6.251
15656WAT     H147210   2.144   8.169   6.204
15656WAT     H247211   2.204   8.099   6.339
15657WAT      O47212   6.555   9.733   3.198
15657WAT     H147213   6.551   9.765   3.292
15657WAT     H247214   6.468   9.692   3.172
15658WAT      O47215   4.253   2.069   4.387
15658WAT     H147216   4.292   2.109   4.471
15658WAT     H247217   4.325   2.059   4.319
15659WAT      O47218   2.265   1.165   0.597
15659WAT     H147219   2.240   1.145   0.502
15659WAT     H247220   2.281   1.263   0.607
15660WAT      O47221   5.384   3.463   6.402
15660WAT     H147222   5.457   3.439   6.338
15660WAT     H247223   5.337   3.545   6.369
15661WAT      O47224   2.477   4.818   5.661
15661WAT     H147225   2.479   4.886   5.734
15661WAT     H247226   2.467   4.726   5.700
15662WAT      O47227   6.838   2.865   6.207
15662WAT     H147228   6.881   2.775   6.211
15662WAT     H247229   6.778   2.877   6.286
15663WAT      O47230   4.101   0.382   4.143
15663WAT     H147231   4.128   0.287   4.158
15663WAT     H247232   4.174   0.429   4.093
15664WAT      O47233   4.805   1.372   1.613
15664WAT     H147234   4.816   1.324   1.700
15664WAT     H247235   4.890   1.364   1.560
15665WAT      O47236   8.933   7.368   2.969
15665WAT     H147237   8.876   7.351   3.050
15665WAT     H247238   8.882   7.426   2.905
15666WAT      O47239   8.145   2.008   6.311
15666WAT     H147240   8.194   2.089   6.342
15666WAT     H247241   8.113   1.956   6.391
15667WAT      O47242   4.831   5.479   1.237
15667WAT     H147243   4.766   5.403   1.236
15667WAT     H247244   4.811   5.541   1.161
15668WAT      O47245   2.933   9.126   5.111
15668WAT     H147246   3.033   9.115   5.114
15668WAT     H247247   2.896   9.070   5.037
15669WAT      O47248   2.604   7.965   1.291
15669WAT     H147249   2.520   7.914   1.272
15669WAT     H247250   2.679   7.901   1.306
15670WAT      O47251   7.294   1.816   5.645
15670WAT     H147252   7.311   1.893   5.706
15670WAT     H247253   7.369   1.808   5.580
15671WAT      O47254   4.038   0.602   2.899
15671WAT     H147255   4.134   0.627   2.886
15671WAT     H247256   4.032   0.509   2.935
15672WAT      O47257   3.426   6.845   9.282
15672WAT     H147258   3.382   6.805   9.202
15672WAT     H247259   3.458   6.937   9.261
15673WAT      O47260   9.063   8.951   4.847
15673WAT     H147261   9.144   9.003   4.819
15673WAT     H247262   9.030   8.985   4.935
15674WAT      O47263   1.102   6.486   9.713
15674WAT     H147264   1.173   6.418   9.699
15674WAT     H247265   1.035   6.451   9.779
15675WAT      O47266   2.035   1.116   0.087
15675WAT     H147267   2.030   1.039   0.023
15675WAT     H247268   1.981   1.192   0.052
15676WAT      O47269   5.195   9.462   9.075
15676WAT     H147270   5.188   9.364   9.058
15676WAT     H247271   5.234   9.507   8.994
15677WAT      O47272   9.632   9.032   6.398
15677WAT     H147273   9.604   9.127   6.388
15677WAT     H247274   9.606   8.999   6.489
15678WAT      O47275   7.359   7.720   3.482
15678WAT     H147276   7.317   7.794   3.533
15678WAT     H247277   7.431   7.757   3.423
15679WAT      O47278   7.960   9.778   9.005
15679WAT     H147279   7.864   9.784   8.980
15679WAT     H247280   8.016   9.781   8.923
15680WAT      O47281   2.510   0.688   8.986
15680WAT     H147282   2.459   0.673   8.901
15680WAT     H247283   2.515   0.603   9.038
15681WAT      O47284   3.427   7.542   6.786
15681WAT     H147285   3.509   7.497   6.822
15681WAT     H247286   3.374   7.477   6.732
15682WAT      O47287   3.425   7.653   0.856
15682WAT     H147288   3.354   7.668   0.925
15682WAT     H247289   3.485   7.578   0.886
15683WAT      O47290   4.301   3.313   6.400
15683WAT     H147291   4.394   3.277   6.398
15683WAT     H247292   4.240   3.253   6.347
15684WAT      O47293   3.892   6.717   7.875
15684WAT     H147294   3.832   6.674   7.807
15684WAT     H247295   3.944   6.790   7.832
15685WAT      O47296   1.395   0.054   9.788
15685WAT     H147297   1.397   0.105   9.873
15685WAT     H247298   1.371   0.115   9.712
15686WAT      O47299   5.712   2.262   6.689
15686WAT     H147300   5.769   2.289   6.766
15686WAT     H247301   5.688   2.344   6.636
15687WAT      O47302   4.264   5.920   7.692
15687WAT     H147303   4.244   6.006   7.645
15687WAT     H247304   4.357   5.891   7.670
15688WAT      O47305   3.713   4.657   2.170
15688WAT     H147306   3.746   4.632   2.079
15688WAT     H247307   3.623   4.701   2.162
15689WAT      O47308   6.041   0.277   9.450
15689WAT     H147309   5.969   0.207   9.461
15689WAT     H247310   6.009   0.363   9.489
15690WAT      O47311   2.928   4.700   5.609
15690WAT     H147312   3.013   4.729   5.566
15690WAT     H247313   2.870   4.655   5.541
15691WAT      O47314   9.758   9.330   1.698
15691WAT     H147315   9.839   9.283   1.733
15691WAT     H247316   9.748   9.418   1.743
15692WAT      O47317   9.315   4.215   5.059
15692WAT     H147318   9.286   4.133   5.010
15692WAT     H247319   9.372   4.189   5.137
15693WAT      O47320   8.718   2.667   6.401
15693WAT     H147321   8.726   2.692   6.497
15693WAT     H247322   8.671   2.739   6.351
15694WAT      O47323   5.749   7.826   6.449
15694WAT     H147324   5.788   7.858   6.535
15694WAT     H247325   5.819   7.827   6.378
15695WAT      O47326   3.955   9.552   6.382
15695WAT     H147327   3.920   9.460   6.400
15695WAT     H247328   4.033   9.547   6.320
15696WAT      O47329   5.735   3.579   9.764
15696WAT     H147330   5.641   3.599   9.794
15696WAT     H247331   5.768   3.496   9.808
15697WAT      O47332   8.455   8.309   4.639
15697WAT     H147333   8.425   8.250   4.564
15697WAT     H247334   8.515   8.380   4.603
15698WAT      O47335   4.177   8.149   8.907
15698WAT     H147336   4.194   8.174   9.002
15698WAT     H247337   4.181   8.049   8.898
15699WAT      O47338   7.579   2.387   3.731
15699WAT     H147339   7.657   2.385   3.669
15699WAT     H247340   7.502   2.339   3.689
15700WAT      O47341   0.572   4.927   1.517
15700WAT     H147342   0.525   5.001   1.468
15700WAT     H247343   0.670   4.946   1.520
15701WAT      O47344   7.354   0.243   5.022
15701WAT     H147345   7.265   0.284   5.046
15701WAT     H247346   7.344   0.188   4.939
15702WAT      O47347   0.462   2.517   6.427
15702WAT     H147348   0.481   2.426   6.390
15702WAT     H247349   0.548   2.563   6.447
15703WAT      O47350   7.634   8.983   4.325
15703WAT     H147351   7.643   8.885   4.307
15703WAT     H247352   7.635   9.033   4.239
15704WAT      O47353   5.562   0.879   9.324
15704WAT     H147354   5.593   0.949   9.388
15704WAT     H247355   5.516   0.922   9.247
15705WAT      O47356   1.630   7.105   7.631
15705WAT     H147357   1.655   7.070   7.541
15705WAT     H247358   1.713   7.132   7.680
15706WAT      O47359   5.501   3.203   7.430
15706WAT     H147360   5.453   3.289   7.414
15706WAT     H247361   5.550   3.206   7.517
15707WAT      O47362   4.991   4.557   2.516
15707WAT     H147363   5.041   4.512   2.590
15707WAT     H247364   5.043   4.549   2.431
15708WAT      O47365   8.949   4.480   7.094
15708WAT     H147366   8.966   4.383   7.081
15708WAT     H247367   9.018   4.533   7.044
15709WAT      O47368   6.115   8.575   3.867
15709WAT     H147369   6.101   8.546   3.962
15709WAT     H247370   6.029   8.608   3.829
15710WAT      O47371   3.100   3.564   1.705
15710WAT     H147372   3.168   3.497   1.736
15710WAT     H247373   3.119   3.653   1.747
15711WAT      O47374   8.362   4.206   8.119
15711WAT     H147375   8.341   4.108   8.118
15711WAT     H247376   8.277   4.258   8.117
15712WAT      O47377   2.050   7.594   6.490
15712WAT     H147378   2.116   7.669   6.500
15712WAT     H247379   2.099   7.507   6.485
15713WAT      O47380   3.819   0.299   9.755
15713WAT     H147381   3.894   0.349   9.798
15713WAT     H247382   3.831   0.300   9.656
15714WAT      O47383   7.545   6.197   6.894
15714WAT     H147384   7.627   6.225   6.943
15714WAT     H247385   7.468   6.194   6.958
15715WAT      O47386   9.373   9.709   9.019
15715WAT     H147387   9.333   9.630   9.066
15715WAT     H247388   9.399   9.684   8.926
15716WAT      O47389   1.855   3.619   1.950
15716WAT     H147390   1.787   3.605   1.878
15716WAT     H247391   1.829   3.700   2.004
15717WAT      O47392   4.322   8.637   8.094
15717WAT     H147393   4.353   8.690   8.015
15717WAT     H247394   4.402   8.595   8.139
15718WAT      O47395   8.776   2.726   2.319
15718WAT     H147396   8.779   2.788   2.241
15718WAT     H247397   8.773   2.780   2.404
15719WAT      O47398   2.906   1.195   7.914
15719WAT     H147399   2.933   1.290   7.933
15719WAT     H247400   2.848   1.162   7.988
15720WAT      O47401   5.907   0.244   0.785
15720WAT     H147402   5.944   0.250   0.877
15720WAT     H247403   5.862   0.155   0.773
15721WAT      O47404   2.363   4.813   8.763
15721WAT     H147405   2.432   4.876   8.798
15721WAT     H247406   2.394   4.719   8.773
15722WAT      O47407   6.550   5.435   9.835
15722WAT     H147408   6.462   5.431   9.789
15722WAT     H247409   6.549   5.509   9.902
15723WAT      O47410   8.609   6.933   0.781
15723WAT     H147411   8.693   6.898   0.820
15723WAT     H247412   8.578   6.873   0.708
15724WAT      O47413   4.897   9.235   9.711
15724WAT     H147414   4.855   9.185   9.636
15724WAT     H247415   4.989   9.200   9.727
15725WAT      O47416   3.941   6.240   3.402
15725WAT     H147417   3.988   6.208   3.319
15725WAT     H247418   4.007   6.285   3.462
15726WAT      O47419   7.336   1.871   1.006
15726WAT     H147420   7.394   1.836   0.932
15726WAT     H247421   7.336   1.971   1.004
15727WAT      O47422   3.400   4.222   5.476
15727WAT     H147423   3.448   4.286   5.417
15727WAT     H247424   3.450   4.135   5.479
15728WAT      O47425   1.176   5.747   7.248
15728WAT     H147426   1.257   5.780   7.201
15728WAT     H247427   1.104   5.815   7.243
15729WAT      O47428   6.832   3.431   9.575
15729WAT     H147429   6.863   3.385   9.492
15729WAT     H247430   6.813   3.362   9.645
15730WAT      O47431   1.496   8.559   7.728
15730WAT     H147432   1.407   8.565   7.683
15730WAT     H247433   1.483   8.556   7.827
15731WAT      O47434   6.060   3.846   8.741
15731WAT     H147435   6.053   3.934   8.789
15731WAT     H247436   6.133   3.792   8.783
15732WAT      O47437   2.451   9.692   9.668
15732WAT     H147438   2.448   9.733   9.760
15732WAT     H247439   2.539   9.649   9.654
15733WAT      O47440   8.897   8.732   4.004
15733WAT     H147441   8.884   8.657   4.069
15733WAT     H247442   8.898   8.819   4.053
15734WAT      O47443   1.287   7.243   9.705
15734WAT     H147444   1.325   7.250   9.612
15734WAT     H247445   1.361   7.244   9.772
15735WAT      O47446   3.118   2.705   4.381
15735WAT     H147447   3.056   2.629   4.365
15735WAT     H247448   3.193   2.702   4.315
15736WAT      O47449   3.999   1.462   0.847
15736WAT     H147450   3.915   1.498   0.886
15736WAT     H247451   4.069   1.534   0.846
15737WAT      O47452   6.587   7.041   0.263
15737WAT     H147453   6.494   7.073   0.247
15737WAT     H247454   6.650   7.119   0.260
15738WAT      O47455   7.966   2.080   3.158
15738WAT     H147456   8.048   2.037   3.120
15738WAT     H247457   7.947   2.042   3.248
15739WAT      O47458   2.719   4.256   3.514
15739WAT     H147459   2.653   4.191   3.477
15739WAT     H247460   2.797   4.264   3.451
15740WAT      O47461   5.596   7.409   8.165
15740WAT     H147462   5.605   7.415   8.264
15740WAT     H247463   5.510   7.363   8.143
15741WAT      O47464   4.546   1.146   0.619
15741WAT     H147465   4.549   1.187   0.528
15741WAT     H247466   4.559   1.047   0.610
15742WAT      O47467   8.572   3.857   7.720
15742WAT     H147468   8.621   3.911   7.788
15742WAT     H247469   8.637   3.820   7.653
15743WAT      O47470   6.282   5.877   3.384
15743WAT     H147471   6.277   5.797   3.443
15743WAT     H247472   6.220   5.948   3.417
15744WAT      O47473   7.624   3.579   6.425
15744WAT     H147474   7.577   3.552   6.509
15744WAT     H247475   7.630   3.678   6.420
15745WAT      O47476   6.509   2.695   6.362
15745WAT     H147477   6.499   2.685   6.263
15745WAT     H247478   6.598   2.735   6.383
15746WAT      O47479   8.138   3.499   4.745
15746WAT     H147480   8.126   3.429   4.675
15746WAT     H247481   8.221   3.551   4.727
15747WAT      O47482   4.802   2.349   2.891
15747WAT     H147483   4.896   2.315   2.891
15747WAT     H247484   4.741   2.278   2.855
15748WAT      O47485   7.372   4.842   1.245
15748WAT     H147486   7.401   4.807   1.334
15748WAT     H247487   7.384   4.771   1.175
15749WAT      O47488   9.689   8.882   6.794
15749WAT     H147489   9.771   8.919   6.836
15749WAT     H247490   9.638   8.827   6.861
15750WAT      O47491   1.546   6.980   7.907
15750WAT     H147492   1.586   7.005   7.819
15750WAT     H247493   1.564   7.052   7.974
15751WAT      O47494   8.659   4.452   6.166
15751WAT     H147495   8.592   4.484   6.099
15751WAT     H247496   8.691   4.529   6.220
15752WAT      O47497   5.833   0.496   0.714
15752WAT     H147498   5.850   0.402   0.743
15752WAT     H247499   5.742   0.524   0.745
15753WAT      O47500   8.792   9.770   6.356
15753WAT     H147501   8.887   9.795   6.373
15753WAT     H247502   8.783   9.670   6.361
15754WAT      O47503   9.211   5.199   7.654
15754WAT     H147504   9.190   5.107   7.620
15754WAT     H247505   9.190   5.266   7.583
15755WAT      O47506   5.893   7.229   0.614
15755WAT     H147507   5.817   7.210   0.677
15755WAT     H247508   5.880   7.177   0.530
15756WAT      O47509   5.090   5.962   7.914
15756WAT     H147510   5.165   6.016   7.877
15756WAT     H247511   5.115   5.927   8.004
15757WAT      O47512   7.896   7.746   7.145
15757WAT     H147513   7.817   7.790   7.189
15757WAT     H247514   7.980   7.782   7.185
15758WAT      O47515   3.775   4.045   2.280
15758WAT     H147516   3.787   3.973   2.213
15758WAT     H247517   3.728   4.008   2.361
15759WAT      O47518   2.570   8.324   1.049
15759WAT     H147519   2.580   8.384   0.969
15759WAT     H247520   2.653   8.327   1.104
15760WAT      O47521   7.111   4.492   0.629
15760WAT     H147522   7.104   4.403   0.673
15760WAT     H247523   7.034   4.550   0.657
15761WAT      O47524   1.831   8.968   0.648
15761WAT     H147525   1.856   8.922   0.733
15761WAT     H247526   1.813   8.899   0.577
15762WAT      O47527   3.276   2.913   9.400
15762WAT     H147528   3.267   2.927   9.498
15762WAT     H247529   3.257   2.818   9.377
15763WAT      O47530   6.857   6.178   3.144
15763WAT     H147531   6.773   6.202   3.095
15763WAT     H247532   6.860   6.228   3.231
15764WAT      O47533   3.767   4.574   1.925
15764WAT     H147534   3.759   4.663   1.880
15764WAT     H247535   3.708   4.508   1.878
15765WAT      O47536   3.478   4.700   7.350
15765WAT     H147537   3.560   4.646   7.331
15765WAT     H247538   3.406   4.640   7.387
15766WAT      O47539   5.061   3.817   3.261
15766WAT     H147540   5.096   3.751   3.195
15766WAT     H247541   5.053   3.775   3.351
15767WAT      O47542   5.196   7.488   6.942
15767WAT     H147543   5.204   7.582   6.978
15767WAT     H247544   5.162   7.491   6.849
15768WAT      O47545   8.702   4.615   4.380
15768WAT     H147546   8.752   4.684   4.432
15768WAT     H247547   8.610   4.649   4.359
15769WAT      O47548   6.546   8.818   5.041
15769WAT     H147549   6.603   8.736   5.052
15769WAT     H247550   6.598   8.899   5.067
15770WAT      O47551   8.968   2.127   6.060
15770WAT     H147552   8.924   2.093   6.144
15770WAT     H247553   9.035   2.197   6.084
15771WAT      O47554   2.803   4.228   7.797
15771WAT     H147555   2.781   4.268   7.708
15771WAT     H247556   2.786   4.295   7.869
15772WAT      O47557   4.615   3.369   9.372
15772WAT     H147558   4.613   3.270   9.355
15772WAT     H247559   4.707   3.397   9.399
15773WAT      O47560   7.748   1.661   7.661
15773WAT     H147561   7.765   1.562   7.665
15773WAT     H247562   7.809   1.702   7.592
15774WAT      O47563   7.561   3.691   1.765
15774WAT     H147564   7.590   3.606   1.721
15774WAT     H247565   7.632   3.722   1.827
15775WAT      O47566   4.237   6.071   6.625
15775WAT     H147567   4.335   6.083   6.612
15775WAT     H247568   4.212   5.977   6.601
15776WAT      O47569   3.658   4.732   0.350
15776WAT     H147570   3.745   4.777   0.372
15776WAT     H247571   3.659   4.702   0.255
15777WAT      O47572   2.646   8.468   0.794
15777WAT     H147573   2.672   8.564   0.791
15777WAT     H247574   2.611   8.440   0.704
15778WAT      O47575   0.766   6.898   7.733
15778WAT     H147576   0.757   6.938   7.641
15778WAT     H247577   0.854   6.925   7.772
15779WAT      O47578   2.105   4.803   7.596
15779WAT     H147579   2.024   4.851   7.564
15779WAT     H247580   2.170   4.792   7.520
15780WAT      O47581   2.667   6.912   8.069
15780WAT     H147582   2.711   6.826   8.045
15780WAT     H247583   2.669   6.973   7.990
15781WAT      O47584   9.478   9.289   4.553
15781WAT     H147585   9.515   9.346   4.480
15781WAT     H247586   9.530   9.204   4.559
15782WAT      O47587   9.583   3.496   2.838
15782WAT     H147588   9.661   3.444   2.804
15782WAT     H247589   9.515   3.432   2.875
15783WAT      O47590   8.256   6.924   0.996
15783WAT     H147591   8.333   6.980   0.964
15783WAT     H247592   8.225   6.960   1.084
15784WAT      O47593   6.332   6.780   5.361
15784WAT     H147594   6.371   6.842   5.430
15784WAT     H247595   6.233   6.776   5.372
15785WAT      O47596   2.541   2.467   0.294
15785WAT     H147597   2.601   2.441   0.218
15785WAT     H247598   2.448   2.436   0.275
15786WAT      O47599   8.848   7.013   0.006
15786WAT     H147600   8.821   7.089   0.065
15786WAT     H247601   8.797   7.017  -0.079
15787WAT      O47602   8.361   5.671   9.144
15787WAT     H147603   8.433   5.604   9.162
15787WAT     H247604   8.320   5.652   9.054
15788WAT      O47605   9.600   1.665   4.647
15788WAT     H147606   9.688   1.664   4.600
15788WAT     H247607   9.544   1.739   4.611
15789WAT      O47608   4.760   8.836   4.334
15789WAT     H147609   4.842   8.791   4.299
15789WAT     H247610   4.689   8.768   4.353
15790WAT      O47611   9.532   8.937   8.205
15790WAT     H147612   9.532   8.851   8.255
15790WAT     H247613   9.599   8.933   8.131
15791WAT      O47614   2.591   3.197   3.603
15791WAT     H147615   2.494   3.218   3.618
15791WAT     H247616   2.636   3.274   3.558
15792WAT      O47617   5.481   7.270   9.079
15792WAT     H147618   5.539   7.245   9.001
15792WAT     H247619   5.470   7.369   9.082
15793WAT      O47620   0.767   8.304   6.259
15793WAT     H147621   0.710   8.335   6.183
15793WAT     H247622   0.728   8.222   6.300
15794WAT      O47623   8.960   5.889   0.517
15794WAT     H147624   8.899   5.817   0.483
15794WAT     H247625   8.981   5.952   0.442
15795WAT      O47626   8.739   0.669   8.943
15795WAT     H147627   8.784   0.719   9.018
15795WAT     H247628   8.755   0.718   8.857
15796WAT      O47629   1.834   5.527   6.191
15796WAT     H147630   1.829   5.469   6.110
15796WAT     H247631   1.868   5.617   6.165
15797WAT      O47632   2.021   3.297   7.701
15797WAT     H147633   1.940   3.238   7.709
15797WAT     H247634   2.033   3.323   7.605
15798WAT      O47635   9.059   7.728   4.124
15798WAT     H147636   9.069   7.768   4.033
15798WAT     H247637   9.001   7.788   4.180
15799WAT      O47638   4.180   6.743   2.864
15799WAT     H147639   4.275   6.764   2.841
15799WAT     H247640   4.152   6.797   2.943
15800WAT      O47641   1.445   3.503   3.517
15800WAT     H147642   1.396   3.416   3.518
15800WAT     H247643   1.386   3.575   3.553
15801WAT      O47644   5.301   7.972   2.612
15801WAT     H147645   5.236   7.948   2.684
15801WAT     H247646   5.308   8.071   2.605
15802WAT      O47647   5.308   4.229   5.151
15802WAT     H147648   5.273   4.311   5.198
15802WAT     H247649   5.386   4.193   5.202
15803WAT      O47650   9.660   2.643   1.878
15803WAT     H147651   9.720   2.699   1.820
15803WAT     H247652   9.590   2.600   1.821
15804WAT      O47653   3.157   6.636   6.555
15804WAT     H147654   3.210   6.720   6.568
15804WAT     H247655   3.089   6.651   6.483
15805WAT      O47656   6.726   1.061   4.660
15805WAT     H147657   6.799   1.129   4.654
15805WAT     H247658   6.736   0.994   4.587
15806WAT      O47659   3.538   7.711   6.037
15806WAT     H147660   3.590   7.635   5.999
15806WAT     H247661   3.488   7.757   5.963
15807WAT      O47662   6.996   7.191   3.192
15807WAT     H147663   6.965   7.272   3.142
15807WAT     H247664   6.924   7.122   3.191
15808WAT      O47665   6.412   1.644   8.206
15808WAT     H147666   6.412   1.574   8.277
15808WAT     H247667   6.411   1.600   8.116
15809WAT      O47668   1.801   9.733   2.573
15809WAT     H147669   1.716   9.737   2.521
15809WAT     H247670   1.782   9.697   2.664
15810WAT      O47671   3.154   7.506   0.636
15810WAT     H147672   3.074   7.531   0.691
15810WAT     H247673   3.197   7.425   0.676
15811WAT      O47674   1.252   5.176   8.116
15811WAT     H147675   1.282   5.206   8.206
15811WAT     H247676   1.331   5.141   8.064
15812WAT      O47677   3.986   4.593   6.221
15812WAT     H147678   3.907   4.544   6.258
15812WAT     H247679   4.050   4.615   6.294
15813WAT      O47680   9.851   7.833   5.154
15813WAT     H147681   9.923   7.771   5.121
15813WAT     H247682   9.884   7.881   5.235
15814WAT      O47683   0.919   9.236   9.134
15814WAT     H147684   0.908   9.269   9.228
15814WAT     H247685   0.989   9.165   9.132
15815WAT      O47686   0.360   8.355   6.492
15815WAT     H147687   0.348   8.256   6.493
15815WAT     H247688   0.271   8.400   6.495
15816WAT      O47689   2.888   8.671   1.075
15816WAT     H147690   2.873   8.607   1.150
15816WAT     H247691   2.980   8.710   1.082
15817WAT      O47692   7.874   5.454   4.474
15817WAT     H147693   7.912   5.407   4.395
15817WAT     H247694   7.896   5.552   4.468
15818WAT      O47695   2.382   6.236   7.917
15818WAT     H147696   2.404   6.219   7.821
15818WAT     H247697   2.347   6.153   7.959
15819WAT      O47698   0.574   7.926   6.592
15819WAT     H147699   0.648   7.876   6.637
15819WAT     H247700   0.491   7.919   6.648
15820WAT      O47701   6.295   9.759   2.790
15820WAT     H147702   6.250   9.797   2.871
15820WAT     H247703   6.394   9.769   2.799
15821WAT      O47704   1.186   0.237   6.838
15821WAT     H147705   1.119   0.311   6.837
15821WAT     H247706   1.246   0.248   6.918
15822WAT      O47707   0.693   8.187   9.480
15822WAT     H147708   0.791   8.173   9.464
15822WAT     H247709   0.642   8.164   9.397
15823WAT      O47710   7.749   1.010   6.639
15823WAT     H147711   7.722   1.005   6.735
15823WAT     H247712   7.771   1.105   6.615
15824WAT      O47713   2.880   9.222   7.293
15824WAT     H147714   2.845   9.129   7.304
15824WAT     H247715   2.883   9.267   7.382
15825WAT      O47716   9.438   8.448   6.573
15825WAT     H147717   9.487   8.532   6.597
15825WAT     H247718   9.418   8.396   6.656
15826WAT      O47719   8.294   2.900   8.929
15826WAT     H147720   8.275   2.998   8.930
15826WAT     H247721   8.364   2.879   8.997
15827WAT      O47722   0.120   2.549   1.494
15827WAT     H147723   0.064   2.469   1.516
15827WAT     H247724   0.200   2.519   1.441
15828WAT      O47725   1.767   6.803   8.467
15828WAT     H147726   1.752   6.708   8.438
15828WAT     H247727   1.706   6.863   8.416
15829WAT      O47728   2.734   7.101   4.348
15829WAT     H147729   2.730   7.096   4.448
15829WAT     H247730   2.643   7.114   4.311
15830WAT      O47731   6.668   7.474   3.973
15830WAT     H147732   6.746   7.442   3.919
15830WAT     H247733   6.586   7.479   3.914
15831WAT      O47734   0.499   5.801   1.534
15831WAT     H147735   0.513   5.716   1.483
15831WAT     H247736   0.579   5.820   1.591
15832WAT      O47737   7.008   4.138   6.212
15832WAT     H147738   7.064   4.179   6.284
15832WAT     H247739   6.911   4.154   6.232
15833WAT      O47740   4.188   2.546   6.983
15833WAT     H147741   4.176   2.597   7.068
15833WAT     H247742   4.100   2.534   6.938
15834WAT      O47743   0.334   7.751   5.483
15834WAT     H147744   0.300   7.726   5.393
15834WAT     H247745   0.416   7.698   5.504
15835WAT      O47746   3.190   1.903   3.051
15835WAT     H147747   3.204   1.904   3.150
15835WAT     H247748   3.221   1.816   3.014
15836WAT      O47749   8.321   9.225   8.646
15836WAT     H147750   8.335   9.203   8.743
15836WAT     H247751   8.335   9.323   8.631
15837WAT      O47752   4.142   7.606   9.326
15837WAT     H147753   4.165   7.702   9.338
15837WAT     H247754   4.171   7.576   9.235
15838WAT      O47755   4.265   2.038   1.813
15838WAT     H147756   4.205   2.068   1.887
15838WAT     H247757   4.239   1.946   1.784
15839WAT      O47758   2.780   0.877   7.933
15839WAT     H147759   2.737   0.827   7.858
15839WAT     H247760   2.871   0.908   7.904
15840WAT      O47761   9.612   9.706   0.184
15840WAT     H147762   9.557   9.789   0.196
15840WAT     H247763   9.618   9.657   0.271
15841WAT      O47764   3.246   0.498   5.655
15841WAT     H147765   3.146   0.508   5.652
15841WAT     H247766   3.289   0.587   5.638
15842WAT      O47767   2.036   7.463   9.141
15842WAT     H147768   2.096   7.538   9.170
15842WAT     H247769   1.946   7.474   9.183
15843WAT      O47770   7.468   8.327   8.841
15843WAT     H147771   7.553   8.373   8.865
15843WAT     H247772   7.450   8.340   8.743
15844WAT      O47773   6.865   3.003   2.382
15844WAT     H147774   6.879   3.027   2.286
15844WAT     H247775   6.811   2.919   2.387
15845WAT      O47776   7.208   6.409   1.902
15845WAT     H147777   7.155   6.326   1.918
15845WAT     H247778   7.245   6.409   1.809
15846WAT      O47779   1.627   4.566   9.291
15846WAT     H147780   1.693   4.550   9.365
15846WAT     H247781   1.551   4.502   9.300
15847WAT      O47782   4.084   9.536   4.014
15847WAT     H147783   4.055   9.571   4.103
15847WAT     H247784   4.102   9.613   3.952
15848WAT      O47785   7.040   7.487   4.301
15848WAT     H147786   6.986   7.527   4.374
15848WAT     H247787   7.065   7.558   4.235
15849WAT      O47788   3.877   3.313   2.463
15849WAT     H147789   3.810   3.334   2.392
15849WAT     H247790   3.901   3.397   2.513
15850WAT      O47791   3.453   9.587   2.572
15850WAT     H147792   3.485   9.494   2.554
15850WAT     H247793   3.507   9.627   2.645
15851WAT      O47794   4.902   9.729   0.113
15851WAT     H147795   4.867   9.721   0.020
15851WAT     H247796   4.926   9.824   0.132
15852WAT      O47797   5.311   1.811   6.836
15852WAT     H147798   5.376   1.858   6.896
15852WAT     H247799   5.309   1.714   6.859
15853WAT      O47800   6.826   3.859   8.332
15853WAT     H147801   6.808   3.915   8.252
15853WAT     H247802   6.827   3.917   8.414
15854WAT      O47803   3.846   9.124   7.574
15854WAT     H147804   3.840   9.221   7.597
15854WAT     H247805   3.805   9.070   7.648
15855WAT      O47806   6.438   5.656   3.720
15855WAT     H147807   6.530   5.625   3.697
15855WAT     H247808   6.441   5.753   3.746
15856WAT      O47809   1.026   2.979   2.692
15856WAT     H147810   1.107   3.003   2.639
15856WAT     H247811   1.018   2.879   2.696
15857WAT      O47812   1.136   4.828   3.242
15857WAT     H147813   1.175   4.772   3.314
15857WAT     H247814   1.120   4.921   3.276
15858WAT      O47815   8.111   9.728   2.864
15858WAT     H147816   8.148   9.798   2.802
15858WAT     H247817   8.016   9.710   2.840
15859WAT      O47818   6.282   3.382   0.317
15859WAT     H147819   6.228   3.410   0.237
15859WAT     H247820   6.300   3.284   0.312
15860WAT      O47821   5.502   4.930   1.900
15860WAT     H147822   5.581   4.991   1.911
15860WAT     H247823   5.496   4.900   1.805
15861WAT      O47824   6.766   6.505   5.799
15861WAT     H147825   6.744   6.517   5.703
15861WAT     H247826   6.744   6.589   5.849
15862WAT      O47827   9.625   9.569   7.515
15862WAT     H147828   9.586   9.489   7.468
15862WAT     H247829   9.609   9.560   7.614
15863WAT      O47830   2.239   8.753   1.678
15863WAT     H147831   2.319   8.796   1.635
15863WAT     H247832   2.162   8.758   1.615
15864WAT      O47833   2.519   8.586   3.699
15864WAT     H147834   2.533   8.643   3.780
15864WAT     H247835   2.422   8.561   3.692
15865WAT      O47836   7.375   7.492   4.127
15865WAT     H147837   7.339   7.522   4.216
15865WAT     H247838   7.305   7.502   4.057
15866WAT      O47839   3.410   5.762   5.892
15866WAT     H147840   3.327   5.711   5.918
15866WAT     H247841   3.404   5.855   5.928
15867WAT      O47842   3.161   1.561   6.631
15867WAT     H147843   3.107   1.481   6.657
15867WAT     H247844   3.235   1.575   6.697
15868WAT      O47845   4.602   6.764   8.337
15868WAT     H147846   4.569   6.670   8.344
15868WAT     H247847   4.525   6.827   8.346
15869WAT      O47848   3.799   1.441   7.891
15869WAT     H147849   3.741   1.478   7.818
15869WAT     H247850   3.751   1.369   7.939
15870WAT      O47851   2.822   4.943   8.398
15870WAT     H147852   2.762   4.915   8.324
15870WAT     H247853   2.914   4.960   8.363
15871WAT      O47854   2.084   4.826   1.235
15871WAT     H147855   2.180   4.852   1.238
15871WAT     H247856   2.042   4.865   1.153
15872WAT      O47857   6.230   7.793   9.098
15872WAT     H147858   6.223   7.697   9.070
15872WAT     H247859   6.310   7.834   9.055
15873WAT      O47860   5.519   2.799   8.696
15873WAT     H147861   5.479   2.890   8.680
15873WAT     H247862   5.585   2.779   8.624
15874WAT      O47863   9.419   7.111   6.656
15874WAT     H147864   9.430   7.127   6.558
15874WAT     H247865   9.492   7.158   6.706
15875WAT      O47866   2.333   5.392   5.172
15875WAT     H147867   2.393   5.314   5.186
15875WAT     H247868   2.238   5.362   5.176
15876WAT      O47869   0.452   8.943   6.521
15876WAT     H147870   0.443   9.039   6.494
15876WAT     H247871   0.402   8.886   6.455
15877WAT      O47872   2.803   6.754   9.784
15877WAT     H147873   2.827   6.816   9.710
15877WAT     H247874   2.878   6.750   9.850
15878WAT      O47875   4.355   2.914   6.596
15878WAT     H147876   4.424   2.844   6.615
15878WAT     H247877   4.365   2.947   6.502
15879WAT      O47878   0.451   2.164   7.782
15879WAT     H147879   0.483   2.186   7.875
15879WAT     H247880   0.523   2.186   7.716
15880WAT      O47881   9.240   6.071   3.185
15880WAT     H147882   9.338   6.084   3.175
15880WAT     H247883   9.211   5.993   3.130
15881WAT      O47884   0.566   2.255   6.843
15881WAT     H147885   0.644   2.214   6.891
15881WAT     H247886   0.517   2.317   6.905
15882WAT      O47887   4.317   6.383   6.283
15882WAT     H147888   4.300   6.481   6.273
15882WAT     H247889   4.249   6.343   6.343
15883WAT      O47890   6.109   4.167   6.809
15883WAT     H147891   6.156   4.208   6.731
15883WAT     H247892   6.176   4.135   6.876
15884WAT      O47893   1.778   8.954   1.873
15884WAT     H147894   1.787   8.950   1.973
15884WAT     H247895   1.696   9.006   1.849
15885WAT      O47896   3.318   4.125   8.776
15885WAT     H147897   3.266   4.040   8.767
15885WAT     H247898   3.319   4.173   8.688
15886WAT      O47899   4.921   8.504   0.251
15886WAT     H147900   5.017   8.488   0.230
15886WAT     H247901   4.910   8.598   0.285
15887WAT      O47902   5.812   8.773   0.719
15887WAT     H147903   5.887   8.758   0.784
15887WAT     H247904   5.726   8.779   0.769
15888WAT      O47905   2.288   7.103   6.655
15888WAT     H147906   2.379   7.103   6.615
15888WAT     H247907   2.293   7.126   6.752
15889WAT      O47908   0.941   2.147   1.283
15889WAT     H147909   0.871   2.177   1.347
15889WAT     H247910   0.924   2.187   1.193
15890WAT      O47911   6.218   8.238   2.096
15890WAT     H147912   6.175   8.328   2.094
15890WAT     H247913   6.267   8.223   2.009
15891WAT      O47914   4.455   3.301   1.120
15891WAT     H147915   4.533   3.345   1.076
15891WAT     H247916   4.384   3.283   1.052
15892WAT      O47917   5.336   9.556   6.785
15892WAT     H147918   5.415   9.538   6.726
15892WAT     H247919   5.360   9.628   6.851
15893WAT      O47920   6.146   1.542   0.432
15893WAT     H147921   6.203   1.506   0.506
15893WAT     H247922   6.115   1.467   0.374
15894WAT      O47923   0.692   0.106   2.113
15894WAT     H147924   0.621   0.044   2.081
15894WAT     H247925   0.683   0.118   2.212
15895WAT      O47926   9.339   0.493   2.770
15895WAT     H147927   9.405   0.476   2.697
15895WAT     H247928   9.378   0.556   2.837
15896WAT      O47929   4.170   7.470   2.140
15896WAT     H147930   4.127   7.380   2.132
15896WAT     H247931   4.219   7.492   2.055
15897WAT      O47932   1.616   2.980   7.092
15897WAT     H147933   1.553   3.000   7.166
15897WAT     H247934   1.708   3.010   7.117
15898WAT      O47935   6.806   0.720   9.471
15898WAT     H147936   6.889   0.664   9.474
15898WAT     H247937   6.825   0.810   9.511
15899WAT      O47938   4.160   5.641   2.041
15899WAT     H147939   4.147   5.721   2.099
15899WAT     H247940   4.097   5.568   2.070
15900WAT      O47941   7.813   7.930   6.094
15900WAT     H147942   7.765   7.846   6.066
15900WAT     H247943   7.851   7.917   6.186
15901WAT      O47944   0.660   6.949   7.964
15901WAT     H147945   0.593   7.023   7.955
15901WAT     H247946   0.704   6.933   7.875
15902WAT      O47947   8.395   2.615   8.576
15902WAT     H147948   8.329   2.664   8.633
15902WAT     H247949   8.346   2.564   8.506
15903WAT      O47950   3.981   7.425   5.955
15903WAT     H147951   4.044   7.414   6.032
15903WAT     H247952   3.969   7.522   5.936
15904WAT      O47953   7.136   9.438   6.420
15904WAT     H147954   7.164   9.458   6.514
15904WAT     H247955   7.203   9.477   6.357
15905WAT      O47956   6.088   4.660   9.653
15905WAT     H147957   6.012   4.600   9.630
15905WAT     H247958   6.097   4.732   9.584
15906WAT      O47959   0.795   2.220   5.296
15906WAT     H147960   0.842   2.186   5.377
15906WAT     H247961   0.848   2.195   5.215
15907WAT      O47962   1.091   3.789   9.822
15907WAT     H147963   1.044   3.877   9.810
15907WAT     H247964   1.190   3.804   9.816
15908WAT      O47965   3.711   2.236   6.989
15908WAT     H147966   3.633   2.249   6.928
15908WAT     H247967   3.764   2.157   6.958
15909WAT      O47968   4.944   4.880   7.604
15909WAT     H147969   4.902   4.962   7.565
15909WAT     H247970   5.030   4.903   7.648
15910WAT      O47971   8.529   9.737   0.353
15910WAT     H147972   8.444   9.781   0.327
15910WAT     H247973   8.599   9.806   0.371
15911WAT      O47974   5.819   7.530   2.744
15911WAT     H147975   5.879   7.451   2.755
15911WAT     H247976   5.862   7.595   2.681
15912WAT      O47977   6.750   0.572   1.484
15912WAT     H147978   6.803   0.596   1.565
15912WAT     H247979   6.665   0.623   1.482
15913WAT      O47980   1.466   9.487   5.785
15913WAT     H147981   1.378   9.530   5.807
15913WAT     H247982   1.537   9.558   5.779
15914WAT      O47983   2.042   2.152   5.323
15914WAT     H147984   1.954   2.194   5.348
15914WAT     H247985   2.116   2.216   5.343
15915WAT      O47986   6.639   8.232   3.953
15915WAT     H147987   6.601   8.204   4.041
15915WAT     H247988   6.649   8.152   3.893
15916WAT      O47989   1.445   4.014   0.419
15916WAT     H147990   1.452   3.998   0.518
15916WAT     H247991   1.367   3.963   0.384
15917WAT      O47992   2.506   3.986   7.662
15917WAT     H147993   2.498   4.064   7.724
15917WAT     H247994   2.557   3.912   7.707
15918WAT      O47995   5.155   5.256   7.555
15918WAT     H147996   5.181   5.331   7.494
15918WAT     H247997   5.147   5.171   7.502
15919WAT      O47998   3.101   9.719   5.057
15919WAT     H147999   3.056   9.727   4.969
15919WAT     H248000   3.149   9.632   5.063
15920WAT      O48001   2.235   6.948   3.100
15920WAT     H148002   2.270   6.988   3.184
15920WAT     H248003   2.215   7.022   3.034
15921WAT      O48004   9.545   3.740   6.111
15921WAT     H148005   9.609   3.769   6.040
15921WAT     H248006   9.453   3.770   6.088
15922WAT      O48007   2.559   9.040   5.775
15922WAT     H148008   2.485   9.097   5.812
15922WAT     H248009   2.520   8.962   5.726
15923WAT      O48010   5.045   6.990   8.453
15923WAT     H148011   5.103   6.982   8.534
15923WAT     H248012   5.043   6.903   8.404
15924WAT      O48013   5.237   5.961   0.229
15924WAT     H148014   5.304   5.893   0.201
15924WAT     H248015   5.271   6.053   0.207
15925WAT      O48016   6.691   6.947   7.487
15925WAT     H148017   6.624   6.899   7.543
15925WAT     H248018   6.654   6.961   7.395
15926WAT      O48019   7.078   8.072   2.805
15926WAT     H148020   7.136   8.153   2.805
15926WAT     H248021   7.126   7.995   2.762
15927WAT      O48022   0.663   9.221   0.828
15927WAT     H148023   0.611   9.302   0.799
15927WAT     H248024   0.609   9.139   0.809
15928WAT      O48025   6.973   5.794   9.353
15928WAT     H148026   7.069   5.781   9.326
15928WAT     H248027   6.960   5.763   9.447
15929WAT      O48028   2.487   2.159   7.710
15929WAT     H148029   2.404   2.188   7.662
15929WAT     H248030   2.540   2.098   7.651
15930WAT      O48031   3.749   5.878   2.789
15930WAT     H148032   3.838   5.921   2.776
15930WAT     H248033   3.753   5.819   2.869
15931WAT      O48034   8.149   3.958   3.482
15931WAT     H148035   8.177   4.033   3.422
15931WAT     H248036   8.062   3.980   3.526
15932WAT      O48037   0.010   4.529   4.312
15932WAT     H148038   0.018   4.474   4.229
15932WAT     H248039  -0.067   4.593   4.301
15933WAT      O48040   3.325   2.479   5.145
15933WAT     H148041   3.306   2.548   5.215
15933WAT     H248042   3.308   2.388   5.182
15934WAT      O48043   2.744   3.049   7.779
15934WAT     H148044   2.709   2.998   7.701
15934WAT     H248045   2.822   2.999   7.819
15935WAT      O48046   6.938   8.883   5.421
15935WAT     H148047   6.949   8.785   5.403
15935WAT     H248048   7.024   8.922   5.452
15936WAT      O48049   6.874   9.050   6.302
15936WAT     H148050   6.807   9.123   6.292
15936WAT     H248051   6.962   9.089   6.329
15937WAT      O48052   2.181   7.610   7.956
15937WAT     H148053   2.122   7.686   7.981
15937WAT     H248054   2.269   7.618   8.003
15938WAT      O48055   2.743   8.603   4.605
15938WAT     H148056   2.839   8.626   4.621
15938WAT     H248057   2.693   8.610   4.692
15939WAT      O48058   5.662   6.046   3.793
15939WAT     H148059   5.642   5.995   3.876
15939WAT     H248060   5.631   6.140   3.803
15940WAT      O48061   2.472   6.390   5.809
15940WAT     H148062   2.500   6.448   5.732
15940WAT     H248063   2.386   6.345   5.787
15941WAT      O48064   2.395   5.408   8.477
15941WAT     H148065   2.339   5.421   8.559
15941WAT     H248066   2.379   5.484   8.413
15942WAT      O48067   7.283   5.085   2.454
15942WAT     H148068   7.288   4.986   2.444
15942WAT     H248069   7.292   5.110   2.550
15943WAT      O48070   1.533   9.527   8.994
15943WAT     H148071   1.598   9.602   9.006
15943WAT     H248072   1.582   9.440   8.997
15944WAT      O48073   4.002   7.089   1.033
15944WAT     H148074   3.995   7.109   0.935
15944WAT     H248075   3.976   6.993   1.049
15945WAT      O48076   0.060   2.952   0.905
15945WAT     H148077   0.149   2.907   0.904
15945WAT     H248078   0.043   2.991   0.996
15946WAT      O48079   2.184   5.384   7.152
15946WAT     H148080   2.237   5.324   7.092
15946WAT     H248081   2.197   5.479   7.124
15947WAT      O48082   7.816   5.734   7.608
15947WAT     H148083   7.840   5.825   7.642
15947WAT     H248084   7.886   5.702   7.544
15948WAT      O48085   8.119   5.822   6.386
15948WAT     H148086   8.134   5.888   6.460
15948WAT     H248087   8.166   5.853   6.304
15949WAT      O48088   1.133   5.791   7.859
15949WAT     H148089   1.075   5.710   7.868
15949WAT     H248090   1.167   5.817   7.949
15950WAT      O48091   9.705   3.840   5.590
15950WAT     H148092   9.794   3.835   5.636
15950WAT     H248093   9.701   3.921   5.533
15951WAT      O48094   4.528   5.434   1.470
15951WAT     H148095   4.542   5.336   1.457
15951WAT     H248096   4.528   5.480   1.382
15952WAT      O48097   4.559   2.384   5.940
15952WAT     H148098   4.636   2.445   5.962
15952WAT     H248099   4.503   2.372   6.021
15953WAT      O48100   6.478   9.313   6.513
15953WAT     H148101   6.378   9.308   6.503
15953WAT     H248102   6.502   9.391   6.571
15954WAT      O48103   7.842   2.413   4.764
15954WAT     H148104   7.908   2.358   4.713
15954WAT     H248105   7.886   2.450   4.846
15955WAT      O48106   0.456   7.133   8.687
15955WAT     H148107   0.495   7.172   8.604
15955WAT     H248108   0.522   7.139   8.761
15956WAT      O48109   7.151   4.374   2.963
15956WAT     H148110   7.238   4.364   3.011
15956WAT     H248111   7.079   4.392   3.030
15957WAT      O48112   8.822   0.080   1.976
15957WAT     H148113   8.868   0.161   2.013
15957WAT     H248114   8.814   0.010   2.047
15958WAT      O48115   9.400   0.661   8.465
15958WAT     H148116   9.310   0.704   8.451
15958WAT     H248117   9.390   0.562   8.458
15959WAT      O48118   4.493   1.263   0.354
15959WAT     H148119   4.585   1.282   0.321
15959WAT     H248120   4.452   1.347   0.390
15960WAT      O48121   0.320   2.577   0.489
15960WAT     H148122   0.418   2.580   0.470
15960WAT     H248123   0.276   2.658   0.449
15961WAT      O48124   1.416   6.792   8.082
15961WAT     H148125   1.474   6.852   8.026
15961WAT     H248126   1.329   6.776   8.035
15962WAT      O48127   6.699   7.988   8.663
15962WAT     H148128   6.622   7.979   8.600
15962WAT     H248129   6.712   8.084   8.687
15963WAT      O48130   1.225   1.000   6.560
15963WAT     H148131   1.149   0.943   6.592
15963WAT     H248132   1.204   1.034   6.468
15964WAT      O48133   8.227   9.068   1.956
15964WAT     H148134   8.175   9.002   2.009
15964WAT     H248135   8.296   9.110   2.014
15965WAT      O48136   6.371   9.657   0.039
15965WAT     H148137   6.436   9.601  -0.013
15965WAT     H248138   6.389   9.647   0.137
15966WAT      O48139   4.700   5.135   3.825
15966WAT     H148140   4.686   5.036   3.817
15966WAT     H248141   4.620   5.183   3.787
15967WAT      O48142   4.171   5.483   9.080
15967WAT     H148143   4.085   5.438   9.058
15967WAT     H248144   4.241   5.414   9.098
15968WAT      O48145   1.705   8.624   7.577
15968WAT     H148146   1.646   8.595   7.653
15968WAT     H248147   1.655   8.690   7.520
15969WAT      O48148   5.210   7.208   3.999
15969WAT     H148149   5.149   7.133   3.971
15969WAT     H248150   5.298   7.171   4.026
15970WAT      O48151   1.077   8.988   9.151
15970WAT     H148152   1.068   8.896   9.112
15970WAT     H248153   1.166   9.026   9.123
15971WAT      O48154   8.861   7.097   3.100
15971WAT     H148155   8.897   7.090   3.008
15971WAT     H248156   8.934   7.082   3.167
15972WAT      O48157   4.398   3.237   3.331
15972WAT     H148158   4.301   3.257   3.321
15972WAT     H248159   4.423   3.238   3.428
15973WAT      O48160   3.238   3.840   6.341
15973WAT     H148161   3.279   3.758   6.300
15973WAT     H248162   3.185   3.814   6.422
15974WAT      O48163   9.414   4.650   4.533
15974WAT     H148164   9.350   4.723   4.509
15974WAT     H248165   9.436   4.656   4.631
15975WAT      O48166   8.341   8.344   2.622
15975WAT     H148167   8.302   8.420   2.570
15975WAT     H248168   8.294   8.259   2.596
15976WAT      O48169   3.351   8.911   1.017
15976WAT     H148170   3.424   8.865   1.067
15976WAT     H248171   3.359   8.889   0.920
15977WAT      O48172   2.812   4.515   2.122
15977WAT     H148173   2.843   4.436   2.068
15977WAT     H248174   2.740   4.486   2.185
15978WAT      O48175   0.297   8.689   9.862
15978WAT     H148176   0.396   8.702   9.860
15978WAT     H248177   0.257   8.748   9.933
15979WAT      O48178   3.862   9.090   8.740
15979WAT     H148179   3.955   9.053   8.747
15979WAT     H248180   3.856   9.152   8.662
15980WAT      O48181   0.323   1.725   3.714
15980WAT     H148182   0.275   1.735   3.627
15980WAT     H248183   0.367   1.811   3.739
15981WAT      O48184   2.990   9.422   9.058
15981WAT     H148185   3.051   9.346   9.040
15981WAT     H248186   2.939   9.445   8.975
15982WAT      O48187   8.726   9.371   8.560
15982WAT     H148188   8.709   9.306   8.486
15982WAT     H248189   8.720   9.323   8.648
15983WAT      O48190   6.319   7.233   0.477
15983WAT     H148191   6.223   7.206   0.489
15983WAT     H248192   6.377   7.152   0.482
15984WAT      O48193   9.154   0.713   6.693
15984WAT     H148194   9.104   0.789   6.652
15984WAT     H248195   9.091   0.639   6.715
15985WAT      O48196   0.652   7.631   6.302
15985WAT     H148197   0.624   7.540   6.271
15985WAT     H248198   0.670   7.628   6.400
15986WAT      O48199   1.201   4.096   2.039
15986WAT     H148200   1.207   4.114   2.137
15986WAT     H248201   1.143   4.017   2.022
15987WAT      O48202   7.465   8.336   3.713
15987WAT     H148203   7.514   8.254   3.685
15987WAT     H248204   7.530   8.409   3.735
15988WAT      O48205   5.571   0.860   6.956
15988WAT     H148206   5.629   0.922   6.903
15988WAT     H248207   5.608   0.851   7.048
15989WAT      O48208   5.611   2.000   1.979
15989WAT     H148209   5.511   1.997   1.979
15989WAT     H248210   5.645   1.959   2.064
15990WAT      O48211   7.996   8.138   0.325
15990WAT     H148212   7.993   8.236   0.307
15990WAT     H248213   8.085   8.114   0.365
15991WAT      O48214   8.741   2.532   1.811
15991WAT     H148215   8.724   2.628   1.832
15991WAT     H248216   8.821   2.499   1.863
15992WAT      O48217   3.221   1.750   1.301
15992WAT     H148218   3.265   1.670   1.258
15992WAT     H248219   3.133   1.723   1.338
15993WAT      O48220   6.240   6.946   8.117
15993WAT     H148221   6.209   6.865   8.066
15993WAT     H248222   6.162   6.988   8.163
15994WAT      O48223   0.728   8.823   1.698
15994WAT     H148224   0.784   8.904   1.719
15994WAT     H248225   0.783   8.741   1.707
15995WAT      O48226   1.304   9.346   9.764
15995WAT     H148227   1.320   9.405   9.843
15995WAT     H248228   1.387   9.342   9.708
15996WAT      O48229   1.274   5.005   7.344
15996WAT     H148230   1.203   5.075   7.348
15996WAT     H248231   1.328   5.007   7.429
15997WAT      O48232   1.552   1.080   7.752
15997WAT     H148233   1.586   1.168   7.785
15997WAT     H248234   1.623   1.010   7.765
15998WAT      O48235   0.153   5.895   5.818
15998WAT     H148236   0.201   5.890   5.905
15998WAT     H248237   0.114   5.806   5.796
15999WAT      O48238   8.286   4.828   6.590
15999WAT     H148239   8.233   4.877   6.660
15999WAT     H248240   8.381   4.817   6.621
16000WAT      O48241   0.227   0.613   2.666
16000WAT     H148242   0.323   0.608   2.638
16000WAT     H248243   0.176   0.670   2.601
16001WAT      O48244   0.356   2.525   8.697
16001WAT     H148245   0.281   2.563   8.643
16001WAT     H248246   0.359   2.425   8.686
16002WAT      O48247   1.325   9.646   4.955
16002WAT     H148248   1.366   9.575   5.012
16002WAT     H248249   1.226   9.643   4.964
16003WAT      O48250   1.634   0.671   2.528
16003WAT     H148251   1.566   0.610   2.570
16003WAT     H248252   1.587   0.742   2.476
16004WAT      O48253   7.617   1.925   3.274
16004WAT     H148254   7.637   1.942   3.178
16004WAT     H248255   7.528   1.878   3.281
16005WAT      O48256   9.212   2.276   7.082
16005WAT     H148257   9.262   2.286   6.996
16005WAT     H248258   9.273   2.295   7.158
16006WAT      O48259   2.415   8.276   5.563
16006WAT     H148260   2.422   8.376   5.563
16006WAT     H248261   2.468   8.239   5.638
16007WAT      O48262   3.355   7.966   0.584
16007WAT     H148263   3.278   7.989   0.644
16007WAT     H248264   3.374   7.868   0.590
16008WAT      O48265   0.759   3.863   9.842
16008WAT     H148266   0.790   3.823   9.756
16008WAT     H248267   0.669   3.826   9.866
16009WAT      O48268   5.092   1.635   7.071
16009WAT     H148269   5.163   1.600   7.009
16009WAT     H248270   5.132   1.705   7.131
16010WAT      O48271   1.345   2.069   2.023
16010WAT     H148272   1.270   2.003   2.026
16010WAT     H248273   1.399   2.055   1.940
16011WAT      O48274   2.415   2.293   3.055
16011WAT     H148275   2.468   2.250   3.128
16011WAT     H248276   2.337   2.341   3.095
16012WAT      O48277   7.493   6.388   8.258
16012WAT     H148278   7.424   6.407   8.188
16012WAT     H248279   7.472   6.300   8.302
16013WAT      O48280   5.897   4.837   9.245
16013WAT     H148281   5.864   4.865   9.335
16013WAT     H248282   5.989   4.872   9.231
16014WAT      O48283   9.537   0.584   5.008
16014WAT     H148284   9.598   0.602   5.084
16014WAT     H248285   9.479   0.663   4.991
16015WAT      O48286   0.844   7.603   0.928
16015WAT     H148287   0.876   7.687   0.971
16015WAT     H248288   0.754   7.617   0.889
16016WAT      O48289   0.167   1.745   7.017
16016WAT     H148290   0.096   1.755   6.947
16016WAT     H248291   0.166   1.651   7.051
16017WAT      O48292   2.282   4.155   6.410
16017WAT     H148293   2.351   4.084   6.426
16017WAT     H248294   2.215   4.123   6.344
16018WAT      O48295   1.189   6.910   1.205
16018WAT     H148296   1.174   6.987   1.142
16018WAT     H248297   1.129   6.834   1.180
16019WAT      O48298   2.336   8.181   5.213
16019WAT     H148299   2.393   8.135   5.281
16019WAT     H248300   2.310   8.116   5.142
16020WAT      O48301   3.202   7.405   7.972
16020WAT     H148302   3.187   7.318   7.924
16020WAT     H248303   3.114   7.453   7.980
16021WAT      O48304   0.870   3.914   0.191
16021WAT     H148305   0.853   3.882   0.098
16021WAT     H248306   0.820   3.998   0.208
16022WAT      O48307   4.961   6.974   3.013
16022WAT     H148308   5.044   6.934   3.053
16022WAT     H248309   4.892   6.985   3.084
16023WAT      O48310   8.788   0.846   1.353
16023WAT     H148311   8.883   0.859   1.324
16023WAT     H248312   8.763   0.750   1.342
16024WAT      O48313   2.656   3.588   9.533
16024WAT     H148314   2.561   3.609   9.509
16024WAT     H248315   2.668   3.489   9.539
16025WAT      O48316   2.994   3.253   5.961
16025WAT     H148317   2.950   3.168   5.990
16025WAT     H248318   3.093   3.242   5.961
16026WAT      O48319   3.234   9.721   3.402
16026WAT     H148320   3.194   9.669   3.326
16026WAT     H248321   3.241   9.662   3.482
16027WAT      O48322   0.636   1.635   8.319
16027WAT     H148323   0.686   1.709   8.274
16027WAT     H248324   0.628   1.655   8.417
16028WAT      O48325   4.287   6.500   9.852
16028WAT     H148326   4.299   6.546   9.941
16028WAT     H248327   4.231   6.558   9.792
16029WAT      O48328   0.570   3.783   0.511
16029WAT     H148329   0.648   3.837   0.542
16029WAT     H248330   0.589   3.686   0.526
16030WAT      O48331   9.044   6.972   5.984
16030WAT     H148332   9.003   6.894   5.937
16030WAT     H248333   9.048   6.953   6.083
16031WAT      O48334   4.600   2.688   1.070
16031WAT     H148335   4.658   2.726   1.143
16031WAT     H248336   4.647   2.695   0.983
16032WAT      O48337   8.389   3.394   1.207
16032WAT     H148338   8.399   3.365   1.302
16032WAT     H248339   8.474   3.437   1.176
16033WAT      O48340   0.732   4.186   9.478
16033WAT     H148341   0.808   4.172   9.415
16033WAT     H248342   0.674   4.104   9.479
16034WAT      O48343   9.442   5.965   6.398
16034WAT     H148344   9.508   5.945   6.326
16034WAT     H248345   9.393   6.050   6.375
16035WAT      O48346   0.430   7.979   5.655
16035WAT     H148347   0.373   7.913   5.606
16035WAT     H248348   0.515   7.994   5.604
16036WAT      O48349   3.585   8.411   0.769
16036WAT     H148350   3.582   8.321   0.724
16036WAT     H248351   3.677   8.449   0.760
16037WAT      O48352   0.385   5.746   8.469
16037WAT     H148353   0.369   5.845   8.464
16037WAT     H248354   0.472   5.728   8.514
16038WAT      O48355   1.226   4.806   8.425
16038WAT     H148356   1.209   4.708   8.434
16038WAT     H248357   1.166   4.844   8.355
16039WAT      O48358   7.794   0.834   7.423
16039WAT     H148359   7.730   0.905   7.392
16039WAT     H248360   7.758   0.792   7.507
16040WAT      O48361   4.795   9.295   5.619
16040WAT     H148362   4.834   9.213   5.578
16040WAT     H248363   4.836   9.309   5.710
16041WAT      O48364   2.955   5.171   8.610
16041WAT     H148365   2.994   5.225   8.685
16041WAT     H248366   3.016   5.093   8.591
16042WAT      O48367   8.252   7.376   4.757
16042WAT     H148368   8.313   7.427   4.696
16042WAT     H248369   8.306   7.323   4.822
16043WAT      O48370   4.849   5.425   2.214
16043WAT     H148371   4.762   5.467   2.191
16043WAT     H248372   4.834   5.352   2.281
16044WAT      O48373   1.685   9.361   3.936
16044WAT     H148374   1.701   9.446   3.986
16044WAT     H248375   1.587   9.344   3.930
16045WAT      O48376   5.135   9.471   4.978
16045WAT     H148377   5.109   9.499   5.070
16045WAT     H248378   5.054   9.440   4.928
16046WAT      O48379   9.355   3.921   2.216
16046WAT     H148380   9.391   4.001   2.264
16046WAT     H248381   9.256   3.929   2.210
16047WAT      O48382   5.142   4.609   7.599
16047WAT     H148383   5.226   4.560   7.576
16047WAT     H248384   5.091   4.627   7.515
16048WAT      O48385   2.029   7.034   7.064
16048WAT     H148386   1.948   7.000   7.015
16048WAT     H248387   2.107   7.036   7.002
16049WAT      O48388   3.182   4.392   6.294
16049WAT     H148389   3.263   4.443   6.262
16049WAT     H248390   3.102   4.452   6.289
16050WAT      O48391   8.654   4.590   7.605
16050WAT     H148392   8.698   4.633   7.683
16050WAT     H248393   8.702   4.506   7.582
16051WAT      O48394   1.723   7.723   9.815
16051WAT     H148395   1.669   7.698   9.895
16051WAT     H248396   1.663   7.744   9.739
16052WAT      O48397   3.534   9.783   8.541
16052WAT     H148398   3.487   9.867   8.568
16052WAT     H248399   3.519   9.766   8.443
16053WAT      O48400   1.440   0.022   0.580
16053WAT     H148401   1.415   0.106   0.533
16053WAT     H248402   1.519  -0.020   0.536
16054WAT      O48403   5.913   1.633   0.503
16054WAT     H148404   6.000   1.589   0.481
16054WAT     H248405   5.889   1.698   0.430
16055WAT      O48406   1.399   3.847   0.826
16055WAT     H148407   1.491   3.833   0.863
16055WAT     H248408   1.351   3.914   0.882
16056WAT      O48409   5.702   7.296   5.825
16056WAT     H148410   5.732   7.371   5.765
16056WAT     H248411   5.630   7.244   5.779
16057WAT      O48412   1.588   8.494   1.064
16057WAT     H148413   1.497   8.536   1.057
16057WAT     H248414   1.577   8.395   1.071
16058WAT      O48415   8.732   5.168   0.296
16058WAT     H148416   8.808   5.110   0.268
16058WAT     H248417   8.653   5.151   0.236
16059WAT      O48418   5.518   0.393   8.088
16059WAT     H148419   5.501   0.298   8.112
16059WAT     H248420   5.561   0.440   8.166
16060WAT      O48421   7.271   6.221   3.830
16060WAT     H148422   7.249   6.141   3.774
16060WAT     H248423   7.211   6.296   3.806
16061WAT      O48424   8.539   1.262   2.895
16061WAT     H148425   8.488   1.181   2.923
16061WAT     H248426   8.637   1.246   2.907
16062WAT      O48427   9.173   2.321   7.797
16062WAT     H148428   9.182   2.418   7.821
16062WAT     H248429   9.093   2.283   7.844
16063WAT      O48430   9.023   2.670   4.133
16063WAT     H148431   9.101   2.677   4.194
16063WAT     H248432   9.037   2.730   4.054
16064WAT      O48433   4.611   9.202   5.054
16064WAT     H148434   4.599   9.153   4.968
16064WAT     H248435   4.534   9.264   5.069
16065WAT      O48436   2.338   8.073   7.881
16065WAT     H148437   2.351   7.978   7.908
16065WAT     H248438   2.278   8.077   7.801
16066WAT      O48439   1.618   6.933   6.562
16066WAT     H148440   1.689   6.868   6.588
16066WAT     H248441   1.658   7.025   6.555
16067WAT      O48442   3.001   3.595   3.030
16067WAT     H148443   2.930   3.620   2.964
16067WAT     H248444   3.090   3.621   2.995
16068WAT      O48445   8.379   6.795   1.920
16068WAT     H148446   8.332   6.807   2.008
16068WAT     H248447   8.370   6.700   1.891
16069WAT      O48448   8.531   0.019   8.397
16069WAT     H148449   8.572  -0.069   8.372
16069WAT     H248450   8.473   0.051   8.323
16070WAT      O48451   5.740   1.338   9.458
16070WAT     H148452   5.832   1.370   9.479
16070WAT     H248453   5.734   1.311   9.362
16071WAT      O48454   5.858   1.411   5.848
16071WAT     H148455   5.913   1.494   5.863
16071WAT     H248456   5.809   1.388   5.931
16072WAT      O48457   0.544   7.352   1.816
16072WAT     H148458   0.495   7.382   1.734
16072WAT     H248459   0.642   7.368   1.804
16073WAT      O48460   1.028   9.020   1.197
16073WAT     H148461   1.083   8.957   1.142
16073WAT     H248462   0.957   8.968   1.244
16074WAT      O48463   2.573   7.723   9.662
16074WAT     H148464   2.562   7.788   9.586
16074WAT     H248465   2.525   7.638   9.641
16075WAT      O48466   6.133   4.462   0.897
16075WAT     H148467   6.095   4.509   0.976
16075WAT     H248468   6.187   4.526   0.843
16076WAT      O48469   0.606   4.662   2.036
16076WAT     H148470   0.613   4.761   2.031
16076WAT     H248471   0.513   4.634   2.009
16077WAT      O48472   6.209   7.422   0.866
16077WAT     H148473   6.295   7.389   0.906
16077WAT     H248474   6.172   7.495   0.924
16078WAT      O48475   9.191   6.521   3.055
16078WAT     H148476   9.110   6.462   3.057
16078WAT     H248477   9.165   6.614   3.082
16079WAT      O48478   7.579   2.719   8.963
16079WAT     H148479   7.521   2.646   8.929
16079WAT     H248480   7.544   2.752   9.051
16080WAT      O48481   1.520   0.955   3.591
16080WAT     H148482   1.613   0.968   3.555
16080WAT     H248483   1.454   0.978   3.519
16081WAT      O48484   8.245   1.031   5.320
16081WAT     H148485   8.151   1.031   5.352
16081WAT     H248486   8.254   1.094   5.242
16082WAT      O48487   4.658   8.645   5.215
16082WAT     H148488   4.718   8.677   5.289
16082WAT     H248489   4.629   8.723   5.159
16083WAT      O48490   5.170   3.688   7.261
16083WAT     H148491   5.164   3.589   7.249
16083WAT     H248492   5.248   3.724   7.209
16084WAT      O48493   8.547   1.306   3.815
16084WAT     H148494   8.615   1.347   3.755
16084WAT     H248495   8.523   1.215   3.781
16085WAT      O48496   6.429   9.351   7.706
16085WAT     H148497   6.461   9.444   7.728
16085WAT     H248498   6.415   9.343   7.607
16086WAT      O48499   9.456   5.870   2.719
16086WAT     H148500   9.376   5.919   2.684
16086WAT     H248501   9.519   5.935   2.762
16087WAT      O48502   3.962   2.438   5.792
16087WAT     H148503   4.004   2.521   5.830
16087WAT     H248504   4.031   2.386   5.742
16088WAT      O48505   4.040   8.727   3.562
16088WAT     H148506   3.963   8.732   3.499
16088WAT     H248507   4.018   8.662   3.636
16089WAT      O48508   2.085   1.755   4.956
16089WAT     H148509   2.179   1.768   4.986
16089WAT     H248510   2.025   1.815   5.009
16090WAT      O48511   9.484   5.226   1.931
16090WAT     H148512   9.391   5.222   1.967
16090WAT     H248513   9.483   5.268   1.840
16091WAT      O48514   2.285   5.262   8.961
16091WAT     H148515   2.303   5.351   9.004
16091WAT     H248516   2.278   5.192   9.031
16092WAT      O48517   5.091   6.133   9.334
16092WAT     H148518   5.061   6.213   9.385
16092WAT     H248519   5.025   6.058   9.348
16093WAT      O48520   3.210   5.576   5.923
16093WAT     H148521   3.265   5.494   5.907
16093WAT     H248522   3.164   5.568   6.012
16094WAT      O48523   0.389   1.561   8.258
16094WAT     H148524   0.482   1.589   8.283
16094WAT     H248525   0.374   1.467   8.289
16095WAT      O48526   5.238   1.131   3.733
16095WAT     H148527   5.244   1.049   3.677
16095WAT     H248528   5.161   1.187   3.702
16096WAT      O48529   6.704   3.585   2.320
16096WAT     H148530   6.743   3.584   2.228
16096WAT     H248531   6.692   3.492   2.352
16097WAT      O48532   7.218   4.423   6.835
16097WAT     H148533   7.309   4.395   6.806
16097WAT     H248534   7.212   4.417   6.935
16098WAT      O48535   7.141   6.883   6.703
16098WAT     H148536   7.067   6.948   6.683
16098WAT     H248537   7.116   6.827   6.782
16099WAT      O48538   2.939   6.670   9.220
16099WAT     H148539   2.994   6.701   9.297
16099WAT     H248540   2.940   6.739   9.148
16100WAT      O48541   4.191   8.050   2.720
16100WAT     H148542   4.268   8.109   2.701
16100WAT     H248543   4.224   7.960   2.750
16101WAT      O48544   0.633   5.029   0.623
16101WAT     H148545   0.538   5.037   0.654
16101WAT     H248546   0.659   4.933   0.616
16102WAT      O48547   2.698   2.712   4.388
16102WAT     H148548   2.723   2.657   4.309
16102WAT     H248549   2.776   2.767   4.417
16103WAT      O48550   4.846   3.982   2.654
16103WAT     H148551   4.884   4.042   2.584
16103WAT     H248552   4.796   4.036   2.721
16104WAT      O48553   2.434   6.676   3.106
16104WAT     H148554   2.339   6.684   3.136
16104WAT     H248555   2.492   6.731   3.165
16105WAT      O48556   8.296   1.958   8.057
16105WAT     H148557   8.297   1.956   7.957
16105WAT     H248558   8.390   1.966   8.090
16106WAT      O48559   2.565   8.864   2.147
16106WAT     H148560   2.644   8.819   2.104
16106WAT     H248561   2.537   8.811   2.227
16107WAT      O48562   7.853   8.144   1.610
16107WAT     H148563   7.864   8.237   1.644
16107WAT     H248564   7.770   8.138   1.555
16108WAT      O48565   8.814   2.099   9.654
16108WAT     H148566   8.747   2.099   9.728
16108WAT     H248567   8.767   2.106   9.566
16109WAT      O48568   9.663   3.221   9.177
16109WAT     H148569   9.622   3.154   9.239
16109WAT     H248570   9.647   3.313   9.213
16110WAT      O48571   4.217   8.191   0.385
16110WAT     H148572   4.244   8.147   0.471
16110WAT     H248573   4.139   8.142   0.347
16111WAT      O48574   0.793   3.852   3.800
16111WAT     H148575   0.731   3.916   3.844
16111WAT     H248576   0.748   3.811   3.720
16112WAT      O48577   8.557   6.782   2.699
16112WAT     H148578   8.615   6.845   2.751
16112WAT     H248579   8.478   6.832   2.663
16113WAT      O48580   3.570   9.709   2.774
16113WAT     H148581   3.609   9.708   2.866
16113WAT     H248582   3.523   9.795   2.758
16114WAT      O48583   1.895   9.240   2.443
16114WAT     H148584   1.836   9.272   2.369
16114WAT     H248585   1.928   9.318   2.496
16115WAT      O48586   1.361   4.767   9.163
16115WAT     H148587   1.312   4.839   9.113
16115WAT     H248588   1.446   4.746   9.115
16116WAT      O48589   8.563   4.958   5.573
16116WAT     H148590   8.588   4.924   5.482
16116WAT     H248591   8.490   5.026   5.564
16117WAT      O48592   5.421   1.214   1.106
16117WAT     H148593   5.344   1.277   1.118
16117WAT     H248594   5.396   1.124   1.141
16118WAT      O48595   6.246   5.962   0.490
16118WAT     H148596   6.294   6.048   0.468
16118WAT     H248597   6.149   5.981   0.501
16119WAT      O48598   1.414   5.320   3.274
16119WAT     H148599   1.368   5.406   3.293
16119WAT     H248600   1.381   5.250   3.337
16120WAT      O48601   4.335   0.915   2.702
16120WAT     H148602   4.407   0.953   2.643
16120WAT     H248603   4.250   0.965   2.686
16121WAT      O48604   6.220   5.621   4.369
16121WAT     H148605   6.308   5.667   4.362
16121WAT     H248606   6.205   5.566   4.287
16122WAT      O48607   8.285   2.378   5.760
16122WAT     H148608   8.196   2.341   5.735
16122WAT     H248609   8.291   2.474   5.732
16123WAT      O48610   0.954   9.737   8.976
16123WAT     H148611   0.924   9.646   9.003
16123WAT     H248612   0.964   9.741   8.877
16124WAT      O48613   1.153   8.479   6.847
16124WAT     H148614   1.132   8.504   6.942
16124WAT     H248615   1.168   8.561   6.793
16125WAT      O48616   4.327   2.260   8.982
16125WAT     H148617   4.393   2.332   9.003
16125WAT     H248618   4.238   2.301   8.959
16126WAT      O48619   5.274   9.472   7.790
16126WAT     H148620   5.314   9.550   7.838
16126WAT     H248621   5.178   9.461   7.816
16127WAT      O48622   4.575   3.846   5.044
16127WAT     H148623   4.625   3.933   5.044
16127WAT     H248624   4.494   3.853   5.102
16128WAT      O48625   0.719   0.866   0.743
16128WAT     H148626   0.648   0.814   0.695
16128WAT     H248627   0.687   0.888   0.835
16129WAT      O48628   7.605   9.326   0.638
16129WAT     H148629   7.529   9.381   0.673
16129WAT     H248630   7.683   9.334   0.700
16130WAT      O48631   8.981   0.438   0.195
16130WAT     H148632   9.009   0.518   0.248
16130WAT     H248633   8.883   0.444   0.174
16131WAT      O48634   2.396   0.398   3.082
16131WAT     H148635   2.406   0.318   3.024
16131WAT     H248636   2.486   0.424   3.118
16132WAT      O48637   5.206   2.305   3.002
16132WAT     H148638   5.193   2.206   3.010
16132WAT     H248639   5.135   2.343   2.942
16133WAT      O48640   1.176   2.698   0.581
16133WAT     H148641   1.093   2.644   0.573
16133WAT     H248642   1.236   2.679   0.503
16134WAT      O48643   6.222   1.042   9.240
16134WAT     H148644   6.269   0.983   9.174
16134WAT     H248645   6.249   1.018   9.333
16135WAT      O48646   8.734   8.226   0.910
16135WAT     H148647   8.739   8.143   0.855
16135WAT     H248648   8.759   8.305   0.854
16136WAT      O48649   2.097   6.779   5.430
16136WAT     H148650   2.113   6.875   5.453
16136WAT     H248651   2.068   6.772   5.335
16137WAT      O48652   0.757   5.680   5.351
16137WAT     H148653   0.773   5.761   5.294
16137WAT     H248654   0.795   5.599   5.306
16138WAT      O48655   9.406   3.176   2.546
16138WAT     H148656   9.410   3.250   2.478
16138WAT     H248657   9.473   3.106   2.523
16139WAT      O48658   5.973   3.008   2.072
16139WAT     H148659   6.061   2.968   2.045
16139WAT     H248660   5.962   3.000   2.171
16140WAT      O48661   1.343   8.071   8.848
16140WAT     H148662   1.296   8.140   8.794
16140WAT     H248663   1.289   7.987   8.849
16141WAT      O48664   6.669   7.345   1.298
16141WAT     H148665   6.707   7.437   1.287
16141WAT     H248666   6.679   7.317   1.394
16142WAT      O48667   5.464   8.972   2.767
16142WAT     H148668   5.552   9.018   2.752
16142WAT     H248669   5.428   8.939   2.680
16143WAT      O48670   5.248   0.661   4.767
16143WAT     H148671   5.223   0.643   4.862
16143WAT     H248672   5.333   0.712   4.763
16144WAT      O48673   8.850   4.157   1.037
16144WAT     H148674   8.912   4.235   1.041
16144WAT     H248675   8.824   4.130   1.130
16145WAT      O48676   1.630   8.562   6.664
16145WAT     H148677   1.543   8.512   6.657
16145WAT     H248678   1.702   8.498   6.691
16146WAT      O48679   1.147   0.584   2.545
16146WAT     H148680   1.097   0.627   2.620
16146WAT     H248681   1.153   0.648   2.468
16147WAT      O48682   0.368   7.390   7.282
16147WAT     H148683   0.338   7.354   7.193
16147WAT     H248684   0.316   7.472   7.304
16148WAT      O48685   1.667   8.041   1.896
16148WAT     H148686   1.759   8.021   1.863
16148WAT     H248687   1.635   7.964   1.952
16149WAT      O48688   7.517   2.673   4.161
16149WAT     H148689   7.433   2.690   4.212
16149WAT     H248690   7.552   2.582   4.184
16150WAT      O48691   8.620   7.892   7.336
16150WAT     H148692   8.645   7.954   7.411
16150WAT     H248693   8.643   7.798   7.362
16151WAT      O48694   5.804   7.959   2.879
16151WAT     H148695   5.762   7.983   2.791
16151WAT     H248696   5.859   8.036   2.911
16152WAT      O48697   4.977   8.766   2.309
16152WAT     H148698   5.059   8.734   2.261
16152WAT     H248699   4.965   8.713   2.393
16153WAT      O48700   5.845   9.823   0.696
16153WAT     H148701   5.919   9.788   0.753
16153WAT     H248702   5.760   9.777   0.720
16154WAT      O48703   3.671   2.170   5.958
16154WAT     H148704   3.708   2.212   5.874
16154WAT     H248705   3.572   2.160   5.949
16155WAT      O48706   0.924   7.403   6.451
16155WAT     H148707   0.947   7.403   6.354
16155WAT     H248708   0.849   7.466   6.468
16156WAT      O48709   6.321   3.637   0.058
16156WAT     H148710   6.406   3.668   0.101
16156WAT     H248711   6.245   3.694   0.090
16157WAT      O48712   4.921   8.714   1.547
16157WAT     H148713   4.881   8.736   1.458
16157WAT     H248714   5.020   8.702   1.538
16158WAT      O48715   3.597   3.606   4.192
16158WAT     H148716   3.526   3.557   4.243
16158WAT     H248717   3.591   3.582   4.095
16159WAT      O48718   2.541   2.479   6.753
16159WAT     H148719   2.619   2.427   6.786
16159WAT     H248720   2.513   2.444   6.663
16160WAT      O48721   3.862   7.758   4.611
16160WAT     H148722   3.911   7.789   4.692
16160WAT     H248723   3.772   7.801   4.608
16161WAT      O48724   0.573   1.399   3.182
16161WAT     H148725   0.560   1.497   3.167
16161WAT     H248726   0.633   1.386   3.261
16162WAT      O48727   9.063   0.938   0.769
16162WAT     H148728   9.028   0.940   0.675
16162WAT     H248729   9.114   0.854   0.784
16163WAT      O48730   5.334   3.421   3.115
16163WAT     H148731   5.332   3.517   3.089
16163WAT     H248732   5.397   3.408   3.192
16164WAT      O48733   1.286   0.224   7.805
16164WAT     H148734   1.368   0.245   7.752
16164WAT     H248735   1.291   0.130   7.837
16165WAT      O48736   4.014   3.255   0.544
16165WAT     H148737   3.989   3.334   0.487
16165WAT     H248738   3.933   3.221   0.591
16166WAT      O48739   7.293   0.937   7.030
16166WAT     H148740   7.333   0.995   6.959
16166WAT     H248741   7.201   0.909   7.003
16167WAT      O48742   1.224   9.189   4.597
16167WAT     H148743   1.243   9.114   4.660
16167WAT     H248744   1.305   9.248   4.590
16168WAT      O48745   2.635   0.770   0.903
16168WAT     H148746   2.546   0.807   0.930
16168WAT     H248747   2.668   0.819   0.822
16169WAT      O48748   9.303   4.779   7.335
16169WAT     H148749   9.264   4.766   7.426
16169WAT     H248750   9.271   4.706   7.274
16170WAT      O48751   9.075   8.931   1.537
16170WAT     H148752   9.077   9.015   1.483
16170WAT     H248753   9.155   8.928   1.596
16171WAT      O48754   6.874   7.107   1.907
16171WAT     H148755   6.907   7.187   1.858
16171WAT     H248756   6.945   7.075   1.970
16172WAT      O48757   6.340   5.696   8.897
16172WAT     H148758   6.257   5.684   8.951
16172WAT     H248759   6.377   5.606   8.873
16173WAT      O48760   0.390   2.216   3.746
16173WAT     H148761   0.464   2.280   3.723
16173WAT     H248762   0.317   2.265   3.793
16174WAT      O48763   9.090   3.043   4.137
16174WAT     H148764   9.086   2.957   4.087
16174WAT     H248765   9.181   3.083   4.128
16175WAT      O48766   8.900   5.290   7.436
16175WAT     H148767   8.989   5.330   7.456
16175WAT     H248768   8.843   5.356   7.386
16176WAT      O48769   2.781   4.391   2.694
16176WAT     H148770   2.761   4.338   2.611
16176WAT     H248771   2.796   4.487   2.669
16177WAT      O48772   8.056   0.523   1.390
16177WAT     H148773   7.962   0.517   1.424
16177WAT     H248774   8.078   0.619   1.370
16178WAT      O48775   7.570   2.861   9.191
16178WAT     H148776   7.571   2.887   9.287
16178WAT     H248777   7.535   2.937   9.136
16179WAT      O48778   3.047   3.054   0.757
16179WAT     H148779   2.983   3.004   0.699
16179WAT     H248780   3.086   2.992   0.825
16180WAT      O48781   9.522   4.604   0.236
16180WAT     H148782   9.464   4.530   0.202
16180WAT     H248783   9.618   4.577   0.228
16181WAT      O48784   6.551   0.501   6.564
16181WAT     H148785   6.499   0.551   6.494
16181WAT     H248786   6.496   0.425   6.598
16182WAT      O48787   4.806   6.102   8.867
16182WAT     H148788   4.735   6.085   8.936
16182WAT     H248789   4.833   6.198   8.870
16183WAT      O48790   9.688   5.304   7.883
16183WAT     H148791   9.590   5.288   7.867
16183WAT     H248792   9.735   5.309   7.795
16184WAT      O48793   0.153   7.837   1.686
16184WAT     H148794   0.156   7.880   1.776
16184WAT     H248795   0.213   7.757   1.685
16185WAT      O48796   9.180   3.670   6.819
16185WAT     H148797   9.090   3.687   6.861
16185WAT     H248798   9.168   3.660   6.720
16186WAT      O48799   8.315   8.525   5.222
16186WAT     H148800   8.388   8.462   5.246
16186WAT     H248801   8.238   8.512   5.284
16187WAT      O48802   7.076   3.434   7.012
16187WAT     H148803   7.053   3.353   6.957
16187WAT     H248804   7.165   3.421   7.055
16188WAT      O48805   0.367   9.452   2.875
16188WAT     H148806   0.387   9.512   2.798
16188WAT     H248807   0.423   9.478   2.954
16189WAT      O48808   7.278   7.468   1.703
16189WAT     H148809   7.198   7.431   1.751
16189WAT     H248810   7.255   7.485   1.607
16190WAT      O48811   8.591   6.423   5.127
16190WAT     H148812   8.606   6.327   5.106
16190WAT     H248813   8.633   6.480   5.056
16191WAT      O48814   7.920   6.773   5.831
16191WAT     H148815   7.887   6.718   5.907
16191WAT     H248816   7.893   6.868   5.844
16192WAT      O48817   4.392   1.576   2.338
16192WAT     H148818   4.310   1.529   2.305
16192WAT     H248819   4.460   1.582   2.265
16193WAT      O48820   6.718   3.218   4.199
16193WAT     H148821   6.735   3.290   4.133
16193WAT     H248822   6.798   3.157   4.203
16194WAT      O48823   0.047   9.714   3.413
16194WAT     H148824  -0.043   9.745   3.380
16194WAT     H248825   0.063   9.620   3.382
16195WAT      O48826   7.622   0.703   4.075
16195WAT     H148827   7.661   0.687   4.165
16195WAT     H248828   7.522   0.695   4.080
16196WAT      O48829   4.766   4.647   5.332
16196WAT     H148830   4.688   4.587   5.313
16196WAT     H248831   4.769   4.667   5.430
16197WAT      O48832   0.945   8.408   8.011
16197WAT     H148833   0.964   8.414   7.913
16197WAT     H248834   0.846   8.409   8.027
16198WAT      O48835   1.200   7.312   4.590
16198WAT     H148836   1.221   7.409   4.603
16198WAT     H248837   1.103   7.302   4.568
16199WAT      O48838   6.914   5.160   6.059
16199WAT     H148839   6.907   5.068   6.097
16199WAT     H248840   6.865   5.164   5.971
16200WAT      O48841   8.906   8.633   6.652
16200WAT     H148842   8.828   8.631   6.589
16200WAT     H248843   8.879   8.676   6.738
16201WAT      O48844   0.867   4.003   9.127
16201WAT     H148845   0.864   3.968   9.034
16201WAT     H248846   0.789   3.967   9.179
16202WAT      O48847   7.252   7.644   3.012
16202WAT     H148848   7.241   7.545   2.999
16202WAT     H248849   7.349   7.667   3.007
16203WAT      O48850   1.672   2.160   7.280
16203WAT     H148851   1.730   2.181   7.201
16203WAT     H248852   1.576   2.164   7.253
16204WAT      O48853   6.780   7.972   1.725
16204WAT     H148854   6.781   8.065   1.690
16204WAT     H248855   6.856   7.959   1.788
16205WAT      O48856   4.421   9.754   2.364
16205WAT     H148857   4.371   9.668   2.354
16205WAT     H248858   4.475   9.752   2.448
16206WAT      O48859   8.280   3.376   2.512
16206WAT     H148860   8.223   3.316   2.568
16206WAT     H248861   8.256   3.472   2.532
16207WAT      O48862   7.984   6.831   1.196
16207WAT     H148863   8.014   6.800   1.106
16207WAT     H248864   8.026   6.919   1.216
16208WAT      O48865   7.344   0.715   4.138
16208WAT     H148866   7.354   0.778   4.215
16208WAT     H248867   7.251   0.720   4.102
16209WAT      O48868   4.273   4.507   6.068
16209WAT     H148869   4.295   4.494   6.164
16209WAT     H248870   4.233   4.598   6.054
16210WAT      O48871   8.302   7.672   7.974
16210WAT     H148872   8.226   7.730   8.004
16210WAT     H248873   8.355   7.642   8.053
16211WAT      O48874   2.806   0.258   0.998
16211WAT     H148875   2.750   0.328   0.955
16211WAT     H248876   2.903   0.280   0.986
16212WAT      O48877   2.761   3.151   1.136
16212WAT     H148878   2.783   3.149   1.233
16212WAT     H248879   2.844   3.168   1.083
16213WAT      O48880   0.943   3.579   8.601
16213WAT     H148881   0.850   3.599   8.569
16213WAT     H248882   1.003   3.655   8.578
16214WAT      O48883   2.609   6.878   8.523
16214WAT     H148884   2.514   6.904   8.503
16214WAT     H248885   2.625   6.883   8.621
16215WAT      O48886   7.767   1.460   9.467
16215WAT     H148887   7.708   1.531   9.505
16215WAT     H248888   7.761   1.378   9.523
16216WAT      O48889   6.985   9.256   3.523
16216WAT     H148890   6.922   9.216   3.457
16216WAT     H248891   7.075   9.214   3.512
16217WAT      O48892   2.572   1.320   8.723
16217WAT     H148893   2.602   1.237   8.769
16217WAT     H248894   2.616   1.327   8.634
16218WAT      O48895   0.047   4.683   1.495
16218WAT     H148896   0.016   4.706   1.587
16218WAT     H248897   0.089   4.764   1.452
16219WAT      O48898   8.746   4.486   2.401
16219WAT     H148899   8.836   4.474   2.445
16219WAT     H248900   8.756   4.547   2.322
16220WAT      O48901   5.212   5.111   0.530
16220WAT     H148902   5.273   5.091   0.607
16220WAT     H248903   5.170   5.200   0.543
16221WAT      O48904   1.144   6.423   8.291
16221WAT     H148905   1.218   6.490   8.285
16221WAT     H248906   1.131   6.380   8.202
16222WAT      O48907   6.437   7.845   4.971
16222WAT     H148908   6.373   7.816   5.043
16222WAT     H248909   6.523   7.797   4.983
16223WAT      O48910   5.585   3.734   8.384
16223WAT     H148911   5.526   3.716   8.462
16223WAT     H248912   5.564   3.824   8.346
16224WAT      O48913   2.042   8.114   1.781
16224WAT     H148914   1.977   8.054   1.733
16224WAT     H248915   2.073   8.068   1.864
16225WAT      O48916   6.415   1.040   6.424
16225WAT     H148917   6.356   1.059   6.345
16225WAT     H248918   6.360   1.037   6.507
16226WAT      O48919   0.784   1.274   0.802
16226WAT     H148920   0.860   1.338   0.794
16226WAT     H248921   0.782   1.215   0.722
16227WAT      O48922   3.059   3.812   3.986
16227WAT     H148923   3.091   3.720   4.010
16227WAT     H248924   2.974   3.831   4.036
16228WAT      O48925   3.541   0.199   9.251
16228WAT     H148926   3.495   0.285   9.271
16228WAT     H248927   3.473   0.127   9.237
16229WAT      O48928   5.598   8.638   6.740
16229WAT     H148929   5.543   8.636   6.657
16229WAT     H248930   5.636   8.547   6.757
16230WAT      O48931   1.556   8.389   9.838
16230WAT     H148932   1.575   8.291   9.825
16230WAT     H248933   1.472   8.399   9.891
16231WAT      O48934   8.149   6.420   5.775
16231WAT     H148935   8.170   6.425   5.677
16231WAT     H248936   8.194   6.496   5.822
16232WAT      O48937   3.423   3.062   3.262
16232WAT     H148938   3.451   3.042   3.168
16232WAT     H248939   3.370   2.985   3.298
16233WAT      O48940   6.383   9.306   2.768
16233WAT     H148941   6.366   9.389   2.821
16233WAT     H248942   6.438   9.329   2.687
16234WAT      O48943   2.559   6.663   1.753
16234WAT     H148944   2.638   6.661   1.814
16234WAT     H248945   2.483   6.612   1.794
16235WAT      O48946   8.049   2.152   2.172
16235WAT     H148947   8.106   2.229   2.144
16235WAT     H248948   7.957   2.164   2.136
16236WAT      O48949   4.733   2.075   7.742
16236WAT     H148950   4.682   2.008   7.686
16236WAT     H248951   4.743   2.039   7.835
16237WAT      O48952   8.560   0.730   0.850
16237WAT     H148953   8.613   0.747   0.766
16237WAT     H248954   8.617   0.751   0.930
16238WAT      O48955   0.680   9.042   7.308
16238WAT     H148956   0.590   9.065   7.346
16238WAT     H248957   0.686   8.943   7.293
16239WAT      O48958   2.322   6.501   7.691
16239WAT     H148959   2.375   6.578   7.726
16239WAT     H248960   2.380   6.445   7.632
16240WAT      O48961   3.994   5.529   9.526
16240WAT     H148962   3.924   5.567   9.466
16240WAT     H248963   4.046   5.459   9.477
16241WAT      O48964   1.649   4.728   6.302
16241WAT     H148965   1.710   4.807   6.314
16241WAT     H248966   1.691   4.663   6.239
16242WAT      O48967   7.161   5.868   0.493
16242WAT     H148968   7.094   5.916   0.437
16242WAT     H248969   7.251   5.872   0.449
16243WAT      O48970   9.817   7.408   2.020
16243WAT     H148971   9.810   7.356   2.105
16243WAT     H248972   9.752   7.485   2.023
16244WAT      O48973   3.985   3.198   4.178
16244WAT     H148974   4.044   3.133   4.130
16244WAT     H248975   4.037   3.244   4.250
16245WAT      O48976   4.201   3.008   9.868
16245WAT     H148977   4.184   3.055   9.954
16245WAT     H248978   4.133   2.936   9.855
16246WAT      O48979   2.864   0.210   4.091
16246WAT     H148980   2.822   0.240   4.005
16246WAT     H248981   2.961   0.193   4.076
16247WAT      O48982   6.472   6.065   9.499
16247WAT     H148983   6.540   6.133   9.527
16247WAT     H248984   6.512   5.974   9.501
16248WAT      O48985   4.112   2.283   4.057
16248WAT     H148986   4.108   2.365   4.000
16248WAT     H248987   4.192   2.229   4.032
16249WAT      O48988   6.690   8.712   4.308
16249WAT     H148989   6.776   8.757   4.282
16249WAT     H248990   6.693   8.616   4.278
16250WAT      O48991   2.420   3.793   7.180
16250WAT     H148992   2.360   3.715   7.167
16250WAT     H248993   2.461   3.790   7.271
16251WAT      O48994   9.000   6.974   6.860
16251WAT     H148995   9.013   7.027   6.776
16251WAT     H248996   9.087   6.931   6.886
16252WAT      O48997   0.647   2.685   6.266
16252WAT     H148998   0.680   2.592   6.252
16252WAT     H248999   0.557   2.695   6.224
16253WAT      O49000   6.038   5.547   5.339
16253WAT     H149001   6.129   5.579   5.314
16253WAT     H249002   6.005   5.484   5.269
16254WAT      O49003   3.722   4.919   6.084
16254WAT     H149004   3.815   4.948   6.062
16254WAT     H249005   3.723   4.823   6.113
16255WAT      O49006   9.142   2.524   1.279
16255WAT     H149007   9.170   2.608   1.326
16255WAT     H249008   9.133   2.542   1.181
16256WAT      O49009   4.890   2.003   4.679
16256WAT     H149010   4.912   1.905   4.677
16256WAT     H249011   4.969   2.056   4.649
16257WAT      O49012   2.639   4.050   6.117
16257WAT     H149013   2.728   4.068   6.157
16257WAT     H249014   2.589   4.135   6.105
16258WAT      O49015   9.761   2.628   9.181
16258WAT     H149016   9.803   2.592   9.097
16258WAT     H249017   9.775   2.563   9.256
16259WAT      O49018   5.126   7.445   4.177
16259WAT     H149019   5.127   7.361   4.231
16259WAT     H249020   5.162   7.427   4.086
16260WAT      O49021   3.626   3.763   9.277
16260WAT     H149022   3.528   3.761   9.294
16260WAT     H249023   3.668   3.838   9.328
16261WAT      O49024   1.585   0.064   1.317
16261WAT     H149025   1.535   0.018   1.390
16261WAT     H249026   1.666   0.011   1.293
16262WAT      O49027   6.735   8.223   4.963
16262WAT     H149028   6.817   8.266   5.002
16262WAT     H249029   6.742   8.221   4.864
16263WAT      O49030   0.248   5.836   1.035
16263WAT     H149031   0.238   5.831   1.135
16263WAT     H249032   0.159   5.819   0.992
16264WAT      O49033   9.375   7.180   5.959
16264WAT     H149034   9.397   7.275   5.982
16264WAT     H249035   9.459   7.129   5.946
16265WAT      O49036   3.188   0.426   3.785
16265WAT     H149037   3.152   0.335   3.761
16265WAT     H249038   3.118   0.495   3.765
16266WAT      O49039   1.197   1.614   1.582
16266WAT     H149040   1.270   1.648   1.642
16266WAT     H249041   1.178   1.681   1.511
16267WAT      O49042   1.151   1.102   7.421
16267WAT     H149043   1.228   1.066   7.474
16267WAT     H249044   1.094   1.026   7.390
16268WAT      O49045   6.765   3.312   6.883
16268WAT     H149046   6.723   3.231   6.843
16268WAT     H249047   6.827   3.354   6.817
16269WAT      O49048   7.955   5.558   0.334
16269WAT     H149049   7.984   5.548   0.429
16269WAT     H249050   7.903   5.477   0.306
16270WAT      O49051   1.446   3.651   2.699
16270WAT     H149052   1.402   3.655   2.609
16270WAT     H249053   1.499   3.734   2.714
16271WAT      O49054   3.837   2.140   0.181
16271WAT     H149055   3.752   2.117   0.229
16271WAT     H249056   3.816   2.198   0.102
16272WAT      O49057   7.568   5.882   1.211
16272WAT     H149058   7.488   5.897   1.154
16272WAT     H249059   7.544   5.897   1.307
16273WAT      O49060   2.768   8.136   6.635
16273WAT     H149061   2.826   8.057   6.614
16273WAT     H249062   2.686   8.133   6.579
16274WAT      O49063   7.637   8.186   2.189
16274WAT     H149064   7.636   8.199   2.288
16274WAT     H249065   7.721   8.225   2.151
16275WAT      O49066   2.087   7.736   2.586
16275WAT     H149067   2.065   7.668   2.516
16275WAT     H249068   2.002   7.781   2.617
16276WAT      O49069   2.891   2.429   0.232
16276WAT     H149070   2.829   2.427   0.154
16276WAT     H249071   2.886   2.341   0.280
16277WAT      O49072   2.803   6.928   2.926
16277WAT     H149073   2.720   6.925   2.870
16277WAT     H249074   2.847   6.838   2.925
16278WAT      O49075   3.392   1.194   8.410
16278WAT     H149076   3.405   1.132   8.487
16278WAT     H249077   3.382   1.288   8.444
16279WAT      O49078   6.591   0.902   0.037
16279WAT     H149079   6.594   0.805   0.015
16279WAT     H249080   6.683   0.940   0.033
16280WAT      O49081   8.548   6.560   8.787
16280WAT     H149082   8.459   6.564   8.741
16280WAT     H249083   8.618   6.599   8.728
16281WAT      O49084   0.191   5.772   6.330
16281WAT     H149085   0.117   5.734   6.385
16281WAT     H249086   0.278   5.763   6.379
16282WAT      O49087   7.014   3.409   1.174
16282WAT     H149088   7.026   3.429   1.077
16282WAT     H249089   7.037   3.490   1.228
16283WAT      O49090   0.702   0.356   0.237
16283WAT     H149091   0.782   0.415   0.249
16283WAT     H249092   0.726   0.279   0.179
16284WAT      O49093   0.255   8.727   3.008
16284WAT     H149094   0.248   8.817   2.966
16284WAT     H249095   0.338   8.723   3.064
16285WAT      O49096   1.715   9.578   0.390
16285WAT     H149097   1.699   9.673   0.416
16285WAT     H249098   1.766   9.532   0.463
16286WAT      O49099   7.545   3.266   1.094
16286WAT     H149100   7.555   3.258   1.193
16286WAT     H249101   7.466   3.212   1.064
16287WAT      O49102   9.714   4.007   5.366
16287WAT     H149103   9.693   4.000   5.268
16287WAT     H249104   9.804   4.048   5.378
16288WAT      O49105   5.816   3.383   2.940
16288WAT     H149106   5.726   3.409   2.906
16288WAT     H249107   5.849   3.453   3.004
16289WAT      O49108   4.222   4.688   4.954
16289WAT     H149109   4.270   4.730   4.877
16289WAT     H249110   4.287   4.672   5.029
16290WAT      O49111   9.106   6.736   2.348
16290WAT     H149112   9.172   6.803   2.316
16290WAT     H249113   9.045   6.779   2.415
16291WAT      O49114   9.525   9.176   8.743
16291WAT     H149115   9.504   9.271   8.767
16291WAT     H249116   9.585   9.137   8.813
16292WAT      O49117   1.225   8.152   1.252
16292WAT     H149118   1.229   8.099   1.167
16292WAT     H249119   1.263   8.243   1.236
16293WAT      O49120   1.440   2.330   5.617
16293WAT     H149121   1.488   2.258   5.567
16293WAT     H249122   1.425   2.409   5.557
16294WAT      O49123   6.806   8.421   5.372
16294WAT     H149124   6.824   8.345   5.310
16294WAT     H249125   6.761   8.387   5.455
16295WAT      O49126   8.327   3.591   1.938
16295WAT     H149127   8.274   3.663   1.891
16295WAT     H249128   8.401   3.560   1.879
16296WAT      O49129   6.869   8.937   2.745
16296WAT     H149130   6.903   9.030   2.761
16296WAT     H249131   6.812   8.908   2.823
16297WAT      O49132   9.226   9.312   5.421
16297WAT     H149133   9.144   9.255   5.424
16297WAT     H249134   9.248   9.334   5.326
16298WAT      O49135   1.689   8.904   9.349
16298WAT     H149136   1.620   8.896   9.421
16298WAT     H249137   1.778   8.880   9.386
16299WAT      O49138   3.246   6.128   3.454
16299WAT     H149139   3.275   6.070   3.378
16299WAT     H249140   3.246   6.074   3.539
16300WAT      O49141   7.732   4.604   1.721
16300WAT     H149142   7.662   4.573   1.785
16300WAT     H249143   7.742   4.703   1.727
16301WAT      O49144   9.795   0.924   9.209
16301WAT     H149145   9.888   0.922   9.174
16301WAT     H249146   9.735   0.870   9.149
16302WAT      O49147   7.649   8.332   7.676
16302WAT     H149148   7.556   8.327   7.714
16302WAT     H249149   7.645   8.327   7.576
16303WAT      O49150   9.100   9.572   2.696
16303WAT     H149151   9.008   9.607   2.713
16303WAT     H249152   9.162   9.649   2.680
16304WAT      O49153   9.581   1.032   8.363
16304WAT     H149154   9.571   1.048   8.462
16304WAT     H249155   9.665   1.075   8.331
16305WAT      O49156   7.298   7.408   6.044
16305WAT     H149157   7.391   7.370   6.038
16305WAT     H249158   7.233   7.341   6.008
16306WAT      O49159   3.205   4.983   2.226
16306WAT     H149160   3.164   5.037   2.153
16306WAT     H249161   3.296   5.018   2.246
16307WAT      O49162   4.964   0.206   9.219
16307WAT     H149163   5.039   0.144   9.196
16307WAT     H249164   4.994   0.272   9.288
16308WAT      O49165   6.356   2.960   7.769
16308WAT     H149166   6.388   2.983   7.676
16308WAT     H249167   6.420   2.896   7.811
16309WAT      O49168   9.280   9.477   9.450
16309WAT     H149169   9.379   9.489   9.447
16309WAT     H249170   9.251   9.469   9.546
16310WAT      O49171   1.241   0.792   3.154
16310WAT     H149172   1.246   0.816   3.252
16310WAT     H249173   1.300   0.713   3.137
16311WAT      O49174   7.749   0.464   4.020
16311WAT     H149175   7.750   0.561   4.043
16311WAT     H249176   7.813   0.447   3.945
16312WAT      O49177   6.414   1.459   0.517
16312WAT     H149178   6.438   1.399   0.441
16312WAT     H249179   6.433   1.414   0.604
16313WAT      O49180   4.841   5.910   7.770
16313WAT     H149181   4.784   5.866   7.840
16313WAT     H249182   4.930   5.933   7.809
16314WAT      O49183   6.638   2.146   1.745
16314WAT     H149184   6.660   2.050   1.731
16314WAT     H249185   6.663   2.199   1.663
16315WAT      O49186   0.751   8.542   2.012
16315WAT     H149187   0.668   8.578   2.054
16315WAT     H249188   0.831   8.583   2.055
16316WAT      O49189   0.571   8.366   9.017
16316WAT     H149190   0.631   8.439   8.983
16316WAT     H249191   0.614   8.277   9.003
16317WAT      O49192   2.254   1.739   5.771
16317WAT     H149193   2.270   1.779   5.861
16317WAT     H249194   2.306   1.791   5.702
16318WAT      O49195   3.083   3.755   5.474
16318WAT     H149196   3.132   3.841   5.467
16318WAT     H249197   2.997   3.761   5.423
16319WAT      O49198   6.438   5.534   2.809
16319WAT     H149199   6.369   5.536   2.881
16319WAT     H249200   6.416   5.603   2.740
16320WAT      O49201   6.730   0.556   4.284
16320WAT     H149202   6.659   0.538   4.352
16320WAT     H249203   6.735   0.480   4.219
16321WAT      O49204   7.932   5.349   7.347
16321WAT     H149205   7.894   5.290   7.418
16321WAT     H249206   8.016   5.308   7.312
16322WAT      O49207   2.543   8.123   6.099
16322WAT     H149208   2.460   8.161   6.057
16322WAT     H249209   2.519   8.042   6.152
16323WAT      O49210   9.342   5.611   0.389
16323WAT     H149211   9.329   5.604   0.488
16323WAT     H249212   9.253   5.619   0.345
16324WAT      O49213   1.786   2.672   8.027
16324WAT     H149214   1.710   2.662   7.962
16324WAT     H249215   1.749   2.684   8.119
16325WAT      O49216   0.263   2.609   6.266
16325WAT     H149217   0.328   2.578   6.336
16325WAT     H249218   0.209   2.531   6.234
16326WAT      O49219   5.029   2.204   2.520
16326WAT     H149220   4.994   2.274   2.457
16326WAT     H249221   5.093   2.145   2.471
16327WAT      O49222   2.491   2.479   6.005
16327WAT     H149223   2.446   2.435   5.927
16327WAT     H249224   2.590   2.465   5.999
16328WAT      O49225   1.419   0.480   3.952
16328WAT     H149226   1.423   0.422   3.871
16328WAT     H249227   1.373   0.430   4.026
16329WAT      O49228   8.971   4.572   1.720
16329WAT     H149229   9.040   4.643   1.734
16329WAT     H249230   8.924   4.553   1.806
16330WAT      O49231   3.008   5.426   4.509
16330WAT     H149232   3.026   5.524   4.501
16330WAT     H249233   3.076   5.384   4.569
16331WAT      O49234   9.444   7.783   2.353
16331WAT     H149235   9.440   7.754   2.449
16331WAT     H249236   9.520   7.737   2.307
16332WAT      O49237   1.092   7.485   0.101
16332WAT     H149238   1.189   7.506   0.090
16332WAT     H249239   1.067   7.408   0.043
16333WAT      O49240   1.274   8.192   7.337
16333WAT     H149241   1.358   8.144   7.311
16333WAT     H249242   1.202   8.173   7.270
16334WAT      O49243   4.105   8.769   0.397
16334WAT     H149244   4.056   8.693   0.356
16334WAT     H249245   4.179   8.734   0.454
16335WAT      O49246   1.626   6.187   8.421
16335WAT     H149247   1.725   6.195   8.410
16335WAT     H249248   1.584   6.277   8.413
16336WAT      O49249   4.435   3.331   7.642
16336WAT     H149250   4.379   3.389   7.701
16336WAT     H249251   4.467   3.385   7.564
16337WAT      O49252   1.897   3.538   4.238
16337WAT     H149253   1.888   3.637   4.230
16337WAT     H249254   1.837   3.494   4.170
16338WAT      O49255   9.339   9.714   4.437
16338WAT     H149256   9.255   9.695   4.387
16338WAT     H249257   9.352   9.813   4.445
16339WAT      O49258   9.792   0.464   6.755
16339WAT     H149259   9.762   0.546   6.707
16339WAT     H249260   9.868   0.422   6.706
16340WAT      O49261   3.114   8.021   9.873
16340WAT     H149262   3.070   8.008   9.785
16340WAT     H249263   3.213   8.009   9.862
16341WAT      O49264   7.838   0.472   0.465
16341WAT     H149265   7.818   0.376   0.447
16341WAT     H249266   7.762   0.513   0.516
16342WAT      O49267   3.639   9.423   9.768
16342WAT     H149268   3.726   9.472   9.773
16342WAT     H249269   3.637   9.352   9.839
16343WAT      O49270   7.059   4.543   6.239
16343WAT     H149271   7.142   4.489   6.256
16343WAT     H249272   6.989   4.518   6.306
16344WAT      O49273   3.376   1.002   5.242
16344WAT     H149274   3.370   0.991   5.342
16344WAT     H249275   3.381   1.099   5.220
16345WAT      O49276   1.978   4.290   3.443
16345WAT     H149277   2.051   4.270   3.378
16345WAT     H249278   1.942   4.204   3.480
16346WAT      O49279   7.171   7.003   5.236
16346WAT     H149280   7.106   6.950   5.182
16346WAT     H249281   7.262   6.964   5.228
16347WAT      O49282   8.157   3.128   9.845
16347WAT     H149283   8.063   3.102   9.868
16347WAT     H249284   8.210   3.046   9.826
16348WAT      O49285   0.541   2.989   5.267
16348WAT     H149286   0.506   3.034   5.185
16348WAT     H249287   0.571   2.896   5.244
16349WAT      O49288   9.360   1.908   9.787
16349WAT     H149289   9.294   1.847   9.742
16349WAT     H249290   9.387   1.980   9.723
16350WAT      O49291   5.787   1.004   2.392
16350WAT     H149292   5.834   0.927   2.434
16350WAT     H249293   5.759   0.979   2.299
16351WAT      O49294   2.276   6.905   9.015
16351WAT     H149295   2.290   6.827   9.075
16351WAT     H249296   2.179   6.912   8.992
16352WAT      O49297   2.308   9.482   1.294
16352WAT     H149298   2.267   9.556   1.349
16352WAT     H249299   2.401   9.508   1.267
16353WAT      O49300   0.264   3.760   3.799
16353WAT     H149301   0.243   3.800   3.888
16353WAT     H249302   0.186   3.706   3.768
16354WAT      O49303   6.673   3.403   5.640
16354WAT     H149304   6.704   3.368   5.729
16354WAT     H249305   6.610   3.479   5.655
16355WAT      O49306   1.055   8.834   5.063
16355WAT     H149307   1.121   8.871   5.129
16355WAT     H249308   0.980   8.789   5.112
16356WAT      O49309   3.441   9.509   3.235
16356WAT     H149310   3.399   9.595   3.206
16356WAT     H249311   3.411   9.436   3.173
16357WAT      O49312   5.020   2.174   9.203
16357WAT     H149313   4.975   2.239   9.265
16357WAT     H249314   5.109   2.211   9.176
16358WAT      O49315   8.640   8.043   6.570
16358WAT     H149316   8.695   7.960   6.569
16358WAT     H249317   8.586   8.050   6.486
16359WAT      O49318   4.611   9.203   1.911
16359WAT     H149319   4.710   9.198   1.899
16359WAT     H249320   4.574   9.278   1.856
16360WAT      O49321   0.402   5.546   4.057
16360WAT     H149322   0.310   5.540   4.019
16360WAT     H249323   0.423   5.641   4.078
16361WAT      O49324   2.508   3.108   6.673
16361WAT     H149325   2.494   3.072   6.765
16361WAT     H249326   2.457   3.052   6.608
16362WAT      O49327   5.541   7.860   0.037
16362WAT     H149328   5.548   7.762   0.055
16362WAT     H249329   5.533   7.909   0.124
16363WAT      O49330   1.892   6.363   8.694
16363WAT     H149331   1.800   6.400   8.703
16363WAT     H249332   1.904   6.323   8.603
16364WAT      O49333   9.389   1.224   6.066
16364WAT     H149334   9.390   1.248   6.164
16364WAT     H249335   9.397   1.125   6.056
16365WAT      O49336   0.831   9.437   5.864
16365WAT     H149337   0.732   9.447   5.865
16365WAT     H249338   0.856   9.354   5.914
16366WAT      O49339   3.210   4.999   6.748
16366WAT     H149340   3.127   5.008   6.694
16366WAT     H249341   3.186   4.982   6.844
16367WAT      O49342   7.302   2.193   3.925
16367WAT     H149343   7.298   2.240   3.836
16367WAT     H249344   7.388   2.142   3.932
16368WAT      O49345   2.150   1.317   1.549
16368WAT     H149346   2.234   1.372   1.546
16368WAT     H249347   2.110   1.312   1.458
16369WAT      O49348   6.576   4.499   2.306
16369WAT     H149349   6.643   4.572   2.323
16369WAT     H249350   6.533   4.512   2.217
16370WAT      O49351   7.007   6.432   2.472
16370WAT     H149352   6.978   6.473   2.386
16370WAT     H249353   6.931   6.433   2.537
16371WAT      O49354   4.980   8.555   3.251
16371WAT     H149355   4.938   8.585   3.337
16371WAT     H249356   5.079   8.565   3.257
16372WAT      O49357   6.464   2.375   4.848
16372WAT     H149358   6.556   2.375   4.811
16372WAT     H249359   6.466   2.343   4.943
16373WAT      O49360   6.903   7.854   1.931
16373WAT     H149361   6.988   7.801   1.927
16373WAT     H249362   6.825   7.791   1.920
16374WAT      O49363   7.199   5.796   9.664
16374WAT     H149364   7.191   5.797   9.763
16374WAT     H249365   7.223   5.704   9.633
16375WAT      O49366   0.428   3.116   4.284
16375WAT     H149367   0.450   3.019   4.301
16375WAT     H249368   0.483   3.173   4.344
16376WAT      O49369   8.566   5.603   4.171
16376WAT     H149370   8.565   5.703   4.172
16376WAT     H249371   8.520   5.570   4.089
16377WAT      O49372   2.774   7.012   1.665
16377WAT     H149373   2.730   6.929   1.631
16377WAT     H249374   2.710   7.089   1.659
16378WAT      O49375   0.659   0.007   0.373
16378WAT     H149376   0.706   0.095   0.362
16378WAT     H249377   0.568   0.012   0.332
16379WAT      O49378   0.300   7.941   5.127
16379WAT     H149379   0.400   7.939   5.128
16379WAT     H249380   0.268   8.023   5.080
16380WAT      O49381   5.901   2.088   9.377
16380WAT     H149382   5.936   2.039   9.457
16380WAT     H249383   5.977   2.108   9.315
16381WAT      O49384   4.261   4.217   3.522
16381WAT     H149385   4.221   4.309   3.524
16381WAT     H249386   4.352   4.222   3.481
16382WAT      O49387   1.573   0.511   9.536
16382WAT     H149388   1.606   0.529   9.444
16382WAT     H249389   1.478   0.542   9.545
16383WAT      O49390   7.664   2.814   5.876
16383WAT     H149391   7.762   2.793   5.878
16383WAT     H249392   7.624   2.774   5.794
16384WAT      O49393   4.894   1.514   0.215
16384WAT     H149394   4.815   1.453   0.211
16384WAT     H249395   4.893   1.563   0.303
16385WAT      O49396   0.525   5.759   2.653
16385WAT     H149397   0.596   5.828   2.671
16385WAT     H249398   0.471   5.787   2.573
16386WAT      O49399   6.931   1.766   8.210
16386WAT     H149400   6.962   1.822   8.134
16386WAT     H249401   6.832   1.777   8.222
16387WAT      O49402   6.272   6.837   8.775
16387WAT     H149403   6.245   6.886   8.692
16387WAT     H249404   6.191   6.820   8.832
16388WAT      O49405   4.545   5.142   1.495
16388WAT     H149406   4.559   5.129   1.593
16388WAT     H249407   4.610   5.086   1.444
16389WAT      O49408   3.147   8.006   7.961
16389WAT     H149409   3.156   7.928   7.899
16389WAT     H249410   3.050   8.027   7.975
16390WAT      O49411   4.174   5.743   7.939
16390WAT     H149412   4.201   5.793   7.857
16390WAT     H249413   4.231   5.662   7.950
16391WAT      O49414   5.560   4.559   8.344
16391WAT     H149415   5.616   4.476   8.344
16391WAT     H249416   5.469   4.538   8.378
16392WAT      O49417   5.590   5.393   1.501
16392WAT     H149418   5.571   5.454   1.425
16392WAT     H249419   5.552   5.302   1.481
16393WAT      O49420   6.781   6.418   2.614
16393WAT     H149421   6.709   6.487   2.621
16393WAT     H249422   6.816   6.396   2.705
16394WAT      O49423   9.593   1.178   7.592
16394WAT     H149424   9.515   1.179   7.654
16394WAT     H249425   9.566   1.140   7.504
16395WAT      O49426   7.283   4.543   7.635
16395WAT     H149427   7.290   4.614   7.565
16395WAT     H249428   7.371   4.534   7.682
16396WAT      O49429   6.066   0.072   3.765
16396WAT     H149430   5.970   0.043   3.766
16396WAT     H249431   6.074   0.160   3.810
16397WAT      O49432   3.654   4.871   5.736
16397WAT     H149433   3.656   4.958   5.786
16397WAT     H249434   3.627   4.798   5.798
16398WAT      O49435   6.066   7.020   3.710
16398WAT     H149436   5.987   7.038   3.652
16398WAT     H249437   6.069   7.087   3.784
16399WAT      O49438   9.537   1.248   2.214
16399WAT     H149439   9.455   1.193   2.226
16399WAT     H249440   9.614   1.204   2.261
16400WAT      O49441   4.768   1.971   0.470
16400WAT     H149442   4.709   2.031   0.525
16400WAT     H249443   4.839   2.025   0.426
16401WAT      O49444   4.575   7.320   4.415
16401WAT     H149445   4.578   7.413   4.450
16401WAT     H249446   4.664   7.295   4.378
16402WAT      O49447   7.586   4.837   8.268
16402WAT     H149448   7.505   4.876   8.225
16402WAT     H249449   7.586   4.859   8.365
16403WAT      O49450   4.128   4.508   7.868
16403WAT     H149451   4.151   4.412   7.883
16403WAT     H249452   4.211   4.560   7.844
16404WAT      O49453   4.040   8.541   0.220
16404WAT     H149454   4.073   8.509   0.131
16404WAT     H249455   3.943   8.566   0.212
16405WAT      O49456   8.555   9.782   8.904
16405WAT     H149457   8.519   9.795   8.996
16405WAT     H249458   8.654   9.800   8.904
16406WAT      O49459   4.043   3.725   9.050
16406WAT     H149460   4.061   3.730   9.148
16406WAT     H249461   3.945   3.736   9.034
16407WAT      O49462   6.280   8.855   3.155
16407WAT     H149463   6.253   8.951   3.161
16407WAT     H249464   6.342   8.843   3.078
16408WAT      O49465   0.514   1.212   2.625
16408WAT     H149466   0.604   1.234   2.590
16408WAT     H249467   0.513   1.224   2.725
16409WAT      O49468   7.753   4.834   2.497
16409WAT     H149469   7.832   4.890   2.471
16409WAT     H249470   7.671   4.869   2.451
16410WAT      O49471   2.029   5.279   6.894
16410WAT     H149472   2.071   5.346   6.832
16410WAT     H249473   2.098   5.245   6.957
16411WAT      O49474   5.145   0.754   5.891
16411WAT     H149475   5.240   0.782   5.902
16411WAT     H249476   5.094   0.826   5.844
16412WAT      O49477   1.580   2.475   4.950
16412WAT     H149478   1.558   2.568   4.981
16412WAT     H249479   1.615   2.479   4.856
16413WAT      O49480   0.019   0.533   9.368
16413WAT     H149481  -0.077   0.560   9.377
16413WAT     H249482   0.043   0.528   9.272
16414WAT      O49483   3.185   2.726   2.532
16414WAT     H149484   3.223   2.658   2.595
16414WAT     H249485   3.141   2.799   2.584
16415WAT      O49486   6.728   7.101   1.178
16415WAT     H149487   6.825   7.099   1.154
16415WAT     H249488   6.709   7.183   1.233
16416WAT      O49489   4.771   6.616   5.582
16416WAT     H149490   4.732   6.524   5.590
16416WAT     H249491   4.735   6.674   5.655
16417WAT      O49492   4.265   7.046   6.432
16417WAT     H149493   4.168   7.020   6.435
16417WAT     H249494   4.301   7.031   6.340
16418WAT      O49495   3.086   7.102   2.401
16418WAT     H149496   3.004   7.146   2.364
16418WAT     H249497   3.059   7.035   2.470
16419WAT      O49498   7.902   7.430   0.949
16419WAT     H149499   7.889   7.518   0.995
16419WAT     H249500   7.851   7.429   0.863
16420WAT      O49501   8.963   7.631   5.463
16420WAT     H149502   8.966   7.730   5.481
16420WAT     H249503   9.047   7.589   5.498
16421WAT      O49504   8.372   7.361   9.649
16421WAT     H149505   8.305   7.339   9.719
16421WAT     H249506   8.357   7.304   9.568
16422WAT      O49507   7.444   1.692   1.181
16422WAT     H149508   7.378   1.764   1.163
16422WAT     H249509   7.534   1.719   1.145
16423WAT      O49510   1.272   8.076   0.563
16423WAT     H149511   1.177   8.100   0.585
16423WAT     H249512   1.286   7.978   0.573
16424WAT      O49513   4.036   6.137   4.964
16424WAT     H149514   4.108   6.071   4.986
16424WAT     H249515   3.995   6.113   4.877
16425WAT      O49516   1.698   7.725   4.183
16425WAT     H149517   1.602   7.695   4.183
16425WAT     H249518   1.752   7.663   4.240
16426WAT      O49519   4.109   9.789   1.427
16426WAT     H149520   4.089   9.886   1.442
16426WAT     H249521   4.200   9.768   1.462
16427WAT      O49522   5.633   4.338   0.707
16427WAT     H149523   5.704   4.381   0.651
16427WAT     H249524   5.577   4.278   0.649
16428WAT      O49525   8.437   3.460   0.415
16428WAT     H149526   8.469   3.547   0.377
16428WAT     H249527   8.436   3.391   0.343
16429WAT      O49528   5.376   7.931   2.960
16429WAT     H149529   5.463   7.890   2.986
16429WAT     H249530   5.392   8.023   2.924
16430WAT      O49531   4.655   8.748   2.842
16430WAT     H149532   4.595   8.812   2.795
16430WAT     H249533   4.707   8.797   2.913
16431WAT      O49534   1.372   0.891   7.856
16431WAT     H149535   1.408   0.982   7.832
16431WAT     H249536   1.315   0.857   7.781
16432WAT      O49537   3.113   6.238   8.626
16432WAT     H149538   3.135   6.324   8.671
16432WAT     H249539   3.196   6.197   8.589
16433WAT      O49540   0.220   6.728   7.674
16433WAT     H149541   0.259   6.720   7.766
16433WAT     H249542   0.125   6.758   7.680
16434WAT      O49543   9.229   1.533   6.172
16434WAT     H149544   9.141   1.503   6.135
16434WAT     H249545   9.220   1.626   6.208
16435WAT      O49546   8.686   0.544   6.317
16435WAT     H149547   8.707   0.540   6.414
16435WAT     H249548   8.767   0.519   6.264
16436WAT      O49549   4.192   9.075   6.077
16436WAT     H149550   4.215   9.013   6.003
16436WAT     H249551   4.209   9.170   6.049
16437WAT      O49552   2.443   9.420   6.028
16437WAT     H149553   2.374   9.472   5.978
16437WAT     H249554   2.456   9.461   6.118
16438WAT      O49555   3.528   3.762   3.760
16438WAT     H149556   3.440   3.808   3.764
16438WAT     H249557   3.551   3.742   3.665
16439WAT      O49558   7.973   9.003   0.693
16439WAT     H149559   7.971   9.079   0.628
16439WAT     H249560   7.907   8.933   0.664
16440WAT      O49561   6.834   5.165   7.894
16440WAT     H149562   6.797   5.170   7.801
16440WAT     H249563   6.805   5.245   7.946
16441WAT      O49564   0.733   1.040   1.311
16441WAT     H149565   0.749   0.960   1.253
16441WAT     H249566   0.689   1.010   1.396
16442WAT      O49567   7.035   3.009   3.123
16442WAT     H149568   7.060   3.105   3.117
16442WAT     H249569   7.031   2.970   3.031
16443WAT      O49570   0.657   7.185   4.534
16443WAT     H149571   0.650   7.272   4.582
16443WAT     H249572   0.649   7.200   4.435
16444WAT      O49573   5.224   8.401   0.270
16444WAT     H149574   5.226   8.371   0.366
16444WAT     H249575   5.276   8.336   0.214
16445WAT      O49576   4.814   2.021   3.457
16445WAT     H149577   4.872   1.940   3.463
16445WAT     H249578   4.850   2.093   3.516
16446WAT      O49579   2.645   3.565   9.826
16446WAT     H149580   2.667   3.602   9.736
16446WAT     H249581   2.551   3.531   9.827
16447WAT      O49582   8.567   2.003   8.136
16447WAT     H149583   8.628   1.944   8.083
16447WAT     H249584   8.603   2.014   8.228
16448WAT      O49585   1.495   9.291   0.258
16448WAT     H149586   1.595   9.282   0.259
16448WAT     H249587   1.454   9.206   0.292
16449WAT      O49588   2.768   1.660   4.271
16449WAT     H149589   2.732   1.752   4.287
16449WAT     H249590   2.721   1.595   4.331
16450WAT      O49591   5.273   2.983   3.951
16450WAT     H149592   5.350   3.018   4.004
16450WAT     H249593   5.212   3.059   3.927
16451WAT      O49594   5.035   0.977   5.767
16451WAT     H149595   5.042   0.937   5.675
16451WAT     H249596   4.983   1.063   5.762
16452WAT      O49597   4.732   2.120   9.202
16452WAT     H149598   4.712   2.118   9.300
16452WAT     H249599   4.719   2.213   9.167
16453WAT      O49600   9.307   4.722   2.107
16453WAT     H149601   9.343   4.632   2.082
16453WAT     H249602   9.333   4.789   2.037
16454WAT      O49603   0.369   9.721   5.906
16454WAT     H149604   0.332   9.787   5.970
16454WAT     H249605   0.328   9.631   5.924
16455WAT      O49606   8.114   2.661   9.632
16455WAT     H149607   8.112   2.587   9.699
16455WAT     H249608   8.137   2.625   9.542
16456WAT      O49609   9.238   2.218   4.332
16456WAT     H149610   9.262   2.287   4.264
16456WAT     H249611   9.263   2.251   4.423
16457WAT      O49612   8.799   4.212   2.362
16457WAT     H149613   8.765   4.302   2.390
16457WAT     H249614   8.738   4.174   2.292
16458WAT      O49615   5.555   1.928   3.112
16458WAT     H149616   5.635   1.875   3.143
16458WAT     H249617   5.581   2.024   3.101
16459WAT      O49618   2.672   3.784   6.488
16459WAT     H149619   2.684   3.806   6.585
16459WAT     H249620   2.619   3.699   6.480
16460WAT      O49621   1.895   7.032   8.349
16460WAT     H149622   1.882   6.962   8.419
16460WAT     H249623   1.953   7.105   8.385
16461WAT      O49624   9.650   8.898   9.270
16461WAT     H149625   9.610   8.888   9.179
16461WAT     H249626   9.714   8.975   9.270
16462WAT      O49627   5.567   8.291   2.632
16462WAT     H149628   5.470   8.296   2.608
16462WAT     H249629   5.616   8.366   2.588
16463WAT      O49630   0.744   6.518   6.698
16463WAT     H149631   0.645   6.531   6.689
16463WAT     H249632   0.792   6.594   6.654
16464WAT      O49633   1.422   4.156   7.130
16464WAT     H149634   1.355   4.102   7.181
16464WAT     H249635   1.506   4.164   7.184
16465WAT      O49636   5.780   5.546   9.384
16465WAT     H149637   5.809   5.622   9.325
16465WAT     H249638   5.750   5.582   9.472
16466WAT      O49639   5.828   5.265   2.975
16466WAT     H149640   5.838   5.292   2.879
16466WAT     H249641   5.882   5.182   2.992
16467WAT      O49642   8.175   3.288   3.519
16467WAT     H149643   8.076   3.298   3.522
16467WAT     H249644   8.199   3.192   3.503
16468WAT      O49645   6.741   8.037   3.752
16468WAT     H149646   6.814   8.099   3.722
16468WAT     H249647   6.782   7.959   3.799
16469WAT      O49648   2.985   2.762   9.238
16469WAT     H149649   3.005   2.817   9.156
16469WAT     H249650   2.931   2.817   9.302
16470WAT      O49651   4.430   0.263   6.208
16470WAT     H149652   4.529   0.280   6.211
16470WAT     H249653   4.389   0.292   6.295
16471WAT      O49654   9.169   3.510   5.457
16471WAT     H149655   9.175   3.584   5.524
16471WAT     H249656   9.219   3.536   5.374
16472WAT      O49657   2.868   4.912   2.902
16472WAT     H149658   2.918   4.835   2.864
16472WAT     H249659   2.854   4.898   3.000
16473WAT      O49660   6.693   5.695   0.431
16473WAT     H149661   6.655   5.780   0.393
16473WAT     H249662   6.635   5.664   0.506
16474WAT      O49663   7.363   3.127   2.625
16474WAT     H149664   7.362   3.175   2.712
16474WAT     H249665   7.289   3.161   2.567
16475WAT      O49666   4.378   5.868   3.412
16475WAT     H149667   4.343   5.934   3.479
16475WAT     H249668   4.471   5.895   3.384
16476WAT      O49669   6.370   9.436   0.877
16476WAT     H149670   6.323   9.445   0.964
16476WAT     H249671   6.469   9.447   0.890
16477WAT      O49672   9.129   5.600   1.148
16477WAT     H149673   9.223   5.593   1.112
16477WAT     H249674   9.133   5.623   1.245
16478WAT      O49675   5.096   7.925   2.912
16478WAT     H149676   5.184   7.884   2.938
16478WAT     H249677   5.026   7.895   2.977
16479WAT      O49678   7.285   6.663   4.322
16479WAT     H149679   7.365   6.605   4.339
16479WAT     H249680   7.315   6.749   4.281
16480WAT      O49681   6.870   0.609   8.416
16480WAT     H149682   6.803   0.537   8.429
16480WAT     H249683   6.824   0.698   8.411
16481WAT      O49684   5.526   0.502   4.468
16481WAT     H149685   5.534   0.568   4.394
16481WAT     H249686   5.577   0.419   4.445
16482WAT      O49687   0.026   5.231   8.073
16482WAT     H149688   0.085   5.308   8.096
16482WAT     H249689  -0.054   5.263   8.022
16483WAT      O49690   8.934   3.389   0.861
16483WAT     H149691   8.851   3.349   0.823
16483WAT     H249692   8.938   3.371   0.959
16484WAT      O49693   4.688   9.084   7.915
16484WAT     H149694   4.691   9.148   7.838
16484WAT     H249695   4.693   8.990   7.882
16485WAT      O49696   0.533   1.289   0.934
16485WAT     H149697   0.464   1.265   0.866
16485WAT     H249698   0.624   1.280   0.894
16486WAT      O49699   4.211   6.310   5.631
16486WAT     H149700   4.145   6.371   5.675
16486WAT     H249701   4.162   6.243   5.575
16487WAT      O49702   8.973   9.525   5.595
16487WAT     H149703   8.904   9.458   5.623
16487WAT     H249704   9.047   9.526   5.662
16488WAT      O49705   5.114   8.505   2.795
16488WAT     H149706   5.046   8.450   2.746
16488WAT     H249707   5.166   8.446   2.857
16489WAT      O49708   7.241   2.248   7.162
16489WAT     H149709   7.341   2.247   7.159
16489WAT     H249710   7.205   2.260   7.069
16490WAT      O49711   2.196   8.753   0.264
16490WAT     H149712   2.129   8.728   0.335
16490WAT     H249713   2.199   8.853   0.256
16491WAT      O49714   1.940   3.823   1.525
16491WAT     H149715   1.911   3.734   1.560
16491WAT     H249716   1.986   3.874   1.597
16492WAT      O49717   9.760   5.830   1.151
16492WAT     H149718   9.856   5.847   1.177
16492WAT     H249719   9.700   5.879   1.214
16493WAT      O49720   1.002   3.799   4.684
16493WAT     H149721   1.089   3.781   4.731
16493WAT     H249722   0.926   3.781   4.746
16494WAT      O49723   0.225   1.132   6.200
16494WAT     H149724   0.194   1.139   6.295
16494WAT     H249725   0.206   1.217   6.152
16495WAT      O49726   6.389   4.969   0.010
16495WAT     H149727   6.465   4.962   0.075
16495WAT     H249728   6.393   5.057  -0.036
16496WAT      O49729   1.435   6.683   1.819
16496WAT     H149730   1.525   6.654   1.787
16496WAT     H249731   1.402   6.759   1.762
16497WAT      O49732   2.133   8.239   5.619
16497WAT     H149733   2.223   8.252   5.578
16497WAT     H249734   2.067   8.217   5.546
16498WAT      O49735   0.184   3.849   4.765
16498WAT     H149736   0.150   3.810   4.680
16498WAT     H249737   0.274   3.890   4.749
16499WAT      O49738   2.395   3.292   6.246
16499WAT     H149739   2.465   3.294   6.175
16499WAT     H249740   2.306   3.269   6.205
16500WAT      O49741   8.966   6.340   3.006
16500WAT     H149742   8.893   6.361   2.941
16500WAT     H249743   8.931   6.279   3.077
16501WAT      O49744   7.392   7.187   9.090
16501WAT     H149745   7.491   7.204   9.085
16501WAT     H249746   7.343   7.270   9.064
16502WAT      O49747   1.234   1.081   0.460
16502WAT     H149748   1.303   1.011   0.478
16502WAT     H249749   1.271   1.171   0.486
16503WAT      O49750   7.547   1.318   4.291
16503WAT     H149751   7.579   1.282   4.379
16503WAT     H249752   7.613   1.385   4.257
16504WAT      O49753   5.441   4.698   1.094
16504WAT     H149754   5.521   4.696   1.034
16504WAT     H249755   5.376   4.767   1.060
16505WAT      O49756   4.927   7.746   4.654
16505WAT     H149757   4.975   7.723   4.739
16505WAT     H249758   4.935   7.669   4.591
16506WAT      O49759   3.395   1.344   6.232
16506WAT     H149760   3.418   1.358   6.329
16506WAT     H249761   3.298   1.361   6.218
16507WAT      O49762   3.539   1.999   3.834
16507WAT     H149763   3.609   1.962   3.772
16507WAT     H249764   3.520   1.932   3.906
16508WAT      O49765   2.163   2.528   4.486
16508WAT     H149766   2.128   2.437   4.507
16508WAT     H249767   2.133   2.554   4.394
16509WAT      O49768   0.617   6.190   7.331
16509WAT     H149769   0.604   6.220   7.426
16509WAT     H249770   0.611   6.268   7.269
16510WAT      O49771   8.505   3.276   1.898
16510WAT     H149772   8.424   3.315   1.943
16510WAT     H249773   8.529   3.331   1.819
16511WAT      O49774   5.044   5.359   0.604
16511WAT     H149775   5.122   5.399   0.654
16511WAT     H249776   4.975   5.430   0.589
16512WAT      O49777   7.013   3.945   5.666
16512WAT     H149778   7.070   3.877   5.619
16512WAT     H249779   7.049   3.959   5.759
16513WAT      O49780   0.687   4.644   6.721
16513WAT     H149781   0.699   4.704   6.642
16513WAT     H249782   0.771   4.593   6.737
16514WAT      O49783   2.495   0.687   7.827
16514WAT     H149784   2.520   0.603   7.875
16514WAT     H249785   2.533   0.684   7.734
16515WAT      O49786   3.824   0.604   6.382
16515WAT     H149787   3.866   0.682   6.336
16515WAT     H249788   3.733   0.588   6.346
16516WAT      O49789   9.851   8.064   2.098
16516WAT     H149790   9.780   8.114   2.046
16516WAT     H249791   9.826   7.968   2.104
16517WAT      O49792   4.195   2.797   8.182
16517WAT     H149793   4.214   2.728   8.112
16517WAT     H249794   4.225   2.886   8.150
16518WAT      O49795   1.685   1.078   7.214
16518WAT     H149796   1.730   1.108   7.129
16518WAT     H249797   1.595   1.040   7.193
16519WAT      O49798   6.121   4.173   4.147
16519WAT     H149799   6.098   4.077   4.130
16519WAT     H249800   6.113   4.192   4.245
16520WAT      O49801   5.404   8.838   3.406
16520WAT     H149802   5.427   8.933   3.386
16520WAT     H249803   5.465   8.777   3.355
16521WAT      O49804   0.645   6.766   5.414
16521WAT     H149805   0.613   6.695   5.477
16521WAT     H249806   0.704   6.725   5.345
16522WAT      O49807   1.906   0.581   2.231
16522WAT     H149808   1.956   0.525   2.165
16522WAT     H249809   1.884   0.526   2.311
16523WAT      O49810   1.952   4.642   1.367
16523WAT     H149811   2.004   4.621   1.450
16523WAT     H249812   2.009   4.697   1.306
16524WAT      O49813   9.033   0.955   9.663
16524WAT     H149814   9.007   0.863   9.691
16524WAT     H249815   9.049   0.958   9.564
16525WAT      O49816   5.456   0.813   8.174
16525WAT     H149817   5.542   0.864   8.177
16525WAT     H249818   5.379   0.878   8.177
16526WAT      O49819   4.813   1.893   7.051
16526WAT     H149820   4.847   1.903   7.144
16526WAT     H249821   4.738   1.958   7.036
16527WAT      O49822   5.329   1.118   9.768
16527WAT     H149823   5.312   1.189   9.699
16527WAT     H249824   5.329   1.028   9.724
16528WAT      O49825   0.510   1.352   4.406
16528WAT     H149826   0.440   1.424   4.407
16528WAT     H249827   0.542   1.338   4.313
16529WAT      O49828   6.261   3.544   8.641
16529WAT     H149829   6.326   3.469   8.641
16529WAT     H249830   6.195   3.531   8.715
16530WAT      O49831   6.685   5.433   5.565
16530WAT     H149832   6.688   5.335   5.586
16530WAT     H249833   6.649   5.483   5.644
16531WAT      O49834   7.480   6.202   1.824
16531WAT     H149835   7.506   6.296   1.849
16531WAT     H249836   7.410   6.169   1.887
16532WAT      O49837   1.013   4.354   4.133
16532WAT     H149838   1.059   4.360   4.222
16532WAT     H249839   0.919   4.324   4.147
16533WAT      O49840   6.079   1.987   3.335
16533WAT     H149841   6.131   1.922   3.280
16533WAT     H249842   6.075   2.075   3.288
16534WAT      O49843   8.545   0.014   1.628
16534WAT     H149844   8.617  -0.018   1.566
16534WAT     H249845   8.493   0.087   1.585
16535WAT      O49846   7.902   3.707   5.969
16535WAT     H149847   8.001   3.703   5.970
16535WAT     H249848   7.872   3.802   5.958
16536WAT      O49849   8.936   2.745   9.140
16536WAT     H149850   8.956   2.701   9.227
16536WAT     H249851   8.891   2.833   9.156
16537WAT      O49852   2.082   3.628   7.067
16537WAT     H149853   2.053   3.572   6.989
16537WAT     H249854   2.173   3.599   7.097
16538WAT      O49855   4.557   5.864   2.973
16538WAT     H149856   4.620   5.787   2.968
16538WAT     H249857   4.499   5.866   2.892
16539WAT      O49858   2.363   9.078   0.418
16539WAT     H149859   2.334   9.081   0.513
16539WAT     H249860   2.285   9.055   0.360
16540WAT      O49861   5.598   7.976   8.454
16540WAT     H149862   5.631   7.916   8.381
16540WAT     H249863   5.632   8.069   8.438
16541WAT      O49864   1.594   8.951   8.458
16541WAT     H149865   1.588   8.855   8.485
16541WAT     H249866   1.542   9.007   8.522
16542WAT      O49867   0.280   4.241   4.913
16542WAT     H149868   0.180   4.240   4.913
16542WAT     H249869   0.313   4.280   4.827
16543WAT      O49870   2.891   2.277   2.431
16543WAT     H149871   2.846   2.261   2.343
16543WAT     H249872   2.834   2.241   2.505
16544WAT      O49873   5.606   5.003   8.542
16544WAT     H149874   5.608   5.101   8.519
16544WAT     H249875   5.529   4.985   8.603
16545WAT      O49876   9.520   5.855   5.610
16545WAT     H149877   9.533   5.806   5.524
16545WAT     H249878   9.423   5.858   5.632
16546WAT      O49879   5.865   3.413   1.927
16546WAT     H149880   5.944   3.372   1.972
16546WAT     H249881   5.832   3.491   1.980
16547WAT      O49882   4.606   6.176   2.489
16547WAT     H149883   4.581   6.145   2.398
16547WAT     H249884   4.626   6.098   2.547
16548WAT      O49885   9.204   5.694   3.893
16548WAT     H149886   9.275   5.741   3.945
16548WAT     H249887   9.159   5.759   3.831
16549WAT      O49888   7.910   0.322   6.939
16549WAT     H149889   7.934   0.384   7.014
16549WAT     H249890   7.903   0.229   6.974
16550WAT      O49891   2.743   9.396   0.025
16550WAT     H149892   2.646   9.418   0.032
16550WAT     H249893   2.763   9.318   0.085
16551WAT      O49894   9.753   4.195   0.233
16551WAT     H149895   9.757   4.285   0.190
16551WAT     H249896   9.752   4.205   0.333
16552WAT      O49897   6.345   6.467   0.031
16552WAT     H149898   6.445   6.471   0.034
16552WAT     H249899   6.311   6.546  -0.020
16553WAT      O49900   4.322   9.588   8.305
16553WAT     H149901   4.371   9.643   8.236
16553WAT     H249902   4.342   9.492   8.290
16554WAT      O49903   2.839   1.394   2.963
16554WAT     H149904   2.938   1.401   2.976
16554WAT     H249905   2.806   1.308   3.003
16555WAT      O49906   4.842   9.829   2.604
16555WAT     H149907   4.845   9.871   2.513
16555WAT     H249908   4.863   9.898   2.673
16556WAT      O49909   5.458   4.646   2.149
16556WAT     H149910   5.521   4.662   2.073
16556WAT     H249911   5.392   4.576   2.123
16557WAT      O49912   8.507   7.047   1.925
16557WAT     H149913   8.491   6.948   1.926
16557WAT     H249914   8.455   7.088   1.851
16558WAT      O49915   2.053   4.208   2.990
16558WAT     H149916   2.046   4.307   2.979
16558WAT     H249917   2.129   4.187   3.052
16559WAT      O49918   8.971   7.829   8.602
16559WAT     H149919   8.945   7.884   8.681
16559WAT     H249920   8.978   7.887   8.521
16560WAT      O49921   3.702   2.888   8.356
16560WAT     H149922   3.802   2.884   8.348
16560WAT     H249923   3.665   2.942   8.281
16561WAT      O49924   4.366   4.625   7.812
16561WAT     H149925   4.429   4.586   7.745
16561WAT     H249926   4.405   4.613   7.904
16562WAT      O49927   8.131   2.563   2.039
16562WAT     H149928   8.144   2.600   2.131
16562WAT     H249929   8.215   2.574   1.987
16563WAT      O49930   4.074   3.511   7.249
16563WAT     H149931   4.127   3.584   7.206
16563WAT     H249932   4.048   3.538   7.342
16564WAT      O49933   5.306   5.291   1.303
16564WAT     H149934   5.230   5.345   1.267
16564WAT     H249935   5.287   5.267   1.398
16565WAT      O49936   3.433   2.449   3.296
16565WAT     H149937   3.516   2.395   3.311
16565WAT     H249938   3.451   2.545   3.316
16566WAT      O49939   5.331   0.106   0.787
16566WAT     H149940   5.309   0.200   0.813
16566WAT     H249941   5.408   0.073   0.842
16567WAT      O49942   8.460   8.194   6.167
16567WAT     H149943   8.411   8.180   6.080
16567WAT     H249944   8.410   8.258   6.224
16568WAT      O49945   1.243   1.909   2.361
16568WAT     H149946   1.317   1.901   2.428
16568WAT     H249947   1.239   1.825   2.307
16569WAT      O49948   4.260   0.048   1.038
16569WAT     H149949   4.358   0.059   1.022
16569WAT     H249950   4.244  -0.032   1.095
16570WAT      O49951   5.671   4.666   5.539
16570WAT     H149952   5.632   4.677   5.447
16570WAT     H249953   5.598   4.676   5.607
16571WAT      O49954   8.711   4.107   1.315
16571WAT     H149955   8.621   4.148   1.305
16571WAT     H249956   8.702   4.009   1.329
16572WAT      O49957   7.580   2.903   4.888
16572WAT     H149958   7.678   2.889   4.905
16572WAT     H249959   7.556   2.998   4.907
16573WAT      O49960   6.304   8.865   2.596
16573WAT     H149961   6.226   8.805   2.612
16573WAT     H249962   6.309   8.889   2.499
16574WAT      O49963   3.563   5.797   9.603
16574WAT     H149964   3.587   5.745   9.520
16574WAT     H249965   3.587   5.744   9.684
16575WAT      O49966   3.725   8.259   6.827
16575WAT     H149967   3.754   8.180   6.772
16575WAT     H249968   3.799   8.285   6.889
16576WAT      O49969   8.644   1.748   4.993
16576WAT     H149970   8.717   1.813   4.972
16576WAT     H249971   8.656   1.713   5.085
16577WAT      O49972   8.946   5.492   5.821
16577WAT     H149973   9.018   5.558   5.802
16577WAT     H249974   8.867   5.510   5.762
16578WAT      O49975   3.743   9.197   6.865
16578WAT     H149976   3.687   9.126   6.822
16578WAT     H249977   3.761   9.270   6.799
16579WAT      O49978   0.464   8.455   3.350
16579WAT     H149979   0.506   8.394   3.283
16579WAT     H249980   0.461   8.548   3.313
16580WAT      O49981   9.768   0.480   3.689
16580WAT     H149982   9.733   0.482   3.595
16580WAT     H249983   9.867   0.468   3.687
16581WAT      O49984   8.085   0.613   0.990
16581WAT     H149985   8.135   0.699   0.997
16581WAT     H249986   8.121   0.560   0.913
16582WAT      O49987   9.241   9.260   1.260
16582WAT     H149988   9.194   9.238   1.174
16582WAT     H249989   9.174   9.266   1.334
16583WAT      O49990   8.921   2.973   3.251
16583WAT     H149991   8.827   2.993   3.225
16583WAT     H249992   8.922   2.905   3.324
16584WAT      O49993   2.610   5.989   9.481
16584WAT     H149994   2.700   5.987   9.523
16584WAT     H249995   2.544   5.944   9.541
16585WAT      O49996   6.532   5.995   3.425
16585WAT     H149997   6.525   6.091   3.398
16585WAT     H249998   6.446   5.949   3.403
16586WAT      O49999   6.171   2.473   1.596
16586WAT     H150000   6.182   2.378   1.567
16586WAT     H250001   6.254   2.524   1.576
16587WAT      O50002   2.685   1.029   0.087
16587WAT     H150003   2.662   0.939   0.052
16587WAT     H250004   2.731   1.020   0.175
16588WAT      O50005   8.101   9.109   4.003
16588WAT     H150006   8.164   9.156   3.941
16588WAT     H250007   8.060   9.175   4.065
16589WAT      O50008   2.038   4.822   1.830
16589WAT     H150009   2.050   4.878   1.912
16589WAT     H250010   1.944   4.832   1.797
16590WAT      O50011   4.068   9.187   8.033
16590WAT     H150012   4.089   9.090   8.021
16590WAT     H250013   4.033   9.203   8.125
16591WAT      O50014   0.522   4.867   6.331
16591WAT     H150015   0.466   4.784   6.325
16591WAT     H250016   0.608   4.845   6.378
16592WAT      O50017   1.821   6.659   2.051
16592WAT     H150018   1.913   6.622   2.046
16592WAT     H250019   1.819   6.736   2.115
16593WAT      O50020   6.480   7.148   4.949
16593WAT     H150021   6.430   7.225   4.988
16593WAT     H250022   6.466   7.067   5.004
16594WAT      O50023   8.584   6.540   5.414
16594WAT     H150024   8.595   6.506   5.320
16594WAT     H250025   8.541   6.469   5.470
16595WAT      O50026   8.926   1.642   2.319
16595WAT     H150027   8.943   1.545   2.335
16595WAT     H250028   8.828   1.660   2.321
16596WAT      O50029   7.993   8.871   2.824
16596WAT     H150030   7.965   8.924   2.905
16596WAT     H250031   7.995   8.774   2.847
16597WAT      O50032   1.131   5.745   9.495
16597WAT     H150033   1.144   5.690   9.413
16597WAT     H250034   1.035   5.746   9.520
16598WAT      O50035   4.024   2.028   9.684
16598WAT     H150036   4.081   1.989   9.756
16598WAT     H250037   4.021   2.128   9.694
16599WAT      O50038   1.858   1.486   9.643
16599WAT     H150039   1.939   1.505   9.586
16599WAT     H250040   1.776   1.522   9.597
16600WAT      O50041   3.496   4.954   0.239
16600WAT     H150042   3.572   4.894   0.214
16600WAT     H250043   3.495   4.966   0.338
16601WAT      O50044   1.685   2.774   3.351
16601WAT     H150045   1.586   2.768   3.343
16601WAT     H250046   1.721   2.690   3.393
16602WAT      O50047   6.053   1.250   6.828
16602WAT     H150048   6.049   1.349   6.842
16602WAT     H250049   6.149   1.222   6.822
16603WAT      O50050   1.599   3.722   8.782
16603WAT     H150051   1.558   3.792   8.723
16603WAT     H250052   1.527   3.660   8.815
16604WAT      O50053   1.725   2.125   3.340
16604WAT     H150054   1.777   2.211   3.333
16604WAT     H250055   1.669   2.113   3.259
16605WAT      O50056   6.295   9.778   5.366
16605WAT     H150057   6.338   9.688   5.373
16605WAT     H250058   6.365   9.849   5.379
16606WAT      O50059   2.002   3.147   5.110
16606WAT     H150060   1.910   3.161   5.147
16606WAT     H250061   2.057   3.229   5.126
16607WAT      O50062   1.175   0.153   1.941
16607WAT     H150063   1.268   0.135   1.976
16607WAT     H250064   1.133   0.067   1.914
16608WAT      O50065   6.042   7.181   5.957
16608WAT     H150066   6.085   7.132   6.033
16608WAT     H250067   6.111   7.234   5.908
16609WAT      O50068   5.095   3.567   6.710
16609WAT     H150069   5.052   3.606   6.629
16609WAT     H250070   5.191   3.547   6.691
16610WAT      O50071   6.519   2.376   7.953
16610WAT     H150072   6.551   2.470   7.940
16610WAT     H250073   6.431   2.377   8.001
16611WAT      O50074   1.334   8.085   2.196
16611WAT     H150075   1.331   8.080   2.096
16611WAT     H250076   1.242   8.078   2.233
16612WAT      O50077   9.680   7.890   8.562
16612WAT     H150078   9.740   7.924   8.634
16612WAT     H250079   9.702   7.935   8.476
16613WAT      O50080   7.415   4.312   0.531
16613WAT     H150081   7.326   4.275   0.558
16613WAT     H250082   7.401   4.385   0.463
16614WAT      O50083   0.388   5.191   0.288
16614WAT     H150084   0.321   5.117   0.296
16614WAT     H250085   0.371   5.243   0.205
16615WAT      O50086   2.412   8.214   4.108
16615WAT     H150087   2.422   8.203   4.009
16615WAT     H250088   2.445   8.131   4.153
16616WAT      O50089   5.430   3.616   9.553
16616WAT     H150090   5.482   3.642   9.635
16616WAT     H250091   5.332   3.617   9.574
16617WAT      O50092   1.521   6.918   8.321
16617WAT     H150093   1.491   6.885   8.231
16617WAT     H250094   1.463   6.878   8.392
16618WAT      O50095   2.965   0.324   9.105
16618WAT     H150096   2.956   0.245   9.166
16618WAT     H250097   3.061   0.349   9.098
16619WAT      O50098   8.979   2.682   8.510
16619WAT     H150099   8.955   2.607   8.571
16619WAT     H250100   8.921   2.761   8.529
16620WAT      O50101   3.955   7.693   5.928
16620WAT     H150102   3.912   7.702   5.838
16620WAT     H250103   4.041   7.745   5.929
16621WAT      O50104   2.292   7.591   6.046
16621WAT     H150105   2.366   7.589   6.113
16621WAT     H250106   2.214   7.642   6.083
16622WAT      O50107   5.974   2.804   9.058
16622WAT     H150108   6.001   2.777   9.150
16622WAT     H250109   5.928   2.727   9.013
16623WAT      O50110   0.946   4.713   9.843
16623WAT     H150111   1.013   4.648   9.880
16623WAT     H250112   0.971   4.806   9.870
16624WAT      O50113   5.364   2.280   0.131
16624WAT     H150114   5.277   2.237   0.106
16624WAT     H250115   5.348   2.350   0.200
16625WAT      O50116   5.013   6.941   2.145
16625WAT     H150117   5.062   6.857   2.169
16625WAT     H250118   5.068   6.995   2.082
16626WAT      O50119   4.999   9.591   7.279
16626WAT     H150120   4.958   9.680   7.298
16626WAT     H250121   4.982   9.529   7.356
16627WAT      O50122   0.093   2.360   6.454
16627WAT     H150123   0.103   2.446   6.503
16627WAT     H250124   0.000   2.324   6.470
16628WAT      O50125   6.937   6.770   6.133
16628WAT     H150126   7.008   6.706   6.106
16628WAT     H250127   6.850   6.745   6.090
16629WAT      O50128   7.031   4.662   7.246
16629WAT     H150129   7.104   4.651   7.179
16629WAT     H250130   6.948   4.696   7.200
16630WAT      O50131   6.115   3.722   7.010
16630WAT     H150132   6.045   3.692   7.075
16630WAT     H250133   6.144   3.815   7.033
16631WAT      O50134   2.551   7.526   8.781
16631WAT     H150135   2.496   7.453   8.822
16631WAT     H250136   2.513   7.615   8.806
16632WAT      O50137   1.875   1.698   1.365
16632WAT     H150138   1.782   1.731   1.380
16632WAT     H250139   1.882   1.664   1.271
16633WAT      O50140   7.703   1.616   8.967
16633WAT     H150141   7.783   1.651   8.919
16633WAT     H250142   7.684   1.522   8.937
16634WAT      O50143   3.639   0.241   8.326
16634WAT     H150144   3.681   0.176   8.262
16634WAT     H250145   3.543   0.218   8.338
16635WAT      O50146   3.355   5.974   6.882
16635WAT     H150147   3.291   5.902   6.905
16635WAT     H250148   3.430   5.975   6.949
16636WAT      O50149   5.318   8.009   5.094
16636WAT     H150150   5.378   8.048   5.024
16636WAT     H250151   5.314   8.070   5.173
16637WAT      O50152   4.333   4.386   2.271
16637WAT     H150153   4.354   4.456   2.339
16637WAT     H250154   4.249   4.411   2.223
16638WAT      O50155   4.902   1.859   7.316
16638WAT     H150156   4.880   1.762   7.321
16638WAT     H250157   4.835   1.911   7.369
16639WAT      O50158   3.263   3.933   1.325
16639WAT     H150159   3.340   3.893   1.375
16639WAT     H250160   3.261   3.895   1.232
16640WAT      O50161   7.932   3.419   0.011
16640WAT     H150162   8.030   3.398   0.005
16640WAT     H250163   7.919   3.503   0.063
16641WAT      O50164   3.858   7.560   8.328
16641WAT     H150165   3.892   7.529   8.239
16641WAT     H250166   3.859   7.484   8.393
16642WAT      O50167   6.694   7.272   6.676
16642WAT     H150168   6.758   7.227   6.738
16642WAT     H250169   6.738   7.350   6.633
16643WAT      O50170   4.889   8.050   7.196
16643WAT     H150171   4.940   7.982   7.143
16643WAT     H250172   4.873   8.015   7.289
16644WAT      O50173   8.239   3.945   2.176
16644WAT     H150174   8.249   4.044   2.176
16644WAT     H250175   8.328   3.902   2.189
16645WAT      O50176   4.107   9.555   4.810
16645WAT     H150177   4.178   9.610   4.855
16645WAT     H250178   4.057   9.503   4.879
16646WAT      O50179   8.909   9.355   4.915
16646WAT     H150180   9.002   9.390   4.905
16646WAT     H250181   8.862   9.360   4.827
16647WAT      O50182   4.332   9.654   5.713
16647WAT     H150183   4.251   9.687   5.664
16647WAT     H250184   4.365   9.570   5.669
16648WAT      O50185   0.534   6.656   5.841
16648WAT     H150186   0.587   6.583   5.885
16648WAT     H250187   0.453   6.675   5.895
16649WAT      O50188   6.155   7.627   1.110
16649WAT     H150189   6.188   7.576   1.189
16649WAT     H250190   6.222   7.697   1.085
16650WAT      O50191   2.332   5.378   5.591
16650WAT     H150192   2.395   5.340   5.523
16650WAT     H250193   2.245   5.329   5.588
16651WAT      O50194   0.141   5.877   2.340
16651WAT     H150195   0.158   5.891   2.243
16651WAT     H250196   0.133   5.966   2.386
16652WAT      O50197   0.699   8.035   1.824
16652WAT     H150198   0.796   8.045   1.802
16652WAT     H250199   0.671   8.111   1.884
16653WAT      O50200   2.601   0.999   5.207
16653WAT     H150201   2.692   1.035   5.185
16653WAT     H250202   2.532   1.064   5.176
16654WAT      O50203   0.578   3.495   8.775
16654WAT     H150204   0.567   3.594   8.789
16654WAT     H250205   0.605   3.452   8.861
16655WAT      O50206   7.906   1.169   9.279
16655WAT     H150207   7.828   1.210   9.326
16655WAT     H250208   7.934   1.086   9.328
16656WAT      O50209   2.777   5.235   8.034
16656WAT     H150210   2.872   5.255   8.056
16656WAT     H250211   2.721   5.244   8.116
16657WAT      O50212   1.410   5.050   4.449
16657WAT     H150213   1.467   5.090   4.378
16657WAT     H250214   1.331   5.005   4.408
16658WAT      O50215   6.814   8.658   9.558
16658WAT     H150216   6.737   8.607   9.519
16658WAT     H250217   6.849   8.609   9.637
16659WAT      O50218   8.321   0.441   9.501
16659WAT     H150219   8.320   0.479   9.409
16659WAT     H250220   8.318   0.341   9.496
16660WAT      O50221   7.366   0.566   9.123
16660WAT     H150222   7.370   0.649   9.179
16660WAT     H250223   7.405   0.585   9.033
16661WAT      O50224   2.708   7.953   5.852
16661WAT     H150225   2.754   8.013   5.917
16661WAT     H250226   2.643   7.894   5.901
16662WAT      O50227   8.319   4.509   4.423
16662WAT     H150228   8.314   4.433   4.357
16662WAT     H250229   8.287   4.477   4.513
16663WAT      O50230   8.222   9.814   3.472
16663WAT     H150231   8.167   9.871   3.412
16663WAT     H250232   8.177   9.725   3.486
16664WAT      O50233   5.787   7.885   4.693
16664WAT     H150234   5.711   7.878   4.758
16664WAT     H250235   5.841   7.801   4.696
16665WAT      O50236   6.351   4.907   9.242
16665WAT     H150237   6.406   4.857   9.310
16665WAT     H250238   6.408   4.932   9.164
16666WAT      O50239   3.974   9.160   2.719
16666WAT     H150240   3.902   9.110   2.673
16666WAT     H250241   3.934   9.233   2.774
16667WAT      O50242   2.555   5.022   5.013
16667WAT     H150243   2.485   4.974   5.066
16667WAT     H250244   2.573   5.111   5.055
16668WAT      O50245   8.888   3.067   4.324
16668WAT     H150246   8.959   3.062   4.253
16668WAT     H250247   8.847   3.158   4.323
16669WAT      O50248   7.176   0.693   3.391
16669WAT     H150249   7.201   0.605   3.432
16669WAT     H250250   7.176   0.685   3.291
16670WAT      O50251   0.163   3.309   3.508
16670WAT     H150252   0.129   3.350   3.424
16670WAT     H250253   0.095   3.322   3.581
16671WAT      O50254   9.209   4.878   8.600
16671WAT     H150255   9.137   4.873   8.669
16671WAT     H250256   9.175   4.929   8.521
16672WAT      O50257   4.029   5.513   0.995
16672WAT     H150258   4.114   5.516   0.942
16672WAT     H250259   3.987   5.422   0.986
16673WAT      O50260   1.502   0.103   7.234
16673WAT     H150261   1.499   0.005   7.217
16673WAT     H250262   1.426   0.129   7.295
16674WAT      O50263   9.455   5.491   7.498
16674WAT     H150264   9.547   5.505   7.461
16674WAT     H250265   9.424   5.399   7.475
16675WAT      O50266   5.739   6.258   7.101
16675WAT     H150267   5.662   6.259   7.038
16675WAT     H250268   5.783   6.168   7.097
16676WAT      O50269   5.004   0.634   1.218
16676WAT     H150270   4.989   0.589   1.306
16676WAT     H250271   5.008   0.733   1.231
16677WAT      O50272   7.937   8.342   2.573
16677WAT     H150273   8.027   8.386   2.577
16677WAT     H250274   7.875   8.397   2.517
16678WAT      O50275   6.585   1.734   2.352
16678WAT     H150276   6.566   1.671   2.427
16678WAT     H250277   6.594   1.827   2.388
16679WAT      O50278   9.204   3.771   9.256
16679WAT     H150279   9.291   3.818   9.240
16679WAT     H250280   9.221   3.687   9.308
16680WAT      O50281   6.423   8.892   9.322
16680WAT     H150282   6.370   8.843   9.391
16680WAT     H250283   6.422   8.841   9.236
16681WAT      O50284   4.033   0.214   5.856
16681WAT     H150285   4.098   0.255   5.792
16681WAT     H250286   3.982   0.286   5.902
16682WAT      O50287   8.750   5.966   5.441
16682WAT     H150288   8.665   5.917   5.422
16682WAT     H250289   8.824   5.925   5.388
16683WAT      O50290   7.183   9.209   3.087
16683WAT     H150291   7.237   9.174   3.011
16683WAT     H250292   7.174   9.139   3.157
16684WAT      O50293   4.462   7.684   3.316
16684WAT     H150294   4.539   7.736   3.355
16684WAT     H250295   4.497   7.602   3.271
16685WAT      O50296   5.933   3.084   5.802
16685WAT     H150297   5.953   3.115   5.709
16685WAT     H250298   5.849   3.030   5.802
16686WAT      O50299   6.710   9.585   7.492
16686WAT     H150300   6.774   9.647   7.537
16686WAT     H250301   6.715   9.494   7.534
16687WAT      O50302   6.632   4.212   1.553
16687WAT     H150303   6.610   4.310   1.555
16687WAT     H250304   6.650   4.183   1.459
16688WAT      O50305   5.165   0.626   4.254
16688WAT     H150306   5.181   0.594   4.348
16688WAT     H250307   5.243   0.601   4.197
16689WAT      O50308   5.355   3.416   0.659
16689WAT     H150309   5.434   3.396   0.601
16689WAT     H250310   5.384   3.417   0.755
16690WAT      O50311   3.407   5.138   9.164
16690WAT     H150312   3.421   5.067   9.096
16690WAT     H250313   3.352   5.102   9.239
16691WAT      O50314   2.636   5.502   8.514
16691WAT     H150315   2.670   5.450   8.593
16691WAT     H250316   2.578   5.444   8.458
16692WAT      O50317   4.848   3.316   3.041
16692WAT     H150318   4.937   3.288   3.075
16692WAT     H250319   4.803   3.374   3.109
16693WAT      O50320   9.056   0.947   0.033
16693WAT     H150321   9.146   0.922   0.069
16693WAT     H250322   9.062   0.959  -0.066
16694WAT      O50323   7.709   6.058   0.046
16694WAT     H150324   7.648   6.135   0.025
16694WAT     H250325   7.661   5.972   0.029
16695WAT      O50326   0.964   9.407   9.383
16695WAT     H150327   1.051   9.375   9.345
16695WAT     H250328   0.977   9.433   9.479
16696WAT      O50329   3.172   8.765   9.882
16696WAT     H150330   3.235   8.732   9.951
16696WAT     H250331   3.220   8.827   9.820
16697WAT      O50332   5.511   7.957   4.061
16697WAT     H150333   5.594   8.012   4.062
16697WAT     H250334   5.516   7.890   3.987
16698WAT      O50335   5.067   2.904   1.164
16698WAT     H150336   5.156   2.881   1.125
16698WAT     H250337   5.072   2.993   1.208
16699WAT      O50338   7.718   1.239   2.643
16699WAT     H150339   7.707   1.335   2.617
16699WAT     H250340   7.651   1.216   2.713
16700WAT      O50341   0.704   8.560   7.501
16700WAT     H150342   0.657   8.629   7.556
16700WAT     H250343   0.796   8.591   7.480
16701WAT      O50344   7.040   5.645   9.050
16701WAT     H150345   7.087   5.601   9.127
16701WAT     H250346   7.009   5.575   8.986
16702WAT      O50347   6.091   5.770   1.269
16702WAT     H150348   6.080   5.684   1.220
16702WAT     H250349   6.011   5.784   1.328
16703WAT      O50350   3.225   1.228   2.772
16703WAT     H150351   3.295   1.299   2.772
16703WAT     H250352   3.261   1.146   2.818
16704WAT      O50353   6.844   2.409   0.579
16704WAT     H150354   6.826   2.318   0.541
16704WAT     H250355   6.803   2.479   0.521
16705WAT      O50356   2.777   8.953   7.398
16705WAT     H150357   2.853   8.895   7.428
16705WAT     H250358   2.696   8.935   7.454
16706WAT      O50359   1.122   9.200   1.023
16706WAT     H150360   1.106   9.296   1.046
16706WAT     H250361   1.072   9.141   1.086
16707WAT      O50362   1.130   7.843   0.832
16707WAT     H150363   1.182   7.854   0.747
16707WAT     H250364   1.144   7.751   0.868
16708WAT      O50365   8.244   4.869   6.332
16708WAT     H150366   8.265   4.849   6.427
16708WAT     H250367   8.177   4.943   6.328
16709WAT      O50368   2.600   6.564   8.986
16709WAT     H150369   2.628   6.647   9.033
16709WAT     H250370   2.572   6.495   9.053
16710WAT      O50371   7.725   6.223   9.556
16710WAT     H150372   7.627   6.206   9.560
16710WAT     H250373   7.770   6.146   9.511
16711WAT      O50374   6.032   6.970   2.160
16711WAT     H150375   6.053   6.973   2.063
16711WAT     H250376   5.933   6.971   2.174
16712WAT      O50377   7.045   1.317   8.428
16712WAT     H150378   6.989   1.392   8.392
16712WAT     H250379   6.986   1.253   8.477
16713WAT      O50380   8.502   6.231   3.536
16713WAT     H150381   8.547   6.252   3.623
16713WAT     H250382   8.547   6.282   3.462
16714WAT      O50383   6.847   3.752   6.359
16714WAT     H150384   6.926   3.693   6.376
16714WAT     H250385   6.861   3.803   6.274
16715WAT      O50386   7.724   6.216   8.039
16715WAT     H150387   7.693   6.260   8.123
16715WAT     H250388   7.816   6.248   8.016
16716WAT      O50389   2.307   1.669   6.268
16716WAT     H150390   2.377   1.666   6.339
16716WAT     H250391   2.223   1.625   6.302
16717WAT      O50392   2.578   9.064   0.237
16717WAT     H150393   2.536   9.031   0.152
16717WAT     H250394   2.507   9.074   0.307
16718WAT      O50395   2.295   7.209   0.396
16718WAT     H150396   2.232   7.267   0.345
16718WAT     H250397   2.369   7.179   0.336
16719WAT      O50398   1.173   5.882   4.897
16719WAT     H150399   1.106   5.948   4.863
16719WAT     H250400   1.149   5.853   4.990
16720WAT      O50401   6.180   9.662   8.134
16720WAT     H150402   6.200   9.663   8.232
16720WAT     H250403   6.135   9.747   8.108
16721WAT      O50404   0.591   2.849   7.616
16721WAT     H150405   0.523   2.785   7.579
16721WAT     H250406   0.550   2.903   7.689
16722WAT      O50407   1.654   2.324   3.100
16722WAT     H150408   1.704   2.331   3.186
16722WAT     H250409   1.711   2.357   3.025
16723WAT      O50410   9.154   2.452   3.694
16723WAT     H150411   9.104   2.528   3.734
16723WAT     H250412   9.103   2.367   3.709
16724WAT      O50413   8.452   1.311   8.548
16724WAT     H150414   8.423   1.289   8.641
16724WAT     H250415   8.482   1.228   8.502
16725WAT      O50416   2.447   2.727   9.869
16725WAT     H150417   2.402   2.801   9.820
16725WAT     H250418   2.385   2.689   9.937
16726WAT      O50419   3.330   7.034   5.592
16726WAT     H150420   3.234   7.005   5.598
16726WAT     H250421   3.359   7.033   5.496
16727WAT      O50422   1.572   3.476   6.976
16727WAT     H150423   1.477   3.447   6.989
16727WAT     H250424   1.617   3.483   7.066
16728WAT      O50425   7.871   8.929   1.640
16728WAT     H150426   7.964   8.898   1.620
16728WAT     H250427   7.835   8.980   1.562
16729WAT      O50428   2.517   8.747   9.001
16729WAT     H150429   2.616   8.731   8.994
16729WAT     H250430   2.500   8.818   9.070
16730WAT      O50431   9.661   6.032   5.792
16730WAT     H150432   9.628   5.961   5.730
16730WAT     H250433   9.670   6.118   5.742
16731WAT      O50434   2.532   2.511   9.747
16731WAT     H150435   2.592   2.534   9.670
16731WAT     H250436   2.493   2.595   9.785
16732WAT      O50437   9.098   9.011   2.441
16732WAT     H150438   9.097   9.100   2.395
16732WAT     H250439   9.044   8.946   2.388
16733WAT      O50440   5.530   2.747   8.292
16733WAT     H150441   5.432   2.748   8.310
16733WAT     H250442   5.551   2.681   8.220
16734WAT      O50443   5.339   8.034   4.659
16734WAT     H150444   5.288   8.001   4.739
16734WAT     H250445   5.301   8.121   4.629
16735WAT      O50446   2.894   8.184   0.040
16735WAT     H150447   2.958   8.125  -0.010
16735WAT     H250448   2.867   8.139   0.125
16736WAT      O50449   5.518   7.627   6.817
16736WAT     H150450   5.616   7.612   6.831
16736WAT     H250451   5.470   7.613   6.904
16737WAT      O50452   8.738   3.378   2.676
16737WAT     H150453   8.662   3.442   2.667
16737WAT     H250454   8.709   3.287   2.650
16738WAT      O50455   5.158   4.523   0.505
16738WAT     H150456   5.058   4.526   0.495
16738WAT     H250457   5.198   4.606   0.465
16739WAT      O50458   1.855   5.903   5.212
16739WAT     H150459   1.928   5.857   5.161
16739WAT     H250460   1.838   5.855   5.297
16740WAT      O50461   4.352   0.769   2.117
16740WAT     H150462   4.393   0.860   2.123
16740WAT     H250463   4.257   0.774   2.150
16741WAT      O50464   0.125   0.088   5.130
16741WAT     H150465   0.189   0.065   5.204
16741WAT     H250466   0.120   0.188   5.121
16742WAT      O50467   3.817   8.966   5.996
16742WAT     H150468   3.718   8.976   5.988
16742WAT     H250469   3.850   9.020   6.073
16743WAT      O50470   1.480   0.598   5.558
16743WAT     H150471   1.578   0.606   5.539
16743WAT     H250472   1.467   0.563   5.651
16744WAT      O50473   5.680   0.299   8.976
16744WAT     H150474   5.636   0.368   9.033
16744WAT     H250475   5.619   0.220   8.967
16745WAT      O50476   6.473   3.710   8.368
16745WAT     H150477   6.503   3.620   8.338
16745WAT     H250478   6.424   3.756   8.294
16746WAT      O50479   2.424   5.207   3.470
16746WAT     H150480   2.419   5.224   3.568
16746WAT     H250481   2.479   5.124   3.453
16747WAT      O50482   1.217   6.672   5.675
16747WAT     H150483   1.139   6.704   5.730
16747WAT     H250484   1.300   6.717   5.708
16748WAT      O50485   6.765   8.897   9.445
16748WAT     H150486   6.760   8.882   9.346
16748WAT     H250487   6.792   8.812   9.490
16749WAT      O50488   3.006   1.320   8.788
16749WAT     H150489   2.978   1.416   8.789
16749WAT     H250490   3.101   1.314   8.757
16750WAT      O50491   5.831   8.600   7.049
16750WAT     H150492   5.858   8.518   7.099
16750WAT     H250493   5.911   8.660   7.037
16751WAT      O50494   4.060   8.300   4.055
16751WAT     H150495   4.155   8.277   4.032
16751WAT     H250496   4.041   8.395   4.029
16752WAT      O50497   1.879   4.605   7.988
16752WAT     H150498   1.914   4.617   7.895
16752WAT     H250499   1.956   4.587   8.049
16753WAT      O50500   0.665   7.068   0.616
16753WAT     H150501   0.700   7.151   0.573
16753WAT     H250502   0.570   7.054   0.588
16754WAT      O50503   5.975   1.673   3.230
16754WAT     H150504   5.911   1.748   3.251
16754WAT     H250505   6.066   1.711   3.213
16755WAT      O50506   2.611   3.526   3.136
16755WAT     H150507   2.649   3.614   3.105
16755WAT     H250508   2.658   3.452   3.088
16756WAT      O50509   3.201   4.922   9.583
16756WAT     H150510   3.268   4.862   9.626
16756WAT     H250511   3.109   4.896   9.614
16757WAT      O50512   5.228   8.343   2.967
16757WAT     H150513   5.281   8.258   2.968
16757WAT     H250514   5.276   8.413   3.020
16758WAT      O50515   6.843   4.434   1.983
16758WAT     H150516   6.866   4.447   1.887
16758WAT     H250517   6.765   4.372   1.991
16759WAT      O50518   4.093   0.490   4.531
16759WAT     H150519   4.166   0.426   4.555
16759WAT     H250520   4.133   0.571   4.486
16760WAT      O50521   4.874   6.485   3.607
16760WAT     H150522   4.964   6.441   3.602
16760WAT     H250523   4.802   6.416   3.596
16761WAT      O50524   9.117   7.273   5.304
16761WAT     H150525   9.021   7.288   5.278
16761WAT     H250526   9.123   7.262   5.403
16762WAT      O50527   0.533   3.765   0.865
16762WAT     H150528   0.485   3.692   0.816
16762WAT     H250529   0.579   3.728   0.945
16763WAT      O50530   4.596   4.600   9.093
16763WAT     H150531   4.600   4.578   9.191
16763WAT     H250532   4.534   4.538   9.047
16764WAT      O50533   2.761   7.657   8.657
16764WAT     H150534   2.724   7.676   8.566
16764WAT     H250535   2.686   7.632   8.718
16765WAT      O50536   0.775   4.744   9.112
16765WAT     H150537   0.844   4.694   9.164
16765WAT     H250538   0.776   4.712   9.017
16766WAT      O50539   2.167   2.711   7.035
16766WAT     H150540   2.213   2.791   7.073
16766WAT     H250541   2.223   2.671   6.962
16767WAT      O50542   1.180   0.499   5.203
16767WAT     H150543   1.102   0.538   5.251
16767WAT     H250544   1.257   0.490   5.267
16768WAT      O50545   8.738   5.814   4.600
16768WAT     H150546   8.653   5.851   4.561
16768WAT     H250547   8.809   5.885   4.599
16769WAT      O50548   0.295   9.179   0.613
16769WAT     H150549   0.368   9.113   0.593
16769WAT     H250550   0.226   9.174   0.541
16770WAT      O50551   1.799   0.532   0.431
16770WAT     H150552   1.895   0.522   0.405
16770WAT     H250553   1.785   0.622   0.472
16771WAT      O50554   1.239   9.081   6.403
16771WAT     H150555   1.234   9.156   6.468
16771WAT     H250556   1.323   9.089   6.348
16772WAT      O50557   1.772   6.193   1.404
16772WAT     H150558   1.864   6.194   1.444
16772WAT     H250559   1.756   6.279   1.356
16773WAT      O50560   0.274   5.754   4.291
16773WAT     H150561   0.311   5.788   4.205
16773WAT     H250562   0.295   5.819   4.364
16774WAT      O50563   7.212   3.667   3.408
16774WAT     H150564   7.209   3.762   3.378
16774WAT     H250565   7.307   3.642   3.430
16775WAT      O50566   9.200   3.864   7.014
16775WAT     H150567   9.249   3.803   6.951
16775WAT     H250568   9.102   3.846   7.009
16776WAT      O50569   5.306   0.250   5.626
16776WAT     H150570   5.402   0.271   5.607
16776WAT     H250571   5.267   0.322   5.683
16777WAT      O50572   6.538   1.055   2.836
16777WAT     H150573   6.576   1.140   2.800
16777WAT     H250574   6.510   1.067   2.931
16778WAT      O50575   8.024   6.917   7.272
16778WAT     H150576   7.944   6.937   7.328
16778WAT     H250577   8.070   7.003   7.248
16779WAT      O50578   3.879   3.018   3.114
16779WAT     H150579   3.805   3.052   3.055
16779WAT     H250580   3.881   3.071   3.199
16780WAT      O50581   5.981   8.620   8.809
16780WAT     H150582   5.939   8.540   8.852
16780WAT     H250583   5.919   8.658   8.741
16781WAT      O50584   1.946   8.767   8.613
16781WAT     H150585   1.988   8.730   8.696
16781WAT     H250586   1.850   8.788   8.631
16782WAT      O50587   6.605   0.870   5.993
16782WAT     H150588   6.704   0.854   5.996
16782WAT     H250589   6.571   0.884   6.086
16783WAT      O50590   9.163   2.185   1.112
16783WAT     H150591   9.081   2.181   1.056
16783WAT     H250592   9.139   2.209   1.206
16784WAT      O50593   4.661   7.188   7.354
16784WAT     H150594   4.760   7.174   7.352
16784WAT     H250595   4.629   7.190   7.449
16785WAT      O50596   0.698   0.197   8.077
16785WAT     H150597   0.723   0.244   8.162
16785WAT     H250598   0.614   0.144   8.092
16786WAT      O50599   7.359   6.294   6.430
16786WAT     H150600   7.368   6.234   6.510
16786WAT     H250601   7.421   6.262   6.358
16787WAT      O50602   1.281   7.497   5.812
16787WAT     H150603   1.245   7.504   5.905
16787WAT     H250604   1.205   7.483   5.748
16788WAT      O50605   8.212   6.708   3.276
16788WAT     H150606   8.192   6.680   3.370
16788WAT     H250607   8.284   6.651   3.239
16789WAT      O50608   0.941   3.925   0.662
16789WAT     H150609   0.940   3.864   0.582
16789WAT     H250610   0.850   3.926   0.703
16790WAT      O50611   0.233   0.615   8.654
16790WAT     H150612   0.308   0.671   8.689
16790WAT     H250613   0.246   0.599   8.556
16791WAT      O50614   4.579   2.034   7.120
16791WAT     H150615   4.538   2.020   7.210
16791WAT     H250616   4.642   2.111   7.124
16792WAT      O50617   9.434   3.534   0.229
16792WAT     H150618   9.522   3.498   0.195
16792WAT     H250619   9.397   3.472   0.298
16793WAT      O50620   9.458   3.062   5.151
16793WAT     H150621   9.437   3.142   5.207
16793WAT     H250622   9.374   3.026   5.110
16794WAT      O50623   9.613   6.651   8.401
16794WAT     H150624   9.526   6.656   8.352
16794WAT     H250625   9.665   6.572   8.368
16795WAT      O50626   0.427   6.403   5.229
16795WAT     H150627   0.421   6.335   5.302
16795WAT     H250628   0.364   6.478   5.248
16796WAT      O50629   4.768   9.306   3.044
16796WAT     H150630   4.738   9.250   3.122
16796WAT     H250631   4.859   9.276   3.015
16797WAT      O50632   0.353   2.743   3.180
16797WAT     H150633   0.350   2.838   3.212
16797WAT     H250634   0.302   2.685   3.244
16798WAT      O50635   5.024   3.463   2.626
16798WAT     H150636   5.069   3.543   2.587
16798WAT     H250637   5.057   3.450   2.720
16799WAT      O50638   4.237   5.706   5.719
16799WAT     H150639   4.321   5.702   5.664
16799WAT     H250640   4.192   5.617   5.717
16800WAT      O50641   5.278   7.556   0.802
16800WAT     H150642   5.230   7.479   0.844
16800WAT     H250643   5.274   7.549   0.703
16801WAT      O50644   8.111   1.081   0.745
16801WAT     H150645   8.178   1.110   0.814
16801WAT     H250646   8.035   1.145   0.743
16802WAT      O50647   3.540   3.187   4.161
16802WAT     H150648   3.495   3.244   4.230
16802WAT     H250649   3.488   3.102   4.149
16803WAT      O50650   0.785   7.485   5.585
16803WAT     H150651   0.841   7.503   5.666
16803WAT     H250652   0.824   7.406   5.536
16804WAT      O50653   2.135   5.959   1.194
16804WAT     H150654   2.159   6.049   1.160
16804WAT     H250655   2.036   5.945   1.186
16805WAT      O50656   6.616   6.507   4.511
16805WAT     H150657   6.599   6.410   4.529
16805WAT     H250658   6.699   6.536   4.558
16806WAT      O50659   0.732   4.967   7.830
16806WAT     H150660   0.649   4.926   7.869
16806WAT     H250661   0.734   5.064   7.851
16807WAT      O50662   4.364   5.894   8.185
16807WAT     H150663   4.345   5.861   8.278
16807WAT     H250664   4.399   5.819   8.130
16808WAT      O50665   4.254   0.801   1.121
16808WAT     H150666   4.314   0.744   1.177
16808WAT     H250667   4.183   0.744   1.080
16809WAT      O50668   7.088   9.340   4.273
16809WAT     H150669   7.026   9.322   4.349
16809WAT     H250670   7.178   9.301   4.292
16810WAT      O50671   5.588   0.512   0.457
16810WAT     H150672   5.678   0.555   0.465
16810WAT     H250673   5.531   0.567   0.396
16811WAT      O50674   7.656   2.317   0.010
16811WAT     H150675   7.650   2.378  -0.069
16811WAT     H250676   7.752   2.306   0.036
16812WAT      O50677   0.079   9.777   4.836
16812WAT     H150678   0.113   9.869   4.855
16812WAT     H250679  -0.019   9.782   4.814
16813WAT      O50680   4.147   8.975   8.481
16813WAT     H150681   4.239   8.997   8.515
16813WAT     H250682   4.100   8.916   8.547
16814WAT      O50683   7.870   1.191   7.969
16814WAT     H150684   7.933   1.210   7.894
16814WAT     H250685   7.916   1.134   8.037
16815WAT      O50686   0.789   0.552   2.335
16815WAT     H150687   0.823   0.634   2.381
16815WAT     H250688   0.845   0.533   2.254
16816WAT      O50689   2.709   6.731   8.318
16816WAT     H150690   2.671   6.778   8.398
16816WAT     H250691   2.666   6.767   8.235
16817WAT      O50692   6.903   6.602   7.106
16817WAT     H150693   6.806   6.625   7.094
16817WAT     H250694   6.911   6.512   7.149
16818WAT      O50695   3.427   6.549   0.213
16818WAT     H150696   3.491   6.616   0.175
16818WAT     H250697   3.474   6.462   0.227
16819WAT      O50698   0.585   0.679   6.714
16819WAT     H150699   0.573   0.589   6.673
16819WAT     H250700   0.604   0.669   6.812
16820WAT      O50701   4.800   0.629   9.123
16820WAT     H150702   4.702   0.647   9.119
16820WAT     H250703   4.840   0.641   9.032
16821WAT      O50704   3.673   5.889   8.787
16821WAT     H150705   3.610   5.853   8.855
16821WAT     H250706   3.728   5.814   8.749
16822WAT      O50707   5.292   7.479   1.705
16822WAT     H150708   5.283   7.401   1.767
16822WAT     H250709   5.203   7.523   1.694
16823WAT      O50710   5.596   0.390   3.863
16823WAT     H150711   5.509   0.439   3.854
16823WAT     H250712   5.638   0.411   3.951
16824WAT      O50713   0.958   1.296   6.864
16824WAT     H150714   0.860   1.277   6.864
16824WAT     H250715   0.978   1.370   6.929
16825WAT      O50716   3.815   1.024   2.367
16825WAT     H150717   3.779   1.016   2.274
16825WAT     H250718   3.745   1.063   2.427
16826WAT      O50719   4.102   9.033   5.480
16826WAT     H150720   4.178   8.997   5.427
16826WAT     H250721   4.091   8.980   5.563
16827WAT      O50722   4.569   7.549   8.828
16827WAT     H150723   4.498   7.610   8.861
16827WAT     H250724   4.625   7.596   8.760
16828WAT      O50725   4.091   2.933   1.509
16828WAT     H150726   4.113   2.837   1.494
16828WAT     H250727   4.171   2.989   1.487
16829WAT      O50728   4.899   1.265   6.991
16829WAT     H150729   4.838   1.303   7.062
16829WAT     H250730   4.987   1.240   7.033
16830WAT      O50731   2.766   0.012   9.449
16830WAT     H150732   2.815  -0.058   9.501
16830WAT     H250733   2.668   0.000   9.461
16831WAT      O50734   7.656   8.862   9.310
16831WAT     H150735   7.638   8.766   9.288
16831WAT     H250736   7.676   8.912   9.226
16832WAT      O50737   8.954   7.110   8.865
16832WAT     H150738   9.029   7.175   8.877
16832WAT     H250739   8.903   7.102   8.951
16833WAT      O50740   6.617   4.367   6.502
16833WAT     H150741   6.566   4.402   6.424
16833WAT     H250742   6.712   4.396   6.495
16834WAT      O50743   1.023   3.543   1.380
16834WAT     H150744   0.983   3.482   1.311
16834WAT     H250745   1.115   3.511   1.403
16835WAT      O50746   5.645   5.633   8.072
16835WAT     H150747   5.577   5.634   8.146
16835WAT     H250748   5.721   5.694   8.096
16836WAT      O50749   1.417   6.420   3.299
16836WAT     H150750   1.367   6.336   3.317
16836WAT     H250751   1.497   6.425   3.359
16837WAT      O50752   2.917   8.208   2.738
16837WAT     H150753   2.873   8.239   2.822
16837WAT     H250754   2.974   8.128   2.757
16838WAT      O50755   5.535   4.581   2.976
16838WAT     H150756   5.474   4.613   2.904
16838WAT     H250757   5.559   4.657   3.036
16839WAT      O50758   6.521   0.414   7.962
16839WAT     H150759   6.522   0.326   7.915
16839WAT     H250760   6.478   0.483   7.903
16840WAT      O50761   2.026   0.919   9.759
16840WAT     H150762   2.116   0.884   9.782
16840WAT     H250763   1.978   0.853   9.701
16841WAT      O50764   2.756   7.950   4.917
16841WAT     H150765   2.724   8.015   4.987
16841WAT     H250766   2.690   7.948   4.842
16842WAT      O50767   1.949   6.027   0.035
16842WAT     H150768   2.047   6.010   0.046
16842WAT     H250769   1.934   6.102  -0.030
16843WAT      O50770   2.281   9.377   9.721
16843WAT     H150771   2.328   9.289   9.729
16843WAT     H250772   2.182   9.362   9.724
16844WAT      O50773   6.900   6.242   7.877
16844WAT     H150774   6.821   6.287   7.919
16844WAT     H250775   6.888   6.143   7.881
16845WAT      O50776   8.101   6.974   1.497
16845WAT     H150777   8.125   6.890   1.547
16845WAT     H250778   8.147   7.052   1.539
16846WAT      O50779   3.811   8.575   2.800
16846WAT     H150780   3.758   8.602   2.719
16846WAT     H250781   3.838   8.479   2.792
16847WAT      O50782   3.445   5.250   4.499
16847WAT     H150783   3.484   5.180   4.559
16847WAT     H250784   3.423   5.331   4.552
16848WAT      O50785   8.853   1.821   9.665
16848WAT     H150786   8.832   1.916   9.690
16848WAT     H250787   8.856   1.813   9.566
16849WAT      O50788   2.427   2.133   2.836
16849WAT     H150789   2.335   2.110   2.867
16849WAT     H250790   2.468   2.199   2.900
16850WAT      O50791   6.179   9.677   2.067
16850WAT     H150792   6.156   9.728   1.984
16850WAT     H250793   6.278   9.664   2.073
16851WAT      O50794   5.574   4.740   3.574
16851WAT     H150795   5.577   4.649   3.533
16851WAT     H250796   5.488   4.753   3.622
16852WAT      O50797   2.904   8.533   1.300
16852WAT     H150798   2.813   8.563   1.331
16852WAT     H250799   2.969   8.540   1.375
16853WAT      O50800   2.850   3.892   5.369
16853WAT     H150801   2.933   3.945   5.385
16853WAT     H250802   2.810   3.919   5.281
16854WAT      O50803   0.989   1.747   5.883
16854WAT     H150804   0.990   1.796   5.970
16854WAT     H250805   0.970   1.650   5.899
16855WAT      O50806   4.328   1.076   0.233
16855WAT     H150807   4.242   1.060   0.283
16855WAT     H250808   4.392   1.124   0.292
16856WAT      O50809   7.015   7.079   2.545
16856WAT     H150810   7.056   6.998   2.588
16856WAT     H250811   6.916   7.072   2.547
16857WAT      O50812   1.839   6.018   9.214
16857WAT     H150813   1.832   5.920   9.235
16857WAT     H250814   1.935   6.043   9.200
16858WAT      O50815   2.881   5.149   0.969
16858WAT     H150816   2.911   5.132   1.063
16858WAT     H250817   2.782   5.135   0.963
16859WAT      O50818   7.438   3.823   6.114
16859WAT     H150819   7.444   3.922   6.107
16859WAT     H250820   7.530   3.784   6.122
16860WAT      O50821   4.958   0.532   0.501
16860WAT     H150822   4.961   0.444   0.549
16860WAT     H250823   4.977   0.517   0.404
16861WAT      O50824   1.774   4.543   9.579
16861WAT     H150825   1.871   4.520   9.577
16861WAT     H250826   1.734   4.512   9.665
16862WAT      O50827   2.200   0.148   4.689
16862WAT     H150828   2.191   0.049   4.677
16862WAT     H250829   2.165   0.195   4.608
16863WAT      O50830   9.531   3.402   3.575
16863WAT     H150831   9.444   3.388   3.527
16863WAT     H250832   9.526   3.484   3.631
16864WAT      O50833   5.506   2.931   2.454
16864WAT     H150834   5.473   2.861   2.390
16864WAT     H250835   5.534   3.012   2.403
16865WAT      O50836   8.738   5.410   1.557
16865WAT     H150837   8.649   5.437   1.521
16865WAT     H250838   8.780   5.488   1.603
16866WAT      O50839   1.737   9.598   3.237
16866WAT     H150840   1.716   9.582   3.333
16866WAT     H250841   1.717   9.516   3.184
16867WAT      O50842   6.160   6.803   0.076
16867WAT     H150843   6.241   6.787   0.132
16867WAT     H250844   6.158   6.899   0.047
16868WAT      O50845   7.838   1.040   8.515
16868WAT     H150846   7.744   1.048   8.480
16868WAT     H250847   7.838   1.057   8.614
16869WAT      O50848   7.796   6.819   3.293
16869WAT     H150849   7.809   6.795   3.389
16869WAT     H250850   7.867   6.884   3.264
16870WAT      O50851   0.019   5.278   4.090
16870WAT     H150852  -0.068   5.310   4.052
16870WAT     H250853   0.084   5.262   4.017
16871WAT      O50854   4.808   2.755   9.412
16871WAT     H150855   4.808   2.702   9.327
16871WAT     H250856   4.819   2.852   9.390
16872WAT      O50857   3.856   0.361   3.965
16872WAT     H150858   3.847   0.461   3.962
16872WAT     H250859   3.940   0.336   4.012
16873WAT      O50860   9.787   6.487   3.375
16873WAT     H150861   9.881   6.486   3.408
16873WAT     H250862   9.729   6.537   3.440
16874WAT      O50863   4.385   4.886   9.230
16874WAT     H150864   4.442   4.855   9.306
16874WAT     H250865   4.331   4.809   9.195
16875WAT      O50866   6.811   4.616   3.640
16875WAT     H150867   6.889   4.554   3.644
16875WAT     H250868   6.731   4.572   3.682
16876WAT      O50869   5.916   7.297   2.223
16876WAT     H150870   5.856   7.334   2.293
16876WAT     H250871   5.989   7.243   2.266
16877WAT      O50872   6.804   1.406   3.014
16877WAT     H150873   6.782   1.349   3.094
16877WAT     H250874   6.902   1.427   3.014
16878WAT      O50875   8.830   4.378   3.397
16878WAT     H150876   8.853   4.365   3.494
16878WAT     H250877   8.904   4.428   3.352
16879WAT      O50878   6.129   9.736   0.358
16879WAT     H150879   6.062   9.771   0.423
16879WAT     H250880   6.095   9.652   0.317
16880WAT      O50881   5.979   9.529   0.240
16880WAT     H150882   5.997   9.501   0.146
16880WAT     H250883   5.881   9.546   0.252
16881WAT      O50884   0.206   3.785   7.486
16881WAT     H150885   0.160   3.708   7.530
16881WAT     H250886   0.297   3.758   7.456
16882WAT      O50887   1.278   1.430   6.525
16882WAT     H150888   1.243   1.489   6.452
16882WAT     H250889   1.205   1.372   6.559
16883WAT      O50890   3.469   4.951   1.522
16883WAT     H150891   3.555   4.906   1.547
16883WAT     H250892   3.487   5.048   1.504
16884WAT      O50893   4.240   3.072   4.738
16884WAT     H150894   4.332   3.109   4.753
16884WAT     H250895   4.234   3.035   4.646
16885WAT      O50896   3.130   0.460   2.885
16885WAT     H150897   3.102   0.527   2.816
16885WAT     H250898   3.112   0.495   2.976
16886WAT      O50899   8.285   0.241   0.953
16886WAT     H150900   8.271   0.178   1.030
16886WAT     H250901   8.361   0.208   0.896
16887WAT      O50902   8.281   5.805   6.121
16887WAT     H150903   8.353   5.833   6.184
16887WAT     H250904   8.244   5.716   6.149
16888WAT      O50905   7.797   8.466   1.216
16888WAT     H150906   7.855   8.389   1.187
16888WAT     H250907   7.725   8.432   1.278
16889WAT      O50908   8.278   2.823   4.843
16889WAT     H150909   8.262   2.916   4.810
16889WAT     H250910   8.369   2.817   4.884
16890WAT      O50911   3.330   9.344   6.243
16890WAT     H150912   3.271   9.369   6.320
16890WAT     H250913   3.412   9.401   6.244
16891WAT      O50914   9.136   8.035   4.109
16891WAT     H150915   9.140   8.055   4.207
16891WAT     H250916   9.059   8.083   4.068
16892WAT      O50917   4.830   9.691   3.802
16892WAT     H150918   4.891   9.765   3.773
16892WAT     H250919   4.883   9.621   3.851
16893WAT      O50920   3.392   3.951   5.149
16893WAT     H150921   3.453   4.017   5.193
16893WAT     H250922   3.374   3.979   5.055
16894WAT      O50923   0.134   1.498   2.075
16894WAT     H150924   0.225   1.537   2.087
16894WAT     H250925   0.071   1.568   2.041
16895WAT      O50926   6.467   2.957   5.683
16895WAT     H150927   6.401   2.976   5.611
16895WAT     H250928   6.486   3.041   5.734
16896WAT      O50929   0.937   4.862   8.603
16896WAT     H150930   1.033   4.884   8.621
16896WAT     H250931   0.890   4.944   8.570
16897WAT      O50932   8.567   4.225   9.385
16897WAT     H150933   8.536   4.157   9.451
16897WAT     H250934   8.568   4.184   9.293
16898WAT      O50935   8.443   8.570   3.015
16898WAT     H150936   8.383   8.644   2.984
16898WAT     H250937   8.396   8.482   3.003
16899WAT      O50938   4.388   9.537   9.346
16899WAT     H150939   4.325   9.572   9.416
16899WAT     H250940   4.337   9.490   9.275
16900WAT      O50941   3.264   2.485   1.648
16900WAT     H150942   3.207   2.409   1.679
16900WAT     H250943   3.341   2.497   1.711
16901WAT      O50944   6.572   6.144   7.099
16901WAT     H150945   6.546   6.208   7.172
16901WAT     H250946   6.551   6.050   7.128
16902WAT      O50947   2.194   2.425   9.219
16902WAT     H150948   2.142   2.343   9.240
16902WAT     H250949   2.284   2.421   9.263
16903WAT      O50950   4.780   2.883   6.818
16903WAT     H150951   4.826   2.966   6.785
16903WAT     H250952   4.841   2.805   6.805
16904WAT      O50953   6.269   0.828   8.331
16904WAT     H150954   6.274   0.798   8.236
16904WAT     H250955   6.214   0.911   8.337
16905WAT      O50956   4.178   6.739   5.801
16905WAT     H150957   4.240   6.724   5.724
16905WAT     H250958   4.084   6.742   5.768
16906WAT      O50959   5.371   6.875   5.892
16906WAT     H150960   5.466   6.895   5.867
16906WAT     H250961   5.337   6.947   5.953
16907WAT      O50962   0.257   8.388   2.602
16907WAT     H150963   0.278   8.418   2.694
16907WAT     H250964   0.266   8.288   2.596
16908WAT      O50965   8.894   6.043   0.760
16908WAT     H150966   8.921   5.997   0.675
16908WAT     H250967   8.797   6.066   0.756
16909WAT      O50968   8.648   4.556   6.613
16909WAT     H150969   8.602   4.612   6.543
16909WAT     H250970   8.583   4.493   6.654
16910WAT      O50971   6.578   5.278   7.725
16910WAT     H150972   6.516   5.300   7.801
16910WAT     H250973   6.563   5.184   7.696
16911WAT      O50974   4.641   3.891   1.220
16911WAT     H150975   4.604   3.924   1.307
16911WAT     H250976   4.739   3.874   1.230
16912WAT      O50977   0.332   3.192   6.816
16912WAT     H150978   0.406   3.131   6.845
16912WAT     H250979   0.269   3.206   6.892
16913WAT      O50980   6.030   8.298   8.124
16913WAT     H150981   6.100   8.236   8.160
16913WAT     H250982   6.044   8.309   8.025
16914WAT      O50983   3.529   6.833   3.377
16914WAT     H150984   3.538   6.747   3.326
16914WAT     H250985   3.578   6.906   3.329
16915WAT      O50986   4.165   9.425   1.083
16915WAT     H150987   4.112   9.465   1.009
16915WAT     H250988   4.103   9.396   1.157
16916WAT      O50989   3.756   4.983   1.510
16916WAT     H150990   3.728   5.066   1.557
16916WAT     H250991   3.841   5.000   1.460
16917WAT      O50992   1.773   0.900   6.786
16917WAT     H150993   1.684   0.854   6.781
16917WAT     H250994   1.839   0.841   6.831
16918WAT      O50995   6.995   7.380   5.593
16918WAT     H150996   6.978   7.409   5.499
16918WAT     H250997   6.975   7.283   5.602
16919WAT      O50998   3.642   7.835   1.166
16919WAT     H150999   3.556   7.799   1.131
16919WAT     H251000   3.713   7.827   1.097
16920WAT      O51001   8.525   1.763   1.430
16920WAT     H151002   8.585   1.823   1.484
16920WAT     H251003   8.449   1.733   1.486
16921WAT      O51004   6.041   9.064   0.454
16921WAT     H151005   5.964   9.070   0.390
16921WAT     H251006   6.088   9.152   0.459
16922WAT      O51007   1.950   2.325   8.558
16922WAT     H151008   2.049   2.323   8.542
16922WAT     H251009   1.906   2.378   8.485
16923WAT      O51010   2.943   0.271   6.005
16923WAT     H151011   3.001   0.202   5.962
16923WAT     H251012   2.963   0.276   6.103
16924WAT      O51013   9.685   2.386   7.276
16924WAT     H151014   9.729   2.299   7.300
16924WAT     H251015   9.687   2.447   7.354
16925WAT      O51016   0.090   8.852   6.912
16925WAT     H151017   0.184   8.867   6.945
16925WAT     H251018   0.090   8.852   6.812
16926WAT      O51019   4.037   7.510   7.101
16926WAT     H151020   4.136   7.516   7.118
16926WAT     H251021   3.992   7.591   7.139
16927WAT      O51022   2.743   1.537   0.258
16927WAT     H151023   2.648   1.553   0.284
16927WAT     H251024   2.754   1.441   0.230
16928WAT      O51025   8.830   8.413   0.047
16928WAT     H151026   8.786   8.377  -0.036
16928WAT     H251027   8.852   8.509   0.033
16929WAT      O51028   8.750   2.720   1.368
16929WAT     H151029   8.697   2.789   1.418
16929WAT     H251030   8.785   2.760   1.284
16930WAT      O51031   4.950   8.128   6.746
16930WAT     H151032   4.946   8.028   6.747
16930WAT     H251033   4.860   8.165   6.720
16931WAT      O51034   8.197   6.373   9.524
16931WAT     H151035   8.236   6.380   9.615
16931WAT     H251036   8.099   6.392   9.527
16932WAT      O51037   8.834   6.962   4.050
16932WAT     H151038   8.832   6.866   4.077
16932WAT     H251039   8.884   6.973   3.964
16933WAT      O51040   8.567   6.691   5.838
16933WAT     H151041   8.559   6.739   5.750
16933WAT     H251042   8.603   6.754   5.907
16934WAT      O51043   2.280   3.733   5.701
16934WAT     H151044   2.282   3.687   5.790
16934WAT     H251045   2.307   3.829   5.713
16935WAT      O51046   3.609   4.136   3.459
16935WAT     H151047   3.654   4.055   3.422
16935WAT     H251048   3.654   4.218   3.424
16936WAT      O51049   0.494   1.369   6.030
16936WAT     H151050   0.489   1.392   5.933
16936WAT     H251051   0.517   1.272   6.040
16937WAT      O51052   6.441   6.053   1.663
16937WAT     H151053   6.380   6.131   1.667
16937WAT     H251054   6.495   6.056   1.579
16938WAT      O51055   0.801   4.367   4.473
16938WAT     H151056   0.800   4.321   4.561
16938WAT     H251057   0.747   4.315   4.407
16939WAT      O51058   9.624   3.218   8.334
16939WAT     H151059   9.699   3.282   8.317
16939WAT     H251060   9.617   3.202   8.433
16940WAT      O51061   0.149   9.397   5.266
16940WAT     H151062   0.230   9.425   5.215
16940WAT     H251063   0.071   9.451   5.237
16941WAT      O51064   0.157   5.386   3.046
16941WAT     H151065   0.248   5.349   3.029
16941WAT     H251066   0.093   5.310   3.059
16942WAT      O51067   3.284   0.150   0.569
16942WAT     H151068   3.329   0.176   0.483
16942WAT     H251069   3.212   0.216   0.590
16943WAT      O51070   7.793   3.750   5.603
16943WAT     H151071   7.694   3.762   5.613
16943WAT     H251072   7.824   3.675   5.661
16944WAT      O51073   3.420   6.894   4.580
16944WAT     H151074   3.501   6.944   4.609
16944WAT     H251075   3.340   6.928   4.629
16945WAT      O51076   6.018   0.221   3.166
16945WAT     H151077   6.082   0.293   3.193
16945WAT     H251078   5.957   0.201   3.242
16946WAT      O51079   5.439   1.029   1.965
16946WAT     H151080   5.420   1.097   2.035
16946WAT     H251081   5.439   1.073   1.875
16947WAT      O51082   3.437   1.441   2.794
16947WAT     H151083   3.476   1.500   2.722
16947WAT     H251084   3.509   1.416   2.859
16948WAT      O51085   5.725   4.157   6.617
16948WAT     H151086   5.770   4.108   6.692
16948WAT     H251087   5.766   4.247   6.607
16949WAT      O51088   0.411   6.874   6.485
16949WAT     H151089   0.333   6.895   6.426
16949WAT     H251090   0.495   6.882   6.433
16950WAT      O51091   7.638   2.486   5.837
16950WAT     H151092   7.547   2.521   5.819
16950WAT     H251093   7.632   2.392   5.871
16951WAT      O51094   3.249   6.179   6.550
16951WAT     H151095   3.217   6.252   6.611
16951WAT     H251096   3.338   6.147   6.579
16952WAT      O51097   3.026   4.075   8.293
16952WAT     H151098   3.007   4.056   8.196
16952WAT     H251099   2.965   4.147   8.325
16953WAT      O51100   7.503   3.104   3.733
16953WAT     H151101   7.413   3.095   3.777
16953WAT     H251102   7.551   3.016   3.739
16954WAT      O51103   0.304   4.335   9.193
16954WAT     H151104   0.378   4.394   9.225
16954WAT     H251105   0.216   4.378   9.213
16955WAT      O51106   6.244   2.271   2.435
16955WAT     H151107   6.151   2.243   2.457
16955WAT     H251108   6.251   2.290   2.337
16956WAT      O51109   8.047   7.930   6.591
16956WAT     H151110   8.121   7.881   6.545
16956WAT     H251111   8.065   7.932   6.690
16957WAT      O51112   4.504   3.651   1.104
16957WAT     H151113   4.526   3.637   1.007
16957WAT     H251114   4.531   3.743   1.131
16958WAT      O51115   1.717   7.296   7.968
16958WAT     H151116   1.650   7.254   8.029
16958WAT     H251117   1.671   7.362   7.908
16959WAT      O51118   5.161   4.559   0.172
16959WAT     H151119   5.204   4.607   0.096
16959WAT     H251120   5.099   4.489   0.137
16960WAT      O51121   3.707   6.337   3.022
16960WAT     H151122   3.726   6.240   3.037
16960WAT     H251123   3.628   6.346   2.961
16961WAT      O51124   7.978   0.639   4.199
16961WAT     H151125   7.993   0.542   4.215
16961WAT     H251126   8.065   0.688   4.207
16962WAT      O51127   0.255   0.985   7.964
16962WAT     H151128   0.306   0.945   7.888
16962WAT     H251129   0.293   1.076   7.985
16963WAT      O51130   2.729   0.645   7.684
16963WAT     H151131   2.706   0.567   7.625
16963WAT     H251132   2.778   0.612   7.765
16964WAT      O51133   4.622   6.797   5.816
16964WAT     H151134   4.562   6.793   5.737
16964WAT     H251135   4.567   6.803   5.900
16965WAT      O51136   8.538   3.122   4.674
16965WAT     H151137   8.536   3.162   4.583
16965WAT     H251138   8.444   3.108   4.707
16966WAT      O51139   0.240   4.561   4.695
16966WAT     H151140   0.275   4.531   4.607
16966WAT     H251141   0.159   4.619   4.681
16967WAT      O51142   5.645   6.665   8.198
16967WAT     H151143   5.635   6.601   8.274
16967WAT     H251144   5.611   6.755   8.224
16968WAT      O51145   1.582   5.106   0.674
16968WAT     H151146   1.551   5.028   0.620
16968WAT     H251147   1.515   5.125   0.746
16969WAT      O51148   7.831   8.298   7.114
16969WAT     H151149   7.827   8.362   7.192
16969WAT     H251150   7.910   8.238   7.124
16970WAT      O51151   0.979   6.751   0.785
16970WAT     H151152   0.954   6.848   0.781
16970WAT     H251153   1.050   6.732   0.717
16971WAT      O51154   0.820   6.515   6.296
16971WAT     H151155   0.789   6.610   6.294
16971WAT     H251156   0.745   6.456   6.265
16972WAT      O51157   6.126   5.495   7.071
16972WAT     H151158   6.031   5.520   7.093
16972WAT     H251159   6.126   5.424   7.000
16973WAT      O51160   1.473   7.132   9.499
16973WAT     H151161   1.481   7.213   9.441
16973WAT     H251162   1.504   7.051   9.449
16974WAT      O51163   1.508   7.803   7.421
16974WAT     H151164   1.409   7.796   7.424
16974WAT     H251165   1.548   7.741   7.489
16975WAT      O51166   8.209   9.231   9.377
16975WAT     H151167   8.259   9.181   9.306
16975WAT     H251168   8.112   9.204   9.374
16976WAT      O51169   1.245   7.104   2.796
16976WAT     H151170   1.231   7.093   2.895
16976WAT     H251171   1.241   7.201   2.773
16977WAT      O51172   4.419   6.472   9.293
16977WAT     H151173   4.398   6.377   9.317
16977WAT     H251174   4.481   6.474   9.215
16978WAT      O51175   2.895   7.723   5.225
16978WAT     H151176   2.901   7.740   5.126
16978WAT     H251177   2.986   7.701   5.260
16979WAT      O51178   7.297   4.709   4.688
16979WAT     H151179   7.209   4.726   4.733
16979WAT     H251180   7.314   4.781   4.620
16980WAT      O51181   6.860   7.139   6.844
16980WAT     H151182   6.897   7.070   6.783
16980WAT     H251183   6.929   7.210   6.861
16981WAT      O51184   8.869   4.211   7.241
16981WAT     H151185   8.862   4.112   7.249
16981WAT     H251186   8.846   4.254   7.328
16982WAT      O51187   1.948   2.172   2.891
16982WAT     H151188   1.971   2.076   2.877
16982WAT     H251189   1.993   2.205   2.975
16983WAT      O51190   3.589   3.785   0.825
16983WAT     H151191   3.680   3.791   0.784
16983WAT     H251192   3.524   3.834   0.768
16984WAT      O51193   7.225   7.165   3.326
16984WAT     H151194   7.263   7.073   3.324
16984WAT     H251195   7.142   7.167   3.270
16985WAT      O51196   6.282   0.491   7.387
16985WAT     H151197   6.199   0.528   7.429
16985WAT     H251198   6.312   0.551   7.313
16986WAT      O51199   0.687   6.568   9.418
16986WAT     H151200   0.774   6.607   9.444
16986WAT     H251201   0.652   6.614   9.337
16987WAT      O51202   3.704   6.107   3.446
16987WAT     H151203   3.793   6.148   3.427
16987WAT     H251204   3.637   6.141   3.380
16988WAT      O51205   5.684   8.235   5.383
16988WAT     H151206   5.673   8.176   5.303
16988WAT     H251207   5.725   8.183   5.458
16989WAT      O51208   7.304   0.956   8.556
16989WAT     H151209   7.293   1.055   8.548
16989WAT     H251210   7.247   0.910   8.488
16990WAT      O51211   2.234   1.051   8.573
16990WAT     H151212   2.273   0.959   8.561
16990WAT     H251213   2.142   1.054   8.534
16991WAT      O51214   8.643   3.204   0.392
16991WAT     H151215   8.562   3.218   0.336
16991WAT     H251216   8.668   3.291   0.436
16992WAT      O51217   2.910   7.281   6.657
16992WAT     H151218   2.999   7.287   6.701
16992WAT     H251219   2.907   7.341   6.577
16993WAT      O51220   8.026   1.320   1.013
16993WAT     H151221   7.996   1.317   0.918
16993WAT     H251222   8.069   1.408   1.032
16994WAT      O51223   3.683   4.151   3.743
16994WAT     H151224   3.747   4.131   3.668
16994WAT     H251225   3.589   4.139   3.712
16995WAT      O51226   1.036   5.149   1.960
16995WAT     H151227   1.087   5.114   2.038
16995WAT     H251228   0.947   5.184   1.991
16996WAT      O51229   9.276   7.645   5.379
16996WAT     H151230   9.334   7.564   5.367
16996WAT     H251231   9.265   7.664   5.476
16997WAT      O51232   5.791   5.000   3.839
16997WAT     H151233   5.697   5.028   3.819
16997WAT     H251234   5.833   4.960   3.758
16998WAT      O51235   4.413   3.620   4.311
16998WAT     H151236   4.421   3.530   4.354
16998WAT     H251237   4.440   3.613   4.214
16999WAT      O51238   7.553   4.035   3.931
16999WAT     H151239   7.507   3.946   3.925
16999WAT     H251240   7.583   4.063   3.841
17000WAT      O51241   2.061   2.253   4.448
17000WAT     H151242   1.997   2.203   4.507
17000WAT     H251243   2.015   2.275   4.362
17001WAT      O51244   5.176   8.736   1.017
17001WAT     H151245   5.135   8.682   1.091
17001WAT     H251246   5.151   8.832   1.028
17002WAT      O51247   5.004   8.914   7.401
17002WAT     H151248   5.057   8.976   7.343
17002WAT     H251249   4.995   8.825   7.355
17003WAT      O51250   9.188   8.044   0.343
17003WAT     H151251   9.120   7.972   0.358
17003WAT     H251252   9.141   8.132   0.334
17004WAT      O51253   5.587   5.079   5.632
17004WAT     H151254   5.495   5.098   5.665
17004WAT     H251255   5.627   5.004   5.686
17005WAT      O51256   7.355   7.176   8.002
17005WAT     H151257   7.437   7.214   8.044
17005WAT     H251258   7.277   7.235   8.022
17006WAT      O51259   5.483   2.704   5.922
17006WAT     H151260   5.384   2.703   5.931
17006WAT     H251261   5.523   2.635   5.984
17007WAT      O51262   6.384   8.782   3.814
17007WAT     H151263   6.426   8.813   3.729
17007WAT     H251264   6.331   8.699   3.797
17008WAT      O51265   4.602   4.652   2.073
17008WAT     H151266   4.545   4.585   2.025
17008WAT     H251267   4.669   4.604   2.129
17009WAT      O51268   3.955   5.622   7.419
17009WAT     H151269   3.994   5.532   7.399
17009WAT     H251270   4.028   5.688   7.431
17010WAT      O51271   8.780   1.197   4.923
17010WAT     H151272   8.850   1.142   4.968
17010WAT     H251273   8.816   1.233   4.837
17011WAT      O51274   6.091   4.979   6.546
17011WAT     H151275   6.095   4.935   6.456
17011WAT     H251276   6.016   5.045   6.547
17012WAT      O51277   5.630   4.736   7.308
17012WAT     H151278   5.573   4.811   7.275
17012WAT     H251279   5.675   4.763   7.393
17013WAT      O51280   0.785   1.734   3.692
17013WAT     H151281   0.829   1.808   3.743
17013WAT     H251282   0.792   1.753   3.594
17014WAT      O51283   4.212   0.122   4.182
17014WAT     H151284   4.264   0.147   4.263
17014WAT     H251285   4.268   0.135   4.100
17015WAT      O51286   1.812   1.181   4.189
17015WAT     H151287   1.722   1.151   4.157
17015WAT     H251288   1.832   1.139   4.278
17016WAT      O51289   3.613   8.853   7.604
17016WAT     H151290   3.586   8.922   7.536
17016WAT     H251291   3.640   8.899   7.688
17017WAT      O51292   2.907   8.255   3.505
17017WAT     H151293   2.990   8.203   3.487
17017WAT     H251294   2.859   8.273   3.418
17018WAT      O51295   2.747   9.371   4.408
17018WAT     H151296   2.706   9.424   4.333
17018WAT     H251297   2.683   9.368   4.485
17019WAT      O51298   6.311   8.350   1.558
17019WAT     H151299   6.248   8.273   1.556
17019WAT     H251300   6.405   8.316   1.547
17020WAT      O51301   4.764   4.133   1.021
17020WAT     H151302   4.788   4.221   0.980
17020WAT     H251303   4.750   4.065   0.949
17021WAT      O51304   2.772   4.297   4.402
17021WAT     H151305   2.686   4.256   4.372
17021WAT     H251306   2.779   4.292   4.502
17022WAT      O51307   8.255   8.144   1.810
17022WAT     H151308   8.319   8.179   1.743
17022WAT     H251309   8.285   8.170   1.902
17023WAT      O51310   6.814   4.201   7.004
17023WAT     H151311   6.854   4.150   6.927
17023WAT     H251312   6.870   4.186   7.086
17024WAT      O51313   2.918   5.343   7.768
17024WAT     H151314   2.879   5.433   7.783
17024WAT     H251315   2.997   5.331   7.829
17025WAT      O51316   2.262   9.269   2.231
17025WAT     H151317   2.313   9.222   2.159
17025WAT     H251318   2.286   9.231   2.320
17026WAT      O51319   4.620   7.535   4.116
17026WAT     H151320   4.607   7.453   4.060
17026WAT     H251321   4.700   7.523   4.174
17027WAT      O51322   1.864   5.944   4.136
17027WAT     H151323   1.862   5.848   4.166
17027WAT     H251324   1.947   5.960   4.083
17028WAT      O51325   2.202   8.361   6.605
17028WAT     H151326   2.252   8.397   6.526
17028WAT     H251327   2.266   8.344   6.680
17029WAT      O51328   2.084   7.157   1.957
17029WAT     H151329   1.993   7.130   1.925
17029WAT     H251330   2.087   7.257   1.968
17030WAT      O51331   5.457   8.873   5.648
17030WAT     H151332   5.436   8.970   5.664
17030WAT     H251333   5.546   8.851   5.687
17031WAT      O51334   7.475   1.799   5.127
17031WAT     H151335   7.513   1.822   5.217
17031WAT     H251336   7.528   1.724   5.087
17032WAT      O51337   0.372   0.344   2.407
17032WAT     H151338   0.294   0.307   2.357
17032WAT     H251339   0.435   0.270   2.430
17033WAT      O51340   8.146   6.488   4.575
17033WAT     H151341   8.240   6.503   4.606
17033WAT     H251342   8.083   6.516   4.647
17034WAT      O51343   0.777   6.243   9.396
17034WAT     H151344   0.689   6.210   9.359
17034WAT     H251345   0.784   6.341   9.382
17035WAT      O51346   1.071   9.239   3.262
17035WAT     H151347   1.116   9.326   3.247
17035WAT     H251348   1.025   9.210   3.178
17036WAT      O51349   1.410   3.874   4.766
17036WAT     H151350   1.388   3.777   4.761
17036WAT     H251351   1.372   3.921   4.686
17037WAT      O51352   8.401   8.171   5.847
17037WAT     H151353   8.371   8.167   5.751
17037WAT     H251354   8.501   8.175   5.850
17038WAT      O51355   0.743   1.995   1.612
17038WAT     H151356   0.797   1.912   1.628
17038WAT     H251357   0.651   1.982   1.649
17039WAT      O51358   7.516   0.770   8.216
17039WAT     H151359   7.518   0.731   8.308
17039WAT     H251360   7.606   0.806   8.193
17040WAT      O51361   5.293   2.350   8.212
17040WAT     H151362   5.389   2.361   8.185
17040WAT     H251363   5.287   2.344   8.312
17041WAT      O51364   3.009   4.354   4.080
17041WAT     H151365   3.072   4.357   4.003
17041WAT     H251366   2.939   4.424   4.069
17042WAT      O51367   7.345   1.753   9.833
17042WAT     H151368   7.328   1.822   9.763
17042WAT     H251369   7.395   1.676   9.794
17043WAT      O51370   8.112   1.502   7.396
17043WAT     H151371   8.175   1.561   7.345
17043WAT     H251372   8.127   1.407   7.369
17044WAT      O51373   0.346   5.881   7.054
17044WAT     H151374   0.308   5.872   7.146
17044WAT     H251375   0.337   5.976   7.023
17045WAT      O51376   5.877   9.014   5.472
17045WAT     H151377   5.845   9.033   5.380
17045WAT     H251378   5.904   9.099   5.516
17046WAT      O51379   2.298   3.548   7.191
17046WAT     H151380   2.310   3.465   7.136
17046WAT     H251381   2.312   3.526   7.287
17047WAT      O51382   6.679   8.257   5.594
17047WAT     H151383   6.608   8.304   5.646
17047WAT     H251384   6.756   8.235   5.655
17048WAT      O51385   5.045   9.453   8.782
17048WAT     H151386   5.116   9.506   8.827
17048WAT     H251387   4.956   9.494   8.799
17049WAT      O51388   9.435   7.861   3.218
17049WAT     H151389   9.345   7.904   3.206
17049WAT     H251390   9.480   7.901   3.298
17050WAT      O51391   4.216   1.377   8.082
17050WAT     H151392   4.160   1.295   8.073
17050WAT     H251393   4.311   1.354   8.060
17051WAT      O51394   9.600   3.806   3.355
17051WAT     H151395   9.507   3.837   3.334
17051WAT     H251396   9.659   3.886   3.369
17052WAT      O51397   4.649   9.444   9.415
17052WAT     H151398   4.703   9.396   9.346
17052WAT     H251399   4.562   9.473   9.375
17053WAT      O51400   6.666   6.267   9.589
17053WAT     H151401   6.647   6.365   9.580
17053WAT     H251402   6.755   6.247   9.547
17054WAT      O51403   5.938   8.681   2.775
17054WAT     H151404   6.019   8.653   2.724
17054WAT     H251405   5.943   8.647   2.868
17055WAT      O51406   3.832   5.299   3.383
17055WAT     H151407   3.893   5.329   3.311
17055WAT     H251408   3.886   5.272   3.463
17056WAT      O51409   4.372   0.397   9.208
17056WAT     H151410   4.413   0.362   9.293
17056WAT     H251411   4.434   0.381   9.132
17057WAT      O51412   4.132   0.288   8.880
17057WAT     H151413   4.138   0.200   8.928
17057WAT     H251414   4.223   0.316   8.850
17058WAT      O51415   7.813   7.392   7.670
17058WAT     H151416   7.740   7.458   7.685
17058WAT     H251417   7.854   7.408   7.580
17059WAT      O51418   3.660   4.399   9.028
17059WAT     H151419   3.702   4.308   9.034
17059WAT     H251420   3.675   4.436   8.936
17060WAT      O51421   4.659   6.362   5.672
17060WAT     H151422   4.607   6.277   5.677
17060WAT     H251423   4.653   6.410   5.760
17061WAT      O51424   9.364   0.995   4.502
17061WAT     H151425   9.369   1.067   4.571
17061WAT     H251426   9.273   0.953   4.504
17062WAT      O51427   2.986   8.412   3.841
17062WAT     H151428   2.887   8.400   3.855
17062WAT     H251429   3.032   8.324   3.853
17063WAT      O51430   1.097   3.327   4.684
17063WAT     H151431   1.005   3.323   4.723
17063WAT     H251432   1.160   3.369   4.750
17064WAT      O51433   4.589   3.620   5.193
17064WAT     H151434   4.606   3.710   5.152
17064WAT     H251435   4.634   3.549   5.138
17065WAT      O51436   9.291   7.032   6.194
17065WAT     H151437   9.363   7.048   6.261
17065WAT     H251438   9.294   7.103   6.124
17066WAT      O51439   5.753   3.497   3.965
17066WAT     H151440   5.797   3.411   3.941
17066WAT     H251441   5.702   3.486   4.050
17067WAT      O51442   4.451   6.796   2.855
17067WAT     H151443   4.531   6.846   2.822
17067WAT     H251444   4.468   6.698   2.845
17068WAT      O51445   6.944   1.979   9.415
17068WAT     H151446   6.934   1.966   9.317
17068WAT     H251447   6.857   1.963   9.460
17069WAT      O51448   3.470   5.648   6.802
17069WAT     H151449   3.499   5.648   6.898
17069WAT     H251450   3.371   5.663   6.797
17070WAT      O51451   9.132   7.520   5.084
17070WAT     H151452   9.203   7.458   5.114
17070WAT     H251453   9.138   7.532   4.985
17071WAT      O51454   8.501   1.357   4.698
17071WAT     H151455   8.546   1.299   4.630
17071WAT     H251456   8.567   1.423   4.734
17072WAT      O51457   7.947   7.506   5.820
17072WAT     H151458   7.872   7.462   5.871
17072WAT     H251459   7.916   7.595   5.786
17073WAT      O51460   1.437   2.196   6.594
17073WAT     H151461   1.461   2.192   6.497
17073WAT     H251462   1.443   2.105   6.634
17074WAT      O51463   0.079   3.538   7.540
17074WAT     H151464   0.089   3.524   7.441
17074WAT     H251465   0.024   3.465   7.579
17075WAT      O51466   1.892   9.568   8.480
17075WAT     H151467   1.798   9.578   8.511
17075WAT     H251468   1.912   9.471   8.464
17076WAT      O51469   2.452   5.382   7.364
17076WAT     H151470   2.548   5.355   7.373
17076WAT     H251471   2.395   5.312   7.406
17077WAT      O51472   4.329   1.822   1.579
17077WAT     H151473   4.274   1.765   1.640
17077WAT     H251474   4.389   1.880   1.633
17078WAT      O51475   2.033   1.405   8.595
17078WAT     H151476   2.117   1.361   8.627
17078WAT     H251477   1.974   1.426   8.673
17079WAT      O51478   0.215   4.121   8.207
17079WAT     H151479   0.281   4.095   8.278
17079WAT     H251480   0.262   4.171   8.135
17080WAT      O51481   3.016   1.151   1.425
17080WAT     H151482   3.093   1.113   1.477
17080WAT     H251483   2.975   1.227   1.476
17081WAT      O51484   3.258   4.783   3.982
17081WAT     H151485   3.211   4.696   3.999
17081WAT     H251486   3.286   4.824   4.069
17082WAT      O51487   3.883   9.743   7.888
17082WAT     H151488   3.909   9.840   7.895
17082WAT     H251489   3.959   9.686   7.920
17083WAT      O51490   5.039   3.413   6.959
17083WAT     H151491   5.059   3.489   6.896
17083WAT     H251492   5.109   3.342   6.948
17084WAT      O51493   7.747   2.781   4.382
17084WAT     H151494   7.775   2.791   4.286
17084WAT     H251495   7.779   2.693   4.417
17085WAT      O51496   3.655   7.139   4.152
17085WAT     H151497   3.699   7.054   4.182
17085WAT     H251498   3.638   7.135   4.053
17086WAT      O51499   4.926   8.285   2.362
17086WAT     H151500   5.006   8.294   2.303
17086WAT     H251501   4.894   8.190   2.359
17087WAT      O51502   5.612   9.159   9.250
17087WAT     H151503   5.673   9.228   9.289
17087WAT     H251504   5.662   9.073   9.238
17088WAT      O51505   7.738   7.537   9.795
17088WAT     H151506   7.666   7.602   9.820
17088WAT     H251507   7.778   7.565   9.708
17089WAT      O51508   6.230   7.301   9.803
17089WAT     H151509   6.319   7.339   9.778
17089WAT     H251510   6.157   7.352   9.758
17090WAT      O51511   1.578   5.354   4.356
17090WAT     H151512   1.485   5.351   4.391
17090WAT     H251513   1.635   5.411   4.416
17091WAT      O51514   5.778   2.153   2.298
17091WAT     H151515   5.737   2.084   2.239
17091WAT     H251516   5.785   2.240   2.249
17092WAT      O51517   1.155   9.288   5.915
17092WAT     H151518   1.073   9.236   5.940
17092WAT     H251519   1.165   9.290   5.816
17093WAT      O51520   9.626   6.646   4.237
17093WAT     H151521   9.541   6.613   4.278
17093WAT     H251522   9.625   6.632   4.138
17094WAT      O51523   1.439   4.329   0.942
17094WAT     H151524   1.467   4.418   0.978
17094WAT     H251525   1.520   4.272   0.928
17095WAT      O51526   8.328   1.706   5.907
17095WAT     H151527   8.277   1.717   5.822
17095WAT     H251528   8.371   1.793   5.932
17096WAT      O51529   2.373   2.087   5.495
17096WAT     H151530   2.426   2.162   5.456
17096WAT     H251531   2.300   2.125   5.552
17097WAT      O51532   3.066   7.718   2.061
17097WAT     H151533   3.152   7.769   2.061
17097WAT     H251534   3.016   7.737   2.146
17098WAT      O51535   0.885   7.311   3.916
17098WAT     H151536   0.960   7.255   3.950
17098WAT     H251537   0.826   7.256   3.856
17099WAT      O51538   8.051   0.063   9.234
17099WAT     H151539   8.041   0.009   9.150
17099WAT     H251540   8.112   0.141   9.217
17100WAT      O51541   3.675   0.303   2.947
17100WAT     H151542   3.644   0.327   2.856
17100WAT     H251543   3.628   0.221   2.979
17101WAT      O51544   7.651   6.553   9.427
17101WAT     H151545   7.598   6.638   9.435
17101WAT     H251546   7.653   6.507   9.516
17102WAT      O51547   2.626   3.020   5.018
17102WAT     H151548   2.691   3.090   4.988
17102WAT     H251549   2.677   2.941   5.054
17103WAT      O51550   5.493   3.032   3.370
17103WAT     H151551   5.502   2.937   3.402
17103WAT     H251552   5.414   3.039   3.309
17104WAT      O51553   6.349   8.545   8.111
17104WAT     H151554   6.321   8.631   8.068
17104WAT     H251555   6.332   8.550   8.210
17105WAT      O51556   5.917   6.141   8.525
17105WAT     H151557   5.995   6.111   8.580
17105WAT     H251558   5.943   6.222   8.471
17106WAT      O51559   8.198   8.244   3.798
17106WAT     H151560   8.244   8.266   3.884
17106WAT     H251561   8.261   8.194   3.738
17107WAT      O51562   8.216   8.445   4.989
17107WAT     H151563   8.238   8.489   5.076
17107WAT     H251564   8.281   8.371   4.972
17108WAT      O51565   0.918   2.295   2.225
17108WAT     H151566   1.016   2.284   2.243
17108WAT     H251567   0.899   2.391   2.205
17109WAT      O51568   1.911   5.176   1.223
17109WAT     H151569   2.002   5.161   1.261
17109WAT     H251570   1.885   5.272   1.233
17110WAT      O51571   4.154   3.780   5.170
17110WAT     H151572   4.153   3.700   5.231
17110WAT     H251573   4.103   3.758   5.087
17111WAT      O51574   5.160   0.655   5.148
17111WAT     H151575   5.198   0.711   5.222
17111WAT     H251576   5.226   0.583   5.124
17112WAT      O51577   6.963   7.417   3.041
17112WAT     H151578   6.899   7.403   2.965
17112WAT     H251579   7.052   7.377   3.018
17113WAT      O51580   6.286   1.762   4.731
17113WAT     H151581   6.309   1.741   4.637
17113WAT     H251582   6.352   1.827   4.769
17114WAT      O51583   3.963   6.295   9.847
17114WAT     H151584   3.909   6.380   9.847
17114WAT     H251585   3.906   6.220   9.879
17115WAT      O51586   0.276   7.075   4.811
17115WAT     H151587   0.320   6.993   4.849
17115WAT     H251588   0.346   7.137   4.775
17116WAT      O51589   1.905   1.668   3.377
17116WAT     H151590   1.837   1.729   3.336
17116WAT     H251591   1.874   1.573   3.369
17117WAT      O51592   7.032   6.302   4.524
17117WAT     H151593   7.002   6.275   4.616
17117WAT     H251594   7.000   6.235   4.458
17118WAT      O51595   8.178   3.395   0.518
17118WAT     H151596   8.177   3.311   0.463
17118WAT     H251597   8.249   3.456   0.484
17119WAT      O51598   0.597   9.188   7.958
17119WAT     H151599   0.679   9.213   8.010
17119WAT     H251600   0.532   9.143   8.019
17120WAT      O51601   8.151   5.533   2.354
17120WAT     H151602   8.181   5.452   2.404
17120WAT     H251603   8.092   5.588   2.412
17121WAT      O51604   7.353   5.362   7.816
17121WAT     H151605   7.258   5.367   7.847
17121WAT     H251606   7.356   5.316   7.728
17122WAT      O51607   2.369   5.530   9.466
17122WAT     H151608   2.365   5.448   9.408
17122WAT     H251609   2.340   5.610   9.413
17123WAT      O51610   8.658   6.784   9.831
17123WAT     H151611   8.743   6.830   9.855
17123WAT     H251612   8.667   6.741   9.741
17124WAT      O51613   3.637   1.645   3.759
17124WAT     H151614   3.667   1.667   3.852
17124WAT     H251615   3.657   1.549   3.739
17125WAT      O51616   7.997   8.094   2.478
17125WAT     H151617   7.965   8.187   2.499
17125WAT     H251618   7.926   8.028   2.501
17126WAT      O51619   9.334   2.175   2.813
17126WAT     H151620   9.406   2.117   2.852
17126WAT     H251621   9.245   2.133   2.831
17127WAT      O51622   2.267   6.617   0.406
17127WAT     H151623   2.337   6.570   0.460
17127WAT     H251624   2.281   6.716   0.413
17128WAT      O51625   7.126   3.488   2.888
17128WAT     H151626   7.073   3.549   2.947
17128WAT     H251627   7.065   3.418   2.850
17129WAT      O51628   2.175   0.104   8.870
17129WAT     H151629   2.261   0.153   8.883
17129WAT     H251630   2.184   0.039   8.795
17130WAT      O51631   0.463   9.824   6.891
17130WAT     H151632   0.430   9.916   6.871
17130WAT     H251633   0.501   9.822   6.984
17131WAT      O51634   4.403   1.022   9.156
17131WAT     H151635   4.357   0.996   9.071
17131WAT     H251636   4.446   1.112   9.144
17132WAT      O51637   8.434   5.912   1.619
17132WAT     H151638   8.524   5.899   1.660
17132WAT     H251639   8.378   5.969   1.680
17133WAT      O51640   7.387   9.360   7.197
17133WAT     H151641   7.317   9.290   7.209
17133WAT     H251642   7.475   9.325   7.227
17134WAT      O51643   9.542   9.305   5.798
17134WAT     H151644   9.499   9.362   5.727
17134WAT     H251645   9.606   9.360   5.851
17135WAT      O51646   7.446   5.944   8.695
17135WAT     H151647   7.534   5.984   8.722
17135WAT     H251648   7.381   6.016   8.674
17136WAT      O51649   1.272   3.690   6.046
17136WAT     H151650   1.237   3.598   6.065
17136WAT     H251651   1.311   3.693   5.954
17137WAT      O51652   6.212   5.138   5.660
17137WAT     H151653   6.113   5.145   5.648
17137WAT     H251654   6.237   5.175   5.749
17138WAT      O51655   6.064   1.753   6.142
17138WAT     H151656   6.083   1.836   6.089
17138WAT     H251657   5.975   1.716   6.113
17139WAT      O51658   2.910   8.642   8.632
17139WAT     H151659   2.920   8.589   8.548
17139WAT     H251660   2.902   8.580   8.710
17140WAT      O51661   4.442   3.773   2.107
17140WAT     H151662   4.489   3.787   2.020
17140WAT     H251663   4.392   3.686   2.104
17141WAT      O51664   6.692   5.750   5.824
17141WAT     H151665   6.697   5.657   5.860
17141WAT     H251666   6.636   5.751   5.741
17142WAT      O51667   0.987   7.894   2.451
17142WAT     H151668   0.890   7.872   2.437
17142WAT     H251669   1.037   7.877   2.367
17143WAT      O51670   4.346   6.604   0.997
17143WAT     H151671   4.329   6.554   0.912
17143WAT     H251672   4.296   6.691   0.996
17144WAT      O51673   3.898   4.727   8.403
17144WAT     H151674   3.977   4.753   8.458
17144WAT     H251675   3.863   4.808   8.354
17145WAT      O51676   6.073   8.353   3.614
17145WAT     H151677   6.027   8.416   3.550
17145WAT     H251678   6.073   8.393   3.705
17146WAT      O51679   5.954   6.709   4.565
17146WAT     H151680   5.895   6.676   4.638
17146WAT     H251681   5.981   6.804   4.583
17147WAT      O51682   8.295   0.580   1.651
17147WAT     H151683   8.318   0.611   1.744
17147WAT     H251684   8.204   0.614   1.626
17148WAT      O51685   7.322   8.599   6.414
17148WAT     H151686   7.262   8.526   6.382
17148WAT     H251687   7.375   8.634   6.337
17149WAT      O51688   2.679   1.836   9.194
17149WAT     H151689   2.624   1.919   9.189
17149WAT     H251690   2.677   1.790   9.105
17150WAT      O51691   4.953   5.903   3.041
17150WAT     H151692   4.892   5.980   3.021
17150WAT     H251693   4.899   5.820   3.053
17151WAT      O51694   9.735   1.592   6.051
17151WAT     H151695   9.732   1.501   6.090
17151WAT     H251696   9.722   1.587   5.952
17152WAT      O51697   4.230   9.604   2.164
17152WAT     H151698   4.166   9.609   2.088
17152WAT     H251699   4.254   9.696   2.194
17153WAT      O51700   0.802   5.742   0.973
17153WAT     H151701   0.740   5.778   0.904
17153WAT     H251702   0.753   5.733   1.060
17154WAT      O51703   8.545   0.260   0.135
17154WAT     H151704   8.604   0.206   0.076
17154WAT     H251705   8.450   0.252   0.104
17155WAT      O51706   5.462   2.660   0.692
17155WAT     H151707   5.389   2.599   0.724
17155WAT     H251708   5.479   2.643   0.595
17156WAT      O51709   3.455   1.326   9.112
17156WAT     H151710   3.536   1.278   9.146
17156WAT     H251711   3.411   1.271   9.040
17157WAT      O51712   7.099   6.903   9.179
17157WAT     H151713   7.003   6.876   9.189
17157WAT     H251714   7.146   6.834   9.123
17158WAT      O51715   0.114   0.758   2.479
17158WAT     H151716   0.150   0.710   2.398
17158WAT     H251717   0.022   0.726   2.498
17159WAT      O51718   5.075   8.464   0.671
17159WAT     H151719   5.021   8.476   0.754
17159WAT     H251720   5.061   8.542   0.611
17160WAT      O51721   2.622   4.416   1.630
17160WAT     H151722   2.600   4.508   1.596
17160WAT     H251723   2.711   4.417   1.675
17161WAT      O51724   7.858   4.589   5.239
17161WAT     H151725   7.860   4.673   5.184
17161WAT     H251726   7.802   4.520   5.192
17162WAT      O51727   7.577   7.386   8.408
17162WAT     H151728   7.501   7.449   8.428
17162WAT     H251729   7.636   7.379   8.489
17163WAT      O51730   9.118   5.077   3.879
17163WAT     H151731   9.114   4.980   3.853
17163WAT     H251732   9.195   5.120   3.832
17164WAT      O51733   2.996   7.706   1.028
17164WAT     H151734   2.988   7.631   1.093
17164WAT     H251735   3.072   7.765   1.055
17165WAT      O51736   4.382   6.442   6.856
17165WAT     H151737   4.287   6.419   6.878
17165WAT     H251738   4.433   6.359   6.835
17166WAT      O51739   0.899   0.189   8.687
17166WAT     H151740   0.888   0.098   8.728
17166WAT     H251741   0.969   0.240   8.736
17167WAT      O51742   6.386   8.098   8.768
17167WAT     H151743   6.334   8.083   8.683
17167WAT     H251744   6.461   8.162   8.750
17168WAT      O51745   2.101   2.909   3.957
17168WAT     H151746   2.194   2.934   3.982
17168WAT     H251747   2.045   2.899   4.039
17169WAT      O51748   1.259   4.711   7.639
17169WAT     H151749   1.281   4.783   7.705
17169WAT     H251750   1.180   4.739   7.585
17170WAT      O51751   7.949   2.385   1.544
17170WAT     H151752   8.018   2.454   1.566
17170WAT     H251753   7.894   2.366   1.624
17171WAT      O51754   9.884   5.390   0.948
17171WAT     H151755   9.798   5.400   0.899
17171WAT     H251756   9.959   5.428   0.894
17172WAT      O51757   9.641   3.755   4.539
17172WAT     H151758   9.641   3.847   4.578
17172WAT     H251759   9.555   3.741   4.490
17173WAT      O51760   2.925   6.937   9.107
17173WAT     H151761   2.954   7.022   9.150
17173WAT     H251762   2.929   6.948   9.007
17174WAT      O51763   6.943   9.476   6.103
17174WAT     H151764   6.894   9.463   6.189
17174WAT     H251765   6.882   9.521   6.037
17175WAT      O51766   1.186   4.456   3.492
17175WAT     H151767   1.186   4.426   3.397
17175WAT     H251768   1.103   4.425   3.538
17176WAT      O51769   0.710   0.848   3.220
17176WAT     H151770   0.647   0.837   3.297
17176WAT     H251771   0.668   0.908   3.151
17177WAT      O51772   5.614   8.730   0.265
17177WAT     H151773   5.520   8.731   0.301
17177WAT     H251774   5.671   8.792   0.320
17178WAT      O51775   5.694   6.558   2.629
17178WAT     H151776   5.691   6.516   2.720
17178WAT     H251777   5.770   6.520   2.578
17179WAT      O51778   3.832   7.530   9.810
17179WAT     H151779   3.920   7.485   9.824
17179WAT     H251780   3.805   7.523   9.714
17180WAT      O51781   5.757   8.255   0.596
17180WAT     H151782   5.829   8.307   0.549
17180WAT     H251783   5.760   8.275   0.694
17181WAT      O51784   8.394   4.986   2.910
17181WAT     H151785   8.342   4.988   2.824
17181WAT     H251786   8.337   5.020   2.984
17182WAT      O51787   7.032   4.488   3.736
17182WAT     H151788   7.093   4.409   3.744
17182WAT     H251789   7.041   4.546   3.817
17183WAT      O51790   0.329   6.016   8.850
17183WAT     H151791   0.378   5.934   8.822
17183WAT     H251792   0.383   6.097   8.825
17184WAT      O51793   2.739   1.934   2.330
17184WAT     H151794   2.828   1.975   2.309
17184WAT     H251795   2.709   1.966   2.420
17185WAT      O51796   8.719   3.668   0.274
17185WAT     H151797   8.750   3.755   0.236
17185WAT     H251798   8.619   3.666   0.274
17186WAT      O51799   2.258   9.695   4.369
17186WAT     H151800   2.334   9.748   4.408
17186WAT     H251801   2.187   9.757   4.337
17187WAT      O51802   3.217   6.519   5.258
17187WAT     H151803   3.148   6.459   5.297
17187WAT     H251804   3.208   6.520   5.158
17188WAT      O51805   4.244   8.843   4.624
17188WAT     H151806   4.157   8.808   4.587
17188WAT     H251807   4.253   8.817   4.720
17189WAT      O51808   3.191   9.215   2.775
17189WAT     H151809   3.194   9.276   2.695
17189WAT     H251810   3.284   9.190   2.802
17190WAT      O51811   3.355   1.076   4.678
17190WAT     H151812   3.395   1.006   4.737
17190WAT     H251813   3.427   1.118   4.622
17191WAT      O51814   0.099   8.052   4.327
17191WAT     H151815   0.151   8.136   4.343
17191WAT     H251816   0.029   8.069   4.258
17192WAT      O51817   8.766   7.157   0.440
17192WAT     H151818   8.695   7.162   0.510
17192WAT     H251819   8.833   7.087   0.465
17193WAT      O51820   1.863   5.197   2.100
17193WAT     H151821   1.878   5.264   2.173
17193WAT     H251822   1.787   5.227   2.042
17194WAT      O51823   0.575   2.045   7.169
17194WAT     H151824   0.482   2.053   7.131
17194WAT     H251825   0.615   2.136   7.177
17195WAT      O51826   0.447   4.638   8.872
17195WAT     H151827   0.412   4.546   8.860
17195WAT     H251828   0.429   4.668   8.966
17196WAT      O51829   0.888   2.031   5.802
17196WAT     H151830   0.917   1.940   5.772
17196WAT     H251831   0.968   2.089   5.817
17197WAT      O51832   2.108   0.096   4.230
17197WAT     H151833   2.115   0.164   4.304
17197WAT     H251834   2.046   0.023   4.258
17198WAT      O51835   7.410   7.458   3.568
17198WAT     H151836   7.404   7.555   3.545
17198WAT     H251837   7.424   7.405   3.484
17199WAT      O51838   3.467   8.630   5.820
17199WAT     H151839   3.519   8.662   5.741
17199WAT     H251840   3.379   8.593   5.789
17200WAT      O51841   6.564   9.739   2.292
17200WAT     H151842   6.507   9.698   2.221
17200WAT     H251843   6.505   9.790   2.356
17201WAT      O51844   6.005   3.065   2.627
17201WAT     H151845   6.023   3.157   2.661
17201WAT     H251846   5.929   3.025   2.678
17202WAT      O51847   4.288   6.965   6.693
17202WAT     H151848   4.234   6.886   6.723
17202WAT     H251849   4.282   6.974   6.594
17203WAT      O51850   9.769   5.279   5.616
17203WAT     H151851   9.727   5.353   5.669
17203WAT     H251852   9.842   5.315   5.558
17204WAT      O51853   0.408   0.131   4.150
17204WAT     H151854   0.508   0.124   4.146
17204WAT     H251855   0.379   0.143   4.245
17205WAT      O51856   7.295   9.514   3.312
17205WAT     H151857   7.196   9.496   3.312
17205WAT     H251858   7.343   9.440   3.358
17206WAT      O51859   0.444   1.311   9.011
17206WAT     H151860   0.433   1.406   8.982
17206WAT     H251861   0.465   1.254   8.932
17207WAT      O51862   0.567   6.040   2.605
17207WAT     H151863   0.584   6.033   2.507
17207WAT     H251864   0.641   5.996   2.655
17208WAT      O51865   7.941   6.344   5.076
17208WAT     H151866   7.910   6.256   5.112
17208WAT     H251867   7.891   6.417   5.122
17209WAT      O51868   5.638   7.471   9.558
17209WAT     H151869   5.569   7.399   9.562
17209WAT     H251870   5.592   7.560   9.547
17210WAT      O51871   7.062   0.262   5.855
17210WAT     H151872   7.124   0.320   5.803
17210WAT     H251873   7.103   0.239   5.943
17211WAT      O51874   4.567   2.546   3.906
17211WAT     H151875   4.526   2.467   3.860
17211WAT     H251876   4.495   2.608   3.936
17212WAT      O51877   7.254   8.639   7.102
17212WAT     H151878   7.155   8.633   7.087
17212WAT     H251879   7.273   8.648   7.200
17213WAT      O51880   8.387   0.490   4.999
17213WAT     H151881   8.365   0.529   5.089
17213WAT     H251882   8.485   0.468   4.996
17214WAT      O51883   7.389   6.923   8.083
17214WAT     H151884   7.403   7.013   8.041
17214WAT     H251885   7.453   6.858   8.043
17215WAT      O51886   6.405   7.763   3.623
17215WAT     H151887   6.357   7.783   3.537
17215WAT     H251888   6.341   7.772   3.699
17216WAT      O51889   7.276   1.272   7.103
17216WAT     H151890   7.255   1.218   7.184
17216WAT     H251891   7.197   1.273   7.042
17217WAT      O51892   9.011   9.363   6.561
17217WAT     H151893   9.025   9.428   6.486
17217WAT     H251894   9.045   9.273   6.534
17218WAT      O51895   9.239   7.649   1.633
17218WAT     H151896   9.295   7.702   1.569
17218WAT     H251897   9.238   7.694   1.722
17219WAT      O51898   1.577   2.523   0.234
17219WAT     H151899   1.515   2.600   0.249
17219WAT     H251900   1.652   2.527   0.301
17220WAT      O51901   9.618   9.485   8.964
17220WAT     H151902   9.651   9.556   8.902
17220WAT     H251903   9.533   9.446   8.928
17221WAT      O51904   0.096   9.730   2.319
17221WAT     H151905   0.066   9.752   2.226
17221WAT     H251906   0.036   9.776   2.384
17222WAT      O51907   9.208   6.759   1.483
17222WAT     H151908   9.229   6.668   1.447
17222WAT     H251909   9.262   6.828   1.434
17223WAT      O51910   0.637   0.369   1.295
17223WAT     H151911   0.632   0.469   1.303
17223WAT     H251912   0.612   0.328   1.383
17224WAT      O51913   4.970   2.162   3.643
17224WAT     H151914   4.992   2.259   3.652
17224WAT     H251915   5.046   2.113   3.602
17225WAT      O51916   3.704   6.103   6.953
17225WAT     H151917   3.756   6.054   6.883
17225WAT     H251918   3.657   6.181   6.911
17226WAT      O51919   5.420   3.841   0.740
17226WAT     H151920   5.507   3.876   0.774
17226WAT     H251921   5.410   3.745   0.766
17227WAT      O51922   2.345   7.202   1.586
17227WAT     H151923   2.301   7.114   1.605
17227WAT     H251924   2.303   7.273   1.642
17228WAT      O51925   7.723   1.053   5.097
17228WAT     H151926   7.809   1.081   5.054
17228WAT     H251927   7.662   1.132   5.106
17229WAT      O51928   7.906   4.934   9.604
17229WAT     H151929   7.886   4.857   9.543
17229WAT     H251930   7.929   5.014   9.549
17230WAT      O51931   5.730   1.868   6.179
17230WAT     H151932   5.736   1.786   6.122
17230WAT     H251933   5.658   1.855   6.247
17231WAT      O51934   2.291   1.297   8.665
17231WAT     H151935   2.270   1.209   8.623
17231WAT     H251936   2.389   1.316   8.655
17232WAT      O51937   2.088   2.895   7.725
17232WAT     H151938   2.071   2.915   7.629
17232WAT     H251939   2.005   2.913   7.778
17233WAT      O51940   8.918   6.842   0.212
17233WAT     H151941   8.874   6.916   0.161
17233WAT     H251942   9.014   6.864   0.227
17234WAT      O51943   8.206   9.599   9.018
17234WAT     H151944   8.254   9.596   9.105
17234WAT     H251945   8.192   9.695   8.991
17235WAT      O51946   9.699   4.422   2.074
17235WAT     H151947   9.722   4.419   2.171
17235WAT     H251948   9.775   4.383   2.021
17236WAT      O51949   5.122   7.860   3.690
17236WAT     H151950   5.034   7.897   3.720
17236WAT     H251951   5.126   7.862   3.590
17237WAT      O51952   4.590   0.062   8.402
17237WAT     H151953   4.684   0.046   8.433
17237WAT     H251954   4.547  -0.025   8.380
17238WAT      O51955   5.234   9.412   9.557
17238WAT     H151956   5.160   9.469   9.593
17238WAT     H251957   5.314   9.420   9.617
17239WAT      O51958   2.363   2.943   8.021
17239WAT     H151959   2.437   2.916   8.083
17239WAT     H251960   2.400   2.998   7.946
17240WAT      O51961   7.625   4.436   4.751
17240WAT     H151962   7.552   4.394   4.805
17240WAT     H251963   7.616   4.408   4.655
17241WAT      O51964   3.524   3.080   5.662
17241WAT     H151965   3.426   3.061   5.653
17241WAT     H251966   3.576   2.998   5.639
17242WAT      O51967   8.340   9.050   9.197
17242WAT     H151968   8.389   8.986   9.256
17242WAT     H251969   8.333   9.011   9.105
17243WAT      O51970   4.179   2.870   1.907
17243WAT     H151971   4.216   2.854   1.816
17243WAT     H251972   4.212   2.958   1.941
17244WAT      O51973   8.598   2.522   1.460
17244WAT     H151974   8.524   2.530   1.392
17244WAT     H251975   8.664   2.595   1.445
17245WAT      O51976   8.563   3.713   8.239
17245WAT     H151977   8.647   3.668   8.209
17245WAT     H251978   8.492   3.645   8.253
17246WAT      O51979   3.175   6.920   2.198
17246WAT     H151980   3.154   6.828   2.231
17246WAT     H251981   3.107   6.984   2.234
17247WAT      O51982   2.177   6.963   1.284
17247WAT     H151983   2.190   7.061   1.265
17247WAT     H251984   2.116   6.953   1.363
17248WAT      O51985   1.453   2.144   2.815
17248WAT     H151986   1.550   2.166   2.807
17248WAT     H251987   1.404   2.174   2.733
17249WAT      O51988   0.323   0.832   1.904
17249WAT     H151989   0.323   0.868   1.811
17249WAT     H251990   0.320   0.732   1.901
17250WAT      O51991   2.205   6.432   8.496
17250WAT     H151992   2.229   6.365   8.567
17250WAT     H251993   2.153   6.386   8.424
17251WAT      O51994   8.480   3.255   9.640
17251WAT     H151995   8.412   3.324   9.616
17251WAT     H251996   8.543   3.242   9.564
17252WAT      O51997   5.183   1.792   7.296
17252WAT     H151998   5.086   1.816   7.299
17252WAT     H251999   5.233   1.851   7.359
17253WAT      O52000   1.182   4.339   9.314
17253WAT     H152001   1.233   4.321   9.230
17253WAT     H252002   1.188   4.436   9.338
17254WAT      O52003   3.466   0.287   8.950
17254WAT     H152004   3.472   0.211   9.015
17254WAT     H252005   3.467   0.250   8.857
17255WAT      O52006   8.258   2.288   3.085
17255WAT     H152007   8.310   2.237   3.016
17255WAT     H252008   8.251   2.233   3.169
17256WAT      O52009   3.730   0.520   7.282
17256WAT     H152010   3.802   0.532   7.350
17256WAT     H252011   3.741   0.432   7.236
17257WAT      O52012   0.551   6.044   4.890
17257WAT     H152013   0.576   6.125   4.943
17257WAT     H252014   0.545   5.965   4.951
17258WAT      O52015   7.321   4.636   0.717
17258WAT     H152016   7.260   4.567   0.677
17258WAT     H252017   7.282   4.727   0.702
17259WAT      O52018   9.081   2.835   3.935
17259WAT     H152019   9.019   2.797   3.866
17259WAT     H252020   9.174   2.840   3.898
17260WAT      O52021   9.295   4.809   4.068
17260WAT     H152022   9.266   4.813   3.973
17260WAT     H252023   9.383   4.761   4.074
17261WAT      O52024   5.503   8.999   7.121
17261WAT     H152025   5.525   8.961   7.211
17261WAT     H252026   5.512   9.099   7.125
17262WAT      O52027   0.265   2.750   3.833
17262WAT     H152028   0.192   2.780   3.894
17262WAT     H252029   0.226   2.690   3.762
17263WAT      O52030   4.039   8.476   6.065
17263WAT     H152031   3.995   8.442   6.149
17263WAT     H252032   3.983   8.548   6.025
17264WAT      O52033   8.361   5.056   7.338
17264WAT     H152034   8.333   4.962   7.358
17264WAT     H252035   8.461   5.062   7.337
17265WAT      O52036   5.120   3.410   7.228
17265WAT     H152037   5.066   3.338   7.271
17265WAT     H252038   5.082   3.431   7.138
17266WAT      O52039   9.050   9.316   3.765
17266WAT     H152040   9.052   9.224   3.726
17266WAT     H252041   9.056   9.384   3.692
17267WAT      O52042   9.224   6.131   3.808
17267WAT     H152043   9.130   6.162   3.792
17267WAT     H252044   9.239   6.121   3.906
17268WAT      O52045   5.922   3.666   8.603
17268WAT     H152046   5.986   3.720   8.657
17268WAT     H252047   5.944   3.569   8.614
17269WAT      O52048   6.954   6.772   0.118
17269WAT     H152049   6.881   6.821   0.071
17269WAT     H252050   6.984   6.695   0.062
17270WAT      O52051   6.977   9.335   5.580
17270WAT     H152052   6.909   9.262   5.586
17270WAT     H252053   6.979   9.370   5.486
17271WAT      O52054   8.318   0.237   7.777
17271WAT     H152055   8.316   0.326   7.822
17271WAT     H252056   8.405   0.225   7.729
17272WAT      O52057   6.441   5.924   0.848
17272WAT     H152058   6.347   5.896   0.828
17272WAT     H252059   6.483   5.962   0.765
17273WAT      O52060   6.111   7.482   4.413
17273WAT     H152061   6.124   7.558   4.477
17273WAT     H252062   6.020   7.488   4.372
17274WAT      O52063   5.612   5.899   4.054
17274WAT     H152064   5.646   5.806   4.039
17274WAT     H252065   5.656   5.938   4.135
17275WAT      O52066   8.458   9.079   4.367
17275WAT     H152067   8.416   9.128   4.290
17275WAT     H252068   8.409   9.101   4.451
17276WAT      O52069   0.433   1.520   2.082
17276WAT     H152070   0.532   1.532   2.074
17276WAT     H252071   0.413   1.429   2.119
17277WAT      O52072   4.426   6.441   5.529
17277WAT     H152073   4.353   6.383   5.565
17277WAT     H252074   4.513   6.415   5.572
17278WAT      O52075   5.703   2.117   5.544
17278WAT     H152076   5.664   2.051   5.479
17278WAT     H252077   5.717   2.205   5.499
17279WAT      O52078   0.803   1.562   2.994
17279WAT     H152079   0.814   1.562   2.895
17279WAT     H252080   0.851   1.483   3.033
17280WAT      O52081   8.957   8.346   9.613
17280WAT     H152082   8.938   8.432   9.564
17280WAT     H252083   8.878   8.323   9.670
17281WAT      O52084   8.461   2.509   0.216
17281WAT     H152085   8.546   2.555   0.241
17281WAT     H252086   8.482   2.424   0.168
17282WAT      O52087   8.397   8.925   6.433
17282WAT     H152088   8.406   8.863   6.511
17282WAT     H252089   8.487   8.944   6.394
17283WAT      O52090   5.600   2.512   3.993
17283WAT     H152091   5.585   2.607   3.963
17283WAT     H252092   5.638   2.459   3.918
17284WAT      O52093   0.798   2.247   3.999
17284WAT     H152094   0.889   2.240   4.040
17284WAT     H252095   0.807   2.252   3.899
17285WAT      O52096   8.308   5.661   1.608
17285WAT     H152097   8.258   5.629   1.688
17285WAT     H252098   8.331   5.758   1.618
17286WAT      O52099   3.722   9.618   1.794
17286WAT     H152100   3.746   9.715   1.803
17286WAT     H252101   3.658   9.606   1.718
17287WAT      O52102   0.668   0.679   0.440
17287WAT     H152103   0.645   0.725   0.354
17287WAT     H252104   0.755   0.714   0.474
17288WAT      O52105   3.745   2.266   9.835
17288WAT     H152106   3.651   2.288   9.863
17288WAT     H252107   3.796   2.350   9.821
17289WAT      O52108   2.977   2.142   1.278
17289WAT     H152109   3.071   2.172   1.265
17289WAT     H252110   2.917   2.199   1.221
17290WAT      O52111   1.529   7.319   5.121
17290WAT     H152112   1.443   7.370   5.123
17290WAT     H252113   1.602   7.377   5.085
17291WAT      O52114   6.547   3.565   5.122
17291WAT     H152115   6.473   3.519   5.171
17291WAT     H252116   6.592   3.631   5.182
17292WAT      O52117   2.960   1.377   8.174
17292WAT     H152118   2.949   1.406   8.080
17292WAT     H252119   3.027   1.436   8.221
17293WAT      O52120   4.730   4.352   9.315
17293WAT     H152121   4.658   4.295   9.276
17293WAT     H252122   4.813   4.343   9.260
17294WAT      O52123   4.137   2.752   6.532
17294WAT     H152124   4.199   2.795   6.598
17294WAT     H252125   4.163   2.780   6.439
17295WAT      O52126   2.405   2.487   7.600
17295WAT     H152127   2.371   2.394   7.610
17295WAT     H252128   2.329   2.552   7.608
17296WAT      O52129   2.594   0.977   8.502
17296WAT     H152130   2.664   0.914   8.536
17296WAT     H252131   2.505   0.952   8.540
17297WAT      O52132   6.927   0.584   1.725
17297WAT     H152133   7.001   0.623   1.671
17297WAT     H252134   6.910   0.640   1.805
17298WAT      O52135   9.308   2.437   2.881
17298WAT     H152136   9.340   2.343   2.864
17298WAT     H252137   9.242   2.463   2.811
17299WAT      O52138   8.554   4.606   3.167
17299WAT     H152139   8.491   4.627   3.092
17299WAT     H252140   8.638   4.567   3.130
17300WAT      O52141   0.526   3.883   2.896
17300WAT     H152142   0.465   3.810   2.863
17300WAT     H252143   0.593   3.904   2.825
17301WAT      O52144   5.489   1.906   7.018
17301WAT     H152145   5.455   1.946   7.104
17301WAT     H252146   5.571   1.955   6.989
17302WAT      O52147   7.091   7.251   9.440
17302WAT     H152148   7.170   7.201   9.406
17302WAT     H252149   7.121   7.335   9.485
17303WAT      O52150   1.662   4.152   0.899
17303WAT     H152151   1.759   4.177   0.895
17303WAT     H252152   1.643   4.105   0.986
17304WAT      O52153   4.464   4.346   3.228
17304WAT     H152154   4.391   4.405   3.194
17304WAT     H252155   4.436   4.250   3.220
17305WAT      O52156   2.164   9.659   9.645
17305WAT     H152157   2.258   9.641   9.673
17305WAT     H252158   2.110   9.576   9.653
17306WAT      O52159   2.610   0.328   4.728
17306WAT     H152160   2.604   0.326   4.828
17306WAT     H252161   2.518   0.331   4.690
17307WAT      O52162   1.448   4.104   9.452
17307WAT     H152163   1.371   4.052   9.415
17307WAT     H252164   1.534   4.059   9.429
17308WAT      O52165   4.761   5.338   3.441
17308WAT     H152166   4.697   5.407   3.474
17308WAT     H252167   4.809   5.297   3.518
17309WAT      O52168   2.059   2.756   4.577
17309WAT     H152169   2.117   2.678   4.553
17309WAT     H252170   2.102   2.809   4.650
17310WAT      O52171   4.380   7.473   2.876
17310WAT     H152172   4.310   7.538   2.906
17310WAT     H252173   4.408   7.494   2.782
17311WAT      O52174   7.287   2.584   8.288
17311WAT     H152175   7.283   2.517   8.213
17311WAT     H252176   7.194   2.605   8.318
17312WAT      O52177   5.699   1.394   5.608
17312WAT     H152178   5.768   1.376   5.678
17312WAT     H252179   5.737   1.457   5.540
17313WAT      O52180   9.176   5.742   8.663
17313WAT     H152181   9.186   5.738   8.762
17313WAT     H252182   9.093   5.792   8.640
17314WAT      O52183   0.119   0.964   0.480
17314WAT     H152184   0.219   0.961   0.471
17314WAT     H252185   0.090   0.899   0.551
17315WAT      O52186   0.534   1.642   7.102
17315WAT     H152187   0.487   1.695   7.031
17315WAT     H252188   0.529   1.545   7.079
17316WAT      O52189   2.642   6.431   7.281
17316WAT     H152190   2.617   6.371   7.357
17316WAT     H252191   2.730   6.474   7.300
17317WAT      O52192   0.017   8.658   7.485
17317WAT     H152193   0.031   8.590   7.414
17317WAT     H252194  -0.023   8.615   7.566
17318WAT      O52195   0.892   1.095   3.763
17318WAT     H152196   0.886   1.118   3.666
17318WAT     H252197   0.987   1.072   3.785
17319WAT      O52198   3.142   0.846   1.283
17319WAT     H152199   3.218   0.893   1.327
17319WAT     H252200   3.174   0.758   1.247
17320WAT      O52201   8.102   3.884   9.586
17320WAT     H152202   8.128   3.887   9.490
17320WAT     H252203   8.079   3.977   9.617
17321WAT      O52204   4.296   4.308   7.163
17321WAT     H152205   4.282   4.254   7.246
17321WAT     H252206   4.234   4.386   7.163
17322WAT      O52207   8.096   0.816   0.777
17322WAT     H152208   8.146   0.794   0.860
17322WAT     H252209   8.077   0.914   0.774
17323WAT      O52210   5.464   6.976   3.737
17323WAT     H152211   5.471   6.888   3.783
17323WAT     H252212   5.372   6.987   3.700
17324WAT      O52213   0.028   8.299   4.584
17324WAT     H152214   0.017   8.385   4.634
17324WAT     H252215   0.000   8.223   4.643
17325WAT      O52216   6.881   6.768   3.685
17325WAT     H152217   6.834   6.821   3.756
17325WAT     H252218   6.939   6.699   3.728
17326WAT      O52219   8.987   1.958   8.228
17326WAT     H152220   9.075   1.962   8.180
17326WAT     H252221   8.942   1.871   8.208
17327WAT      O52222   0.376   6.236   4.322
17327WAT     H152223   0.321   6.318   4.307
17327WAT     H252224   0.408   6.201   4.234
17328WAT      O52225   2.689   4.912   5.259
17328WAT     H152226   2.590   4.912   5.273
17328WAT     H252227   2.718   4.823   5.223
17329WAT      O52228   3.819   9.427   6.746
17329WAT     H152229   3.901   9.417   6.689
17329WAT     H252230   3.832   9.503   6.810
17330WAT      O52231   4.145   8.426   4.351
17330WAT     H152232   4.236   8.427   4.310
17330WAT     H252233   4.106   8.334   4.345
17331WAT      O52234   3.096   4.150   1.228
17331WAT     H152235   3.136   4.084   1.292
17331WAT     H252236   3.097   4.241   1.268
17332WAT      O52237   3.400   0.375   7.476
17332WAT     H152238   3.405   0.472   7.451
17332WAT     H252239   3.481   0.328   7.443
17333WAT      O52240   7.949   2.982   5.489
17333WAT     H152241   8.007   2.932   5.425
17333WAT     H252242   7.892   3.047   5.439
17334WAT      O52243   2.314   8.888   9.268
17334WAT     H152244   2.305   8.914   9.172
17334WAT     H252245   2.287   8.793   9.280
17335WAT      O52246   0.482   8.469   7.307
17335WAT     H152247   0.412   8.406   7.339
17335WAT     H252248   0.550   8.482   7.379
17336WAT      O52249   2.477   1.374   8.281
17336WAT     H152250   2.530   1.336   8.357
17336WAT     H252251   2.393   1.414   8.318
17337WAT      O52252   8.461   8.169   0.578
17337WAT     H152253   8.537   8.232   0.562
17337WAT     H252254   8.492   8.092   0.634
17338WAT      O52255   6.232   2.636   6.631
17338WAT     H152256   6.261   2.557   6.578
17338WAT     H252257   6.276   2.719   6.594
17339WAT      O52258   5.348   7.462   3.616
17339WAT     H152259   5.276   7.435   3.553
17339WAT     H252260   5.433   7.415   3.593
17340WAT      O52261   7.139   7.916   4.304
17340WAT     H152262   7.099   7.849   4.241
17340WAT     H252263   7.077   7.929   4.381
17341WAT      O52264   5.584   9.501   6.697
17341WAT     H152265   5.633   9.471   6.616
17341WAT     H252266   5.636   9.573   6.744
17342WAT      O52267   6.639   0.764   5.423
17342WAT     H152268   6.612   0.708   5.345
17342WAT     H252269   6.660   0.705   5.500
17343WAT      O52270   8.140   2.316   2.605
17343WAT     H152271   8.111   2.229   2.645
17343WAT     H252272   8.060   2.376   2.595
17344WAT      O52273   6.474   6.963   7.054
17344WAT     H152274   6.410   6.987   6.982
17344WAT     H252275   6.566   6.952   7.015
17345WAT      O52276   3.701   0.154   4.446
17345WAT     H152277   3.675   0.088   4.375
17345WAT     H252278   3.723   0.241   4.403
17346WAT      O52279   7.200   0.241   3.636
17346WAT     H152280   7.197   0.197   3.725
17346WAT     H252281   7.193   0.172   3.564
17347WAT      O52282   8.783   5.772   2.932
17347WAT     H152283   8.723   5.842   2.971
17347WAT     H252284   8.812   5.709   3.004
17348WAT      O52285   7.125   4.942   5.974
17348WAT     H152286   7.122   4.888   6.058
17348WAT     H252287   7.053   4.913   5.912
17349WAT      O52288   7.679   5.099   8.821
17349WAT     H152289   7.691   5.182   8.877
17349WAT     H252290   7.755   5.090   8.757
17350WAT      O52291   1.816   8.278   4.542
17350WAT     H152292   1.755   8.301   4.465
17350WAT     H252293   1.783   8.195   4.586
17351WAT      O52294   5.034   9.375   0.891
17351WAT     H152295   4.934   9.365   0.895
17351WAT     H252296   5.070   9.382   0.984
17352WAT      O52297   5.750   1.607   3.058
17352WAT     H152298   5.839   1.648   3.079
17352WAT     H252299   5.679   1.655   3.108
17353WAT      O52300   4.877   5.204   8.922
17353WAT     H152301   4.805   5.213   8.991
17353WAT     H252302   4.857   5.263   8.845
17354WAT      O52303   1.433   3.297   5.159
17354WAT     H152304   1.468   3.278   5.067
17354WAT     H252305   1.443   3.394   5.179
17355WAT      O52306   3.681   5.465   9.257
17355WAT     H152307   3.741   5.540   9.283
17355WAT     H252308   3.615   5.497   9.189
17356WAT      O52309   1.120   3.394   3.076
17356WAT     H152310   1.138   3.321   3.142
17356WAT     H252311   1.200   3.408   3.019
17357WAT      O52312   9.610   5.161   0.877
17357WAT     H152313   9.599   5.133   0.973
17357WAT     H252314   9.531   5.131   0.825
17358WAT      O52315   2.911   2.357   6.125
17358WAT     H152316   2.977   2.281   6.125
17358WAT     H252317   2.948   2.433   6.179
17359WAT      O52318   0.492   1.876   2.130
17359WAT     H152319   0.498   1.940   2.053
17359WAT     H252320   0.449   1.791   2.099
17360WAT      O52321   8.403   6.062   5.255
17360WAT     H152322   8.319   6.033   5.209
17360WAT     H252323   8.384   6.138   5.316
17361WAT      O52324   0.962   3.717   6.676
17361WAT     H152325   1.054   3.758   6.674
17361WAT     H252326   0.894   3.790   6.673
17362WAT      O52327   5.973   0.833   2.511
17362WAT     H152328   5.905   0.851   2.581
17362WAT     H252329   6.042   0.906   2.511
17363WAT      O52330   3.974   9.791   7.475
17363WAT     H152331   4.004   9.883   7.503
17363WAT     H252332   4.050   9.727   7.483
17364WAT      O52333   1.056   4.958   4.611
17364WAT     H152334   1.133   4.945   4.674
17364WAT     H252335   1.037   4.873   4.563
17365WAT      O52336   4.762   0.726   0.521
17365WAT     H152337   4.854   0.689   0.508
17365WAT     H252338   4.699   0.653   0.546
17366WAT      O52339   6.064   9.241   8.335
17366WAT     H152340   6.136   9.295   8.378
17366WAT     H252341   6.082   9.234   8.237
17367WAT      O52342   9.294   6.709   4.727
17367WAT     H152343   9.295   6.762   4.643
17367WAT     H252344   9.205   6.665   4.738
17368WAT      O52345   8.711   1.162   7.518
17368WAT     H152346   8.620   1.136   7.550
17368WAT     H252347   8.777   1.094   7.548
17369WAT      O52348   7.627   2.611   7.832
17369WAT     H152349   7.661   2.633   7.740
17369WAT     H252350   7.629   2.512   7.845
17370WAT      O52351   3.158   2.569   7.005
17370WAT     H152352   3.250   2.546   6.972
17370WAT     H252353   3.104   2.605   6.930
17371WAT      O52354   0.193   5.332   7.039
17371WAT     H152355   0.220   5.283   7.122
17371WAT     H252356   0.205   5.430   7.054
17372WAT      O52357   9.242   0.053   4.820
17372WAT     H152358   9.212   0.115   4.748
17372WAT     H252359   9.167   0.036   4.883
17373WAT      O52360   7.907   2.400   8.259
17373WAT     H152361   7.888   2.389   8.161
17373WAT     H252362   7.838   2.459   8.300
17374WAT      O52363   6.575   9.114   8.782
17374WAT     H152364   6.667   9.152   8.798
17374WAT     H252365   6.539   9.076   8.867
17375WAT      O52366   6.472   3.482   1.068
17375WAT     H152367   6.405   3.554   1.090
17375WAT     H252368   6.423   3.399   1.042
17376WAT      O52369   4.985   0.117   0.215
17376WAT     H152370   4.908   0.126   0.279
17376WAT     H252371   5.046   0.044   0.247
17377WAT      O52372   3.400   8.029   2.199
17377WAT     H152373   3.348   8.110   2.226
17377WAT     H252374   3.478   8.057   2.143
17378WAT      O52375   7.069   9.679   1.223
17378WAT     H152376   7.042   9.626   1.304
17378WAT     H252377   7.133   9.751   1.250
17379WAT      O52378   2.172   4.628   6.632
17379WAT     H152379   2.099   4.659   6.571
17379WAT     H252380   2.181   4.529   6.625
17380WAT      O52381   6.434   8.058   2.131
17380WAT     H152382   6.506   8.128   2.132
17380WAT     H252383   6.345   8.103   2.124
17381WAT      O52384   9.142   1.253   3.791
17381WAT     H152385   9.186   1.178   3.742
17381WAT     H252386   9.178   1.256   3.885
17382WAT      O52387   8.145   7.667   2.899
17382WAT     H152388   8.142   7.585   2.842
17382WAT     H252389   8.094   7.741   2.855
17383WAT      O52390   4.846   4.268   6.697
17383WAT     H152391   4.815   4.332   6.768
17383WAT     H252392   4.803   4.179   6.711
17384WAT      O52393   6.579   3.067   5.380
17384WAT     H152394   6.651   3.055   5.311
17384WAT     H252395   6.576   2.987   5.440
17385WAT      O52396   5.132   7.378   0.964
17385WAT     H152397   5.217   7.364   1.015
17385WAT     H252398   5.065   7.422   1.023
17386WAT      O52399   2.579   3.560   3.391
17386WAT     H152400   2.646   3.509   3.446
17386WAT     H252401   2.595   3.541   3.294
17387WAT      O52402   3.496   3.170   7.098
17387WAT     H152403   3.468   3.104   7.168
17387WAT     H252404   3.488   3.129   7.008
17388WAT      O52405   4.370   5.112   2.068
17388WAT     H152406   4.410   5.146   2.153
17388WAT     H252407   4.399   5.017   2.054
17389WAT      O52408   7.584   5.189   7.946
17389WAT     H152409   7.532   5.246   7.882
17389WAT     H252410   7.660   5.146   7.897
17390WAT      O52411   0.469   0.356   2.797
17390WAT     H152412   0.524   0.371   2.878
17390WAT     H252413   0.453   0.258   2.785
17391WAT      O52414   2.878   1.184   9.589
17391WAT     H152415   2.947   1.233   9.535
17391WAT     H252416   2.815   1.249   9.630
17392WAT      O52417   8.236   2.841   2.800
17392WAT     H152418   8.162   2.794   2.752
17392WAT     H252419   8.290   2.775   2.852
17393WAT      O52420   4.788   0.411   3.093
17393WAT     H152421   4.723   0.452   3.158
17393WAT     H252422   4.872   0.465   3.091
17394WAT      O52423   7.639   3.182   5.523
17394WAT     H152424   7.659   3.123   5.445
17394WAT     H252425   7.547   3.221   5.513
17395WAT      O52426   6.399   2.247   6.381
17395WAT     H152427   6.413   2.271   6.285
17395WAT     H252428   6.462   2.173   6.407
17396WAT      O52429   3.082   6.734   4.783
17396WAT     H152430   3.044   6.761   4.694
17396WAT     H252431   3.110   6.815   4.833
17397WAT      O52432   8.835   2.994   2.463
17397WAT     H152433   8.884   2.999   2.550
17397WAT     H252434   8.874   3.061   2.399
17398WAT      O52435   0.063   7.603   5.041
17398WAT     H152436  -0.023   7.605   4.990
17398WAT     H252437   0.088   7.509   5.062
17399WAT      O52438   0.730   1.781   7.227
17399WAT     H152439   0.655   1.740   7.175
17399WAT     H252440   0.812   1.786   7.169
17400WAT      O52441   5.468   3.433   5.339
17400WAT     H152442   5.478   3.415   5.241
17400WAT     H252443   5.459   3.347   5.389
17401WAT      O52444   9.083   0.004   1.602
17401WAT     H152445   9.036   0.088   1.575
17401WAT     H252446   9.058  -0.019   1.696
17402WAT      O52447   9.227   2.362   5.700
17402WAT     H152448   9.216   2.461   5.712
17402WAT     H252449   9.288   2.344   5.622
17403WAT      O52450   6.951   1.648   6.349
17403WAT     H152451   6.891   1.674   6.425
17403WAT     H252452   6.908   1.673   6.262
17404WAT      O52453   6.186   8.642   3.029
17404WAT     H152454   6.267   8.584   3.024
17404WAT     H252455   6.189   8.698   3.112
17405WAT      O52456   3.393   0.452   9.421
17405WAT     H152457   3.447   0.458   9.337
17405WAT     H252458   3.453   0.422   9.496
17406WAT      O52459   9.559   5.308   5.432
17406WAT     H152460   9.629   5.268   5.492
17406WAT     H252461   9.484   5.344   5.488
17407WAT      O52462   1.664   4.950   8.620
17407WAT     H152463   1.645   4.894   8.540
17407WAT     H252464   1.579   4.990   8.654
17408WAT      O52465   3.629   2.889   6.091
17408WAT     H152466   3.623   2.983   6.057
17408WAT     H252467   3.664   2.889   6.184
17409WAT      O52468   3.316   6.309   9.542
17409WAT     H152469   3.342   6.269   9.454
17409WAT     H252470   3.286   6.403   9.529
17410WAT      O52471   7.229   7.097   5.789
17410WAT     H152472   7.285   7.095   5.707
17410WAT     H252473   7.244   7.014   5.842
17411WAT      O52474   5.345   6.829   6.696
17411WAT     H152475   5.362   6.906   6.758
17411WAT     H252476   5.255   6.790   6.715
17412WAT      O52477   5.675   5.180   8.216
17412WAT     H152478   5.770   5.180   8.183
17412WAT     H252479   5.671   5.216   8.309
17413WAT      O52480   8.028   8.497   1.498
17413WAT     H152481   8.125   8.473   1.494
17413WAT     H252482   8.010   8.574   1.438
17414WAT      O52483   8.994   6.988   1.482
17414WAT     H152484   8.958   6.921   1.547
17414WAT     H252485   9.074   6.949   1.435
17415WAT      O52486   7.967   5.970   6.865
17415WAT     H152487   8.056   6.014   6.854
17415WAT     H252488   7.904   6.005   6.795
17416WAT      O52489   8.751   1.409   3.654
17416WAT     H152490   8.789   1.452   3.572
17416WAT     H252491   8.815   1.420   3.730
17417WAT      O52492   3.697   7.797   0.487
17417WAT     H152493   3.603   7.784   0.519
17417WAT     H252494   3.751   7.839   0.561
17418WAT      O52495   6.649   9.482   0.847
17418WAT     H152496   6.642   9.425   0.765
17418WAT     H252497   6.710   9.559   0.828
17419WAT      O52498   1.567   4.138   2.656
17419WAT     H152499   1.549   4.063   2.720
17419WAT     H252500   1.610   4.102   2.573
17420WAT      O52501   1.592   1.798   1.339
17420WAT     H152502   1.639   1.867   1.285
17420WAT     H252503   1.530   1.843   1.404
17421WAT      O52504   9.085   9.028   2.708
17421WAT     H152505   9.067   9.019   2.610
17421WAT     H252506   9.087   9.125   2.733
17422WAT      O52507   3.638   4.373   0.547
17422WAT     H152508   3.664   4.469   0.543
17422WAT     H252509   3.597   4.353   0.636
17423WAT      O52510   3.359   1.736   4.732
17423WAT     H152511   3.304   1.819   4.728
17423WAT     H252512   3.449   1.753   4.691
17424WAT      O52513   8.102   7.398   2.766
17424WAT     H152514   8.177   7.345   2.805
17424WAT     H252515   8.019   7.384   2.820
17425WAT      O52516   9.398   0.097   3.038
17425WAT     H152517   9.419   0.173   3.099
17425WAT     H252518   9.330   0.126   2.970
17426WAT      O52519   7.127   1.655   4.518
17426WAT     H152520   7.092   1.574   4.566
17426WAT     H252521   7.147   1.727   4.585
17427WAT      O52522   1.394   9.505   8.765
17427WAT     H152523   1.429   9.516   8.859
17427WAT     H252524   1.446   9.564   8.703
17428WAT      O52525   5.369   0.533   6.383
17428WAT     H152526   5.407   0.563   6.296
17428WAT     H252527   5.320   0.610   6.425
17429WAT      O52528   1.025   6.397   6.437
17429WAT     H152529   0.953   6.435   6.380
17429WAT     H252530   1.110   6.389   6.384
17430WAT      O52531   2.614   8.846   6.540
17430WAT     H152532   2.518   8.852   6.511
17430WAT     H252533   2.635   8.921   6.602
17431WAT      O52534   6.929   0.558   3.127
17431WAT     H152535   6.931   0.496   3.205
17431WAT     H252536   6.834   0.576   3.100
17432WAT      O52537   0.210   1.716   3.455
17432WAT     H152538   0.144   1.745   3.386
17432WAT     H252539   0.302   1.714   3.416
17433WAT      O52540   6.065   5.703   0.231
17433WAT     H152541   6.101   5.790   0.264
17433WAT     H252542   5.975   5.718   0.189
17434WAT      O52543   8.207   4.819   7.938
17434WAT     H152544   8.234   4.905   7.895
17434WAT     H252545   8.264   4.804   8.019
17435WAT      O52546   9.323   5.286   9.068
17435WAT     H152547   9.398   5.242   9.117
17435WAT     H252548   9.290   5.364   9.122
17436WAT      O52549   3.482   9.704   8.282
17436WAT     H152550   3.385   9.684   8.290
17436WAT     H252551   3.501   9.746   8.193
17437WAT      O52552   6.317   0.800   8.042
17437WAT     H152553   6.381   0.726   8.066
17437WAT     H252554   6.231   0.760   8.011
17438WAT      O52555   6.596   2.130   0.482
17438WAT     H152556   6.570   2.085   0.567
17438WAT     H252557   6.695   2.145   0.481
17439WAT      O52558   7.074   4.971   1.971
17439WAT     H152559   7.082   5.011   2.062
17439WAT     H252560   7.128   5.024   1.906
17440WAT      O52561   1.731   8.871   6.383
17440WAT     H152562   1.720   8.773   6.367
17440WAT     H252563   1.779   8.884   6.470
17441WAT      O52564   0.975   4.119   6.841
17441WAT     H152565   1.001   4.105   6.745
17441WAT     H252566   0.880   4.151   6.845
17442WAT      O52567   7.392   8.392   7.738
17442WAT     H152568   7.403   8.352   7.829
17442WAT     H252569   7.295   8.398   7.715
17443WAT      O52570   1.831   4.670   5.887
17443WAT     H152571   1.732   4.682   5.879
17443WAT     H252572   1.853   4.637   5.979
17444WAT      O52573   3.618   5.380   9.754
17444WAT     H152574   3.538   5.392   9.696
17444WAT     H252575   3.678   5.310   9.715
17445WAT      O52576   5.615   0.554   6.645
17445WAT     H152577   5.700   0.548   6.697
17445WAT     H252578   5.636   0.588   6.553
17446WAT      O52579   1.820   5.159   1.785
17446WAT     H152580   1.872   5.164   1.700
17446WAT     H252581   1.769   5.072   1.788
17447WAT      O52582   4.601   5.339   3.196
17447WAT     H152583   4.564   5.431   3.203
17447WAT     H252584   4.665   5.322   3.271
17448WAT      O52585   9.334   8.659   8.035
17448WAT     H152586   9.263   8.720   7.997
17448WAT     H252587   9.291   8.590   8.093
17449WAT      O52588   3.195   4.453   5.555
17449WAT     H152589   3.149   4.446   5.467
17449WAT     H252590   3.292   4.471   5.541
17450WAT      O52591   7.305   5.828   6.166
17450WAT     H152592   7.336   5.755   6.106
17450WAT     H252593   7.338   5.812   6.259
17451WAT      O52594   4.975   2.849   1.749
17451WAT     H152595   5.057   2.859   1.805
17451WAT     H252596   4.894   2.847   1.808
17452WAT      O52597   1.929   3.440   9.168
17452WAT     H152598   1.852   3.493   9.133
17452WAT     H252599   1.902   3.344   9.176
17453WAT      O52600   7.641   1.079   8.051
17453WAT     H152601   7.583   1.153   8.086
17453WAT     H252602   7.730   1.117   8.025
17454WAT      O52603   3.787   8.235   7.332
17454WAT     H152604   3.695   8.268   7.315
17454WAT     H252605   3.786   8.135   7.341
17455WAT      O52606   3.254   3.150   4.243
17455WAT     H152607   3.274   3.240   4.281
17455WAT     H252608   3.244   3.084   4.318
17456WAT      O52609   7.650   6.090   3.917
17456WAT     H152610   7.671   6.047   4.005
17456WAT     H252611   7.626   6.186   3.932
17457WAT      O52612   1.530   2.235   8.971
17457WAT     H152613   1.582   2.316   8.998
17457WAT     H252614   1.439   2.239   9.012
17458WAT      O52615   2.838   2.749   6.682
17458WAT     H152616   2.872   2.840   6.703
17458WAT     H252617   2.740   2.754   6.661
17459WAT      O52618   7.969   9.701   6.515
17459WAT     H152619   7.952   9.715   6.613
17459WAT     H252620   8.033   9.625   6.503
17460WAT      O52621   3.314   6.728   7.660
17460WAT     H152622   3.380   6.768   7.723
17460WAT     H252623   3.268   6.650   7.703
17461WAT      O52624   8.661   1.430   9.865
17461WAT     H152625   8.686   1.468   9.777
17461WAT     H252626   8.608   1.497   9.917
17462WAT      O52627   6.660   8.953   0.853
17462WAT     H152628   6.612   8.866   0.838
17462WAT     H252629   6.736   8.939   0.917
17463WAT      O52630   6.592   2.219   8.168
17463WAT     H152631   6.574   2.242   8.072
17463WAT     H252632   6.687   2.191   8.179
17464WAT      O52633   3.954   3.335   6.227
17464WAT     H152634   4.030   3.394   6.256
17464WAT     H252635   3.873   3.359   6.280
17465WAT      O52636   5.879   4.335   7.909
17465WAT     H152637   5.952   4.399   7.884
17465WAT     H252638   5.799   4.353   7.853
17466WAT      O52639   8.470   5.015   0.961
17466WAT     H152640   8.397   4.961   1.004
17466WAT     H252641   8.509   5.077   1.029
17467WAT      O52642   2.266   8.201   0.934
17467WAT     H152643   2.241   8.185   0.838
17467WAT     H252644   2.365   8.207   0.942
17468WAT      O52645   2.325   6.361   2.100
17468WAT     H152646   2.422   6.335   2.104
17468WAT     H252647   2.268   6.279   2.111
17469WAT      O52648   6.161   9.278   5.399
17469WAT     H152649   6.075   9.323   5.375
17469WAT     H252650   6.203   9.240   5.316
17470WAT      O52651   8.336   8.878   8.265
17470WAT     H152652   8.426   8.890   8.306
17470WAT     H252653   8.303   8.966   8.230
17471WAT      O52654   2.303   6.887   0.396
17471WAT     H152655   2.381   6.920   0.343
17471WAT     H252656   2.223   6.943   0.375
17472WAT      O52657   2.827   0.460   7.278
17472WAT     H152658   2.728   0.479   7.274
17472WAT     H252659   2.843   0.380   7.336
17473WAT      O52660   3.389   7.951   0.024
17473WAT     H152661   3.340   7.866   0.040
17473WAT     H252662   3.460   7.963   0.094
17474WAT      O52663   2.044   1.572   5.742
17474WAT     H152664   2.126   1.629   5.733
17474WAT     H252665   1.993   1.600   5.823
17475WAT      O52666   8.705   5.013   6.983
17475WAT     H152667   8.774   5.077   7.017
17475WAT     H252668   8.746   4.954   6.914
17476WAT      O52669   1.966   7.327   1.212
17476WAT     H152670   2.018   7.323   1.297
17476WAT     H252671   1.931   7.236   1.190
17477WAT      O52672   9.512   6.961   9.800
17477WAT     H152673   9.413   6.958   9.789
17477WAT     H252674   9.545   6.874   9.837
17478WAT      O52675   1.190   4.620   5.611
17478WAT     H152676   1.201   4.623   5.711
17478WAT     H252677   1.126   4.548   5.587
17479WAT      O52678   8.440   4.180   1.341
17479WAT     H152679   8.444   4.242   1.420
17479WAT     H252680   8.424   4.232   1.258
17480WAT      O52681   9.651   9.277   1.457
17480WAT     H152682   9.682   9.303   1.548
17480WAT     H252683   9.573   9.334   1.431
17481WAT      O52684   5.597   0.845   7.530
17481WAT     H152685   5.529   0.918   7.527
17481WAT     H252686   5.587   0.787   7.449
17482WAT      O52687   5.443   3.826   4.745
17482WAT     H152688   5.533   3.852   4.779
17482WAT     H252689   5.385   3.797   4.822
17483WAT      O52690   0.658   9.601   8.651
17483WAT     H152691   0.648   9.518   8.705
17483WAT     H252692   0.586   9.606   8.583
17484WAT      O52693   1.313   5.331   6.430
17484WAT     H152694   1.401   5.301   6.468
17484WAT     H252695   1.316   5.328   6.330
17485WAT      O52696   8.605   9.427   5.795
17485WAT     H152697   8.672   9.398   5.727
17485WAT     H252698   8.642   9.503   5.849
17486WAT      O52699   4.640   8.221   5.701
17486WAT     H152700   4.657   8.241   5.798
17486WAT     H252701   4.711   8.265   5.645
17487WAT      O52702   4.667   5.312   0.098
17487WAT     H152703   4.751   5.322   0.045
17487WAT     H252704   4.612   5.238   0.060
17488WAT      O52705   7.426   3.399   5.305
17488WAT     H152706   7.383   3.344   5.376
17488WAT     H252707   7.393   3.370   5.215
17489WAT      O52708   0.863   4.763   2.328
17489WAT     H152709   0.857   4.863   2.327
17489WAT     H252710   0.959   4.736   2.315
17490WAT      O52711   6.295   9.234   8.111
17490WAT     H152712   6.370   9.228   8.178
17490WAT     H252713   6.299   9.322   8.065
17491WAT      O52714   8.228   2.476   7.344
17491WAT     H152715   8.252   2.489   7.248
17491WAT     H252716   8.129   2.482   7.355
17492WAT      O52717   0.157   0.507   7.995
17492WAT     H152718   0.193   0.539   7.908
17492WAT     H252719   0.065   0.544   8.010
17493WAT      O52720   2.886   6.563   5.817
17493WAT     H152721   2.898   6.504   5.737
17493WAT     H252722   2.942   6.529   5.893
17494WAT      O52723   4.181   6.792   0.868
17494WAT     H152724   4.090   6.766   0.838
17494WAT     H252725   4.248   6.768   0.798
17495WAT      O52726   4.495   1.759   0.996
17495WAT     H152727   4.463   1.781   0.904
17495WAT     H252728   4.542   1.839   1.035
17496WAT      O52729   6.636   6.614   7.040
17496WAT     H152730   6.646   6.595   6.942
17496WAT     H252731   6.567   6.553   7.079
17497WAT      O52732   2.819   2.795   7.374
17497WAT     H152733   2.789   2.788   7.279
17497WAT     H252734   2.918   2.810   7.377
17498WAT      O52735   5.559   1.250   8.946
17498WAT     H152736   5.543   1.179   8.877
17498WAT     H252737   5.483   1.315   8.946
17499WAT      O52738   3.633   1.881   7.079
17499WAT     H152739   3.640   1.781   7.083
17499WAT     H252740   3.725   1.920   7.067
17500WAT      O52741   6.748   2.718   9.087
17500WAT     H152742   6.709   2.766   9.165
17500WAT     H252743   6.675   2.683   9.029
17501WAT      O52744   9.103   5.101   7.073
17501WAT     H152745   9.170   5.060   7.011
17501WAT     H252746   9.134   5.090   7.167
17502WAT      O52747   0.370   0.628   1.621
17502WAT     H152748   0.423   0.710   1.599
17502WAT     H252749   0.274   0.642   1.596
17503WAT      O52750   4.128   3.120   0.196
17503WAT     H152751   4.032   3.119   0.167
17503WAT     H252752   4.134   3.090   0.291
17504WAT      O52753   3.311   3.328   5.165
17504WAT     H152754   3.343   3.301   5.256
17504WAT     H252755   3.298   3.246   5.109
17505WAT      O52756   3.796   0.914   7.374
17505WAT     H152757   3.886   0.941   7.409
17505WAT     H252758   3.761   0.838   7.428
17506WAT      O52759   4.609   2.545   0.347
17506WAT     H152760   4.574   2.626   0.298
17506WAT     H252761   4.603   2.465   0.287
17507WAT      O52762   9.062   9.190   8.698
17507WAT     H152763   9.101   9.263   8.754
17507WAT     H252764   9.127   9.165   8.626
17508WAT      O52765   1.763   6.077   2.845
17508WAT     H152766   1.720   6.115   2.927
17508WAT     H252767   1.801   5.987   2.867
17509WAT      O52768   2.300   0.939   5.045
17509WAT     H152769   2.321   1.037   5.051
17509WAT     H252770   2.201   0.927   5.047
17510WAT      O52771   4.612   5.698   6.072
17510WAT     H152772   4.688   5.715   6.009
17510WAT     H252773   4.525   5.717   6.026
17511WAT      O52774   2.943   4.045   7.684
17511WAT     H152775   2.891   4.117   7.731
17511WAT     H252776   2.922   3.957   7.726
17512WAT      O52777   2.921   4.217   5.222
17512WAT     H152778   2.841   4.273   5.199
17512WAT     H252779   2.935   4.148   5.151
17513WAT      O52780   6.304   2.127   7.545
17513WAT     H152781   6.214   2.169   7.550
17513WAT     H252782   6.369   2.181   7.600
17514WAT      O52783   4.967   2.077   6.933
17514WAT     H152784   4.925   2.165   6.957
17514WAT     H252785   4.917   2.003   6.975
17515WAT      O52786   4.850   8.217   9.786
17515WAT     H152787   4.937   8.238   9.830
17515WAT     H252788   4.775   8.242   9.847
17516WAT      O52789   2.901   5.120   5.229
17516WAT     H152790   2.832   5.050   5.249
17516WAT     H252791   2.867   5.210   5.258
17517WAT      O52792   9.628   8.121   1.712
17517WAT     H152793   9.555   8.167   1.762
17517WAT     H252794   9.717   8.151   1.747
17518WAT      O52795   9.729   8.560   5.495
17518WAT     H152796   9.813   8.556   5.549
17518WAT     H252797   9.725   8.648   5.447
17519WAT      O52798   9.613   7.892   6.348
17519WAT     H152799   9.595   7.924   6.255
17519WAT     H252800   9.690   7.829   6.348
17520WAT      O52801   2.539   0.232   1.254
17520WAT     H152802   2.583   0.311   1.296
17520WAT     H252803   2.607   0.176   1.207
17521WAT      O52804   9.116   5.654   7.499
17521WAT     H152805   9.168   5.701   7.571
17521WAT     H252806   9.028   5.624   7.537
17522WAT      O52807   6.419   0.802   8.550
17522WAT     H152808   6.378   0.853   8.625
17522WAT     H252809   6.373   0.825   8.464
17523WAT      O52810   0.122   3.936   9.277
17523WAT     H152811   0.068   3.853   9.259
17523WAT     H252812   0.164   3.967   9.192
17524WAT      O52813   8.851   4.587   9.751
17524WAT     H152814   8.810   4.504   9.713
17524WAT     H252815   8.796   4.667   9.725
17525WAT      O52816   0.008   4.394   9.191
17525WAT     H152817  -0.001   4.489   9.220
17525WAT     H252818  -0.005   4.334   9.269
17526WAT      O52819   6.732   7.590   7.191
17526WAT     H152820   6.727   7.665   7.256
17526WAT     H252821   6.824   7.586   7.152
17527WAT      O52822   3.447   1.733   3.576
17527WAT     H152823   3.457   1.684   3.489
17527WAT     H252824   3.509   1.693   3.644
17528WAT      O52825   7.435   0.073   5.599
17528WAT     H152826   7.386   0.160   5.594
17528WAT     H252827   7.389   0.005   5.542
17529WAT      O52828   2.019   9.407   6.317
17529WAT     H152829   1.935   9.439   6.274
17529WAT     H252830   2.033   9.456   6.403
17530WAT      O52831   0.546   3.950   8.411
17530WAT     H152832   0.484   4.027   8.427
17530WAT     H252833   0.505   3.886   8.347
17531WAT      O52834   0.082   2.264   8.632
17531WAT     H152835   0.056   2.215   8.549
17531WAT     H252836   0.181   2.265   8.641
17532WAT      O52837   6.942   2.705   4.021
17532WAT     H152838   6.879   2.630   4.000
17532WAT     H252839   6.996   2.682   4.102
17533WAT      O52840   4.601   7.276   2.205
17533WAT     H152841   4.648   7.224   2.276
17533WAT     H252842   4.532   7.335   2.247
17534WAT      O52843   4.493   8.676   1.264
17534WAT     H152844   4.450   8.667   1.174
17534WAT     H252845   4.549   8.759   1.266
17535WAT      O52846   7.350   2.033   8.345
17535WAT     H152847   7.442   2.016   8.309
17535WAT     H252848   7.356   2.095   8.423
17536WAT      O52849   2.151   2.182   5.655
17536WAT     H152850   2.146   2.281   5.669
17536WAT     H252851   2.188   2.139   5.738
17537WAT      O52852   8.554   2.609   8.816
17537WAT     H152853   8.521   2.534   8.872
17537WAT     H252854   8.496   2.619   8.735
17538WAT      O52855   7.652   7.122   3.691
17538WAT     H152856   7.619   7.033   3.660
17538WAT     H252857   7.580   7.168   3.742
17539WAT      O52858   0.350   5.991   6.611
17539WAT     H152859   0.444   5.956   6.613
17539WAT     H252860   0.348   6.080   6.656
17540WAT      O52861   3.762   7.708   6.885
17540WAT     H152862   3.752   7.675   6.978
17540WAT     H252863   3.796   7.634   6.826
17541WAT      O52864   3.953   9.269   3.857
17541WAT     H152865   3.978   9.354   3.905
17541WAT     H252866   3.896   9.213   3.917
17542WAT      O52867   7.388   3.061   6.054
17542WAT     H152868   7.357   3.151   6.025
17542WAT     H252869   7.480   3.068   6.092
17543WAT      O52870   8.920   0.965   0.993
17543WAT     H152871   8.893   1.061   1.003
17543WAT     H252872   8.965   0.951   0.905
17544WAT      O52873   2.622   4.740   0.729
17544WAT     H152874   2.534   4.787   0.738
17544WAT     H252875   2.614   4.668   0.661
17545WAT      O52876   3.387   7.488   5.769
17545WAT     H152877   3.411   7.552   5.695
17545WAT     H252878   3.469   7.464   5.821
17546WAT      O52879   8.593   0.889   8.739
17546WAT     H152880   8.498   0.902   8.712
17546WAT     H252881   8.638   0.978   8.749
17547WAT      O52882   8.957   7.927   5.266
17547WAT     H152883   8.942   7.954   5.361
17547WAT     H252884   8.892   7.856   5.240
17548WAT      O52885   6.557   9.141   7.183
17548WAT     H152886   6.536   9.177   7.273
17548WAT     H252887   6.474   9.106   7.140
17549WAT      O52888   3.525   2.303   6.794
17549WAT     H152889   3.428   2.284   6.784
17549WAT     H252890   3.572   2.282   6.708
17550WAT      O52891   6.895   7.395   5.304
17550WAT     H152892   6.966   7.324   5.311
17550WAT     H252893   6.899   7.436   5.213
17551WAT      O52894   6.981   2.997   7.357
17551WAT     H152895   7.072   2.955   7.359
17551WAT     H252896   6.948   3.000   7.262
17552WAT      O52897   0.301   0.471   7.217
17552WAT     H152898   0.345   0.556   7.244
17552WAT     H252899   0.224   0.452   7.278
17553WAT      O52900   2.018   1.302   6.686
17553WAT     H152901   1.944   1.239   6.664
17553WAT     H252902   2.060   1.275   6.773
17554WAT      O52903   2.009   2.627   2.197
17554WAT     H152904   1.964   2.620   2.108
17554WAT     H252905   2.087   2.565   2.200
17555WAT      O52906   7.454   6.070   7.694
17555WAT     H152907   7.361   6.032   7.696
17555WAT     H252908   7.476   6.108   7.784
17556WAT      O52909   5.511   0.797   4.458
17556WAT     H152910   5.505   0.782   4.557
17556WAT     H252911   5.451   0.873   4.432
17557WAT      O52912   0.198   7.593   4.617
17557WAT     H152913   0.187   7.516   4.680
17557WAT     H252914   0.294   7.620   4.614
17558WAT      O52915   6.449   6.602   6.649
17558WAT     H152916   6.395   6.685   6.638
17558WAT     H252917   6.422   6.535   6.580
17559WAT      O52918   2.195   4.252   5.634
17559WAT     H152919   2.214   4.226   5.729
17559WAT     H252920   2.278   4.290   5.593
17560WAT      O52921   4.786   2.402   2.385
17560WAT     H152922   4.822   2.452   2.306
17560WAT     H252923   4.738   2.320   2.353
17561WAT      O52924   7.490   6.615   0.639
17561WAT     H152925   7.523   6.539   0.582
17561WAT     H252926   7.433   6.676   0.583
17562WAT      O52927   0.299   2.234   6.592
17562WAT     H152928   0.328   2.296   6.665
17562WAT     H252929   0.262   2.287   6.516
17563WAT      O52930   9.385   3.160   3.177
17563WAT     H152931   9.338   3.245   3.156
17563WAT     H252932   9.449   3.175   3.252
17564WAT      O52933   7.980   6.288   2.863
17564WAT     H152934   7.971   6.237   2.778
17564WAT     H252935   8.075   6.315   2.877
17565WAT      O52936   3.062   7.428   4.728
17565WAT     H152937   3.131   7.453   4.661
17565WAT     H252938   2.976   7.475   4.707
17566WAT      O52939   7.997   9.430   0.210
17566WAT     H152940   8.023   9.449   0.115
17566WAT     H252941   7.966   9.514   0.254
17567WAT      O52942   5.320   2.906   7.930
17567WAT     H152943   5.297   2.978   7.865
17567WAT     H252944   5.252   2.905   8.004
17568WAT      O52945   1.024   4.145   6.529
17568WAT     H152946   1.073   4.226   6.498
17568WAT     H252947   1.077   4.063   6.507
17569WAT      O52948   1.754   8.819   0.419
17569WAT     H152949   1.656   8.803   0.420
17569WAT     H252950   1.777   8.888   0.350
17570WAT      O52951   8.251   9.375   0.322
17570WAT     H152952   8.166   9.344   0.280
17570WAT     H252953   8.240   9.470   0.353
17571WAT      O52954   6.843   4.866   3.104
17571WAT     H152955   6.873   4.956   3.135
17571WAT     H252956   6.919   4.801   3.113
17572WAT      O52957   2.871   6.483   8.737
17572WAT     H152958   2.929   6.403   8.722
17572WAT     H252959   2.788   6.475   8.682
17573WAT      O52960   8.186   0.319   1.687
17573WAT     H152961   8.086   0.329   1.692
17573WAT     H252962   8.221   0.377   1.614
17574WAT      O52963   9.156   8.010   2.578
17574WAT     H152964   9.209   8.036   2.498
17574WAT     H252965   9.200   7.933   2.624
17575WAT      O52966   4.513   5.890   7.605
17575WAT     H152967   4.553   5.970   7.561
17575WAT     H252968   4.536   5.808   7.552
17576WAT      O52969   1.418   3.012   7.304
17576WAT     H152970   1.487   2.986   7.372
17576WAT     H252971   1.391   3.107   7.319
17577WAT      O52972   6.256   0.739   4.881
17577WAT     H152973   6.342   0.746   4.831
17577WAT     H252974   6.186   0.793   4.835
17578WAT      O52975   9.068   8.935   3.318
17578WAT     H152976   9.023   9.008   3.267
17578WAT     H252977   9.145   8.973   3.369
17579WAT      O52978   8.581   7.173   4.680
17579WAT     H152979   8.501   7.162   4.739
17579WAT     H252980   8.560   7.234   4.604
17580WAT      O52981   1.177   2.049   5.231
17580WAT     H152982   1.276   2.042   5.242
17580WAT     H252983   1.154   2.134   5.184
17581WAT      O52984   6.742   3.680   6.759
17581WAT     H152985   6.787   3.592   6.751
17581WAT     H252986   6.673   3.676   6.832
17582WAT      O52987   9.384   2.625   8.687
17582WAT     H152988   9.474   2.622   8.643
17582WAT     H252989   9.356   2.533   8.713
17583WAT      O52990   2.681   7.458   8.359
17583WAT     H152991   2.740   7.466   8.278
17583WAT     H252992   2.661   7.549   8.395
17584WAT      O52993   8.079   8.755   7.228
17584WAT     H152994   8.162   8.762   7.282
17584WAT     H252995   8.025   8.677   7.260
17585WAT      O52996   3.014   5.135   2.829
17585WAT     H152997   2.950   5.063   2.858
17585WAT     H252998   3.100   5.124   2.878
17586WAT      O52999   0.782   5.192   5.930
17586WAT     H153000   0.710   5.184   5.861
17586WAT     H253001   0.750   5.249   6.006
17587WAT      O53002   1.671   0.084   8.409
17587WAT     H153003   1.584   0.061   8.364
17587WAT     H253004   1.654   0.109   8.504
17588WAT      O53005   1.581   2.456   1.202
17588WAT     H153006   1.529   2.495   1.278
17588WAT     H253007   1.544   2.366   1.179
17589WAT      O53008   6.385   0.041   9.259
17589WAT     H153009   6.409  -0.052   9.288
17589WAT     H253010   6.421   0.107   9.325
17590WAT      O53011   7.624   0.060   7.368
17590WAT     H153012   7.590   0.045   7.275
17590WAT     H253013   7.724   0.067   7.366
17591WAT      O53014   4.270   9.142   4.899
17591WAT     H153015   4.220   9.108   4.978
17591WAT     H253016   4.210   9.201   4.845
17592WAT      O53017   7.491   9.771   4.623
17592WAT     H153018   7.427   9.705   4.583
17592WAT     H253019   7.447   9.818   4.699
17593WAT      O53020   1.310   3.390   7.005
17593WAT     H153021   1.229   3.448   6.999
17593WAT     H253022   1.291   3.301   6.963
17594WAT      O53023   3.737   9.215   1.241
17594WAT     H153024   3.645   9.249   1.224
17594WAT     H253025   3.736   9.151   1.318
17595WAT      O53026   0.596   4.941   2.055
17595WAT     H153027   0.525   5.006   2.030
17595WAT     H253028   0.633   4.964   2.145
17596WAT      O53029   4.890   8.670   3.512
17596WAT     H153030   4.927   8.762   3.505
17596WAT     H253031   4.922   8.628   3.598
17597WAT      O53032   7.182   1.676   6.523
17597WAT     H153033   7.107   1.636   6.470
17597WAT     H253034   7.268   1.661   6.474
17598WAT      O53035   5.142   7.512   2.187
17598WAT     H153036   5.217   7.448   2.204
17598WAT     H253037   5.174   7.605   2.203
17599WAT      O53038   0.999   2.870   3.971
17599WAT     H153039   0.926   2.851   3.905
17599WAT     H253040   0.988   2.810   4.051
17600WAT      O53041   6.188   7.576   1.957
17600WAT     H153042   6.204   7.633   2.037
17600WAT     H253043   6.109   7.517   1.974
17601WAT      O53044   5.897   8.431   8.964
17601WAT     H153045   5.975   8.422   9.026
17601WAT     H253046   5.822   8.477   9.012
17602WAT      O53047   3.789   8.604   8.198
17602WAT     H153048   3.770   8.527   8.259
17602WAT     H253049   3.884   8.600   8.168
17603WAT      O53050   5.179   2.237   5.749
17603WAT     H153051   5.120   2.165   5.710
17603WAT     H253052   5.258   2.194   5.792
17604WAT      O53053   1.056   3.316   8.241
17604WAT     H153054   1.104   3.339   8.325
17604WAT     H253055   0.967   3.362   8.240
17605WAT      O53056   4.434   9.422   9.890
17605WAT     H153057   4.506   9.353   9.889
17605WAT     H253058   4.407   9.445   9.796
17606WAT      O53059   6.669   1.406   1.165
17606WAT     H153060   6.702   1.345   1.093
17606WAT     H253061   6.600   1.359   1.220
17607WAT      O53062   7.517   8.202   5.396
17607WAT     H153063   7.497   8.107   5.420
17607WAT     H253064   7.543   8.253   5.479
17608WAT      O53065   3.834   1.223   7.233
17608WAT     H153066   3.736   1.224   7.249
17608WAT     H253067   3.869   1.130   7.242
17609WAT      O53068  -0.001   1.599   0.501
17609WAT     H153069   0.031   1.535   0.431
17609WAT     H253070   0.077   1.646   0.542
17610WAT      O53071   0.121   5.490   0.713
17610WAT     H153072   0.159   5.553   0.646
17610WAT     H253073   0.103   5.401   0.670
17611WAT      O53074   8.480   7.069   6.797
17611WAT     H153075   8.461   7.040   6.891
17611WAT     H253076   8.514   6.992   6.744
17612WAT      O53077   8.075   4.935   7.089
17612WAT     H153078   8.015   4.857   7.106
17612WAT     H253079   8.131   4.917   7.008
17613WAT      O53080   6.140   5.771   2.698
17613WAT     H153081   6.172   5.775   2.603
17613WAT     H253082   6.084   5.690   2.712
17614WAT      O53083   1.790   1.221   6.082
17614WAT     H153084   1.696   1.252   6.069
17614WAT     H253085   1.799   1.127   6.050
17615WAT      O53086   2.468   0.135   3.371
17615WAT     H153087   2.389   0.110   3.316
17615WAT     H253088   2.552   0.122   3.318
17616WAT      O53089   9.556   9.783   1.415
17616WAT     H153090   9.648   9.743   1.409
17616WAT     H253091   9.562   9.872   1.461
17617WAT      O53092   5.870   3.006   3.493
17617WAT     H153093   5.866   2.990   3.591
17617WAT     H253094   5.964   2.998   3.461
17618WAT      O53095   1.977   5.708   3.948
17618WAT     H153096   1.922   5.660   4.016
17618WAT     H253097   2.061   5.657   3.931
17619WAT      O53098   2.951   8.803   9.521
17619WAT     H153099   3.022   8.748   9.476
17619WAT     H253100   2.994   8.879   9.570
17620WAT      O53101   7.445   0.244   7.452
17620WAT     H153102   7.509   0.176   7.416
17620WAT     H253103   7.416   0.305   7.378
17621WAT      O53104   1.707   9.206   0.747
17621WAT     H153105   1.753   9.121   0.721
17621WAT     H253106   1.737   9.234   0.838
17622WAT      O53107   9.387   4.390   3.767
17622WAT     H153108   9.337   4.382   3.853
17622WAT     H253109   9.348   4.464   3.712
17623WAT      O53110   1.944   8.863   3.656
17623WAT     H153111   1.851   8.895   3.638
17623WAT     H253112   1.997   8.866   3.572
17624WAT      O53113   6.955   7.075   0.232
17624WAT     H153114   6.920   6.995   0.281
17624WAT     H253115   6.882   7.142   0.221
17625WAT      O53116   2.156   6.845   6.740
17625WAT     H153117   2.094   6.828   6.817
17625WAT     H253118   2.190   6.938   6.745
17626WAT      O53119   1.659   2.387   8.440
17626WAT     H153120   1.578   2.438   8.468
17626WAT     H253121   1.658   2.296   8.481
17627WAT      O53122   4.561   5.658   2.461
17627WAT     H153123   4.574   5.591   2.534
17627WAT     H253124   4.477   5.639   2.412
17628WAT      O53125   7.682   7.825   5.325
17628WAT     H153126   7.694   7.917   5.288
17628WAT     H253127   7.772   7.786   5.347
17629WAT      O53128   1.262   1.444   1.372
17629WAT     H153129   1.238   1.507   1.447
17629WAT     H253130   1.346   1.396   1.396
17630WAT      O53131   1.453   4.553   0.713
17630WAT     H153132   1.436   4.460   0.680
17630WAT     H253133   1.450   4.553   0.813
17631WAT      O53134   2.412   2.015   3.490
17631WAT     H153135   2.465   2.062   3.560
17631WAT     H253136   2.315   2.016   3.515
17632WAT      O53137   0.584   2.092   4.140
17632WAT     H153138   0.618   2.172   4.092
17632WAT     H253139   0.613   2.009   4.092
17633WAT      O53140   5.928   4.049   8.872
17633WAT     H153141   5.844   4.037   8.820
17633WAT     H253142   5.970   4.136   8.847
17634WAT      O53143   1.285   1.814   7.864
17634WAT     H153144   1.295   1.777   7.956
17634WAT     H253145   1.336   1.758   7.800
17635WAT      O53146   8.987   7.872   9.048
17635WAT     H153147   8.921   7.797   9.044
17635WAT     H253148   9.003   7.898   9.143
17636WAT      O53149   2.510   9.458   1.769
17636WAT     H153150   2.540   9.536   1.824
17636WAT     H253151   2.519   9.374   1.822
17637WAT      O53152   5.803   5.565   6.819
17637WAT     H153153   5.834   5.534   6.908
17637WAT     H253154   5.878   5.614   6.773
17638WAT      O53155   0.954   9.074   9.786
17638WAT     H153156   0.942   9.167   9.820
17638WAT     H253157   0.914   9.068   9.694
17639WAT      O53158   0.495   9.087   9.076
17639WAT     H153159   0.502   9.054   9.170
17639WAT     H253160   0.401   9.114   9.057
17640WAT      O53161   0.360   8.343   0.695
17640WAT     H153162   0.355   8.438   0.727
17640WAT     H253163   0.312   8.336   0.607
17641WAT      O53164   5.333   8.933   0.820
17641WAT     H153165   5.433   8.929   0.826
17641WAT     H253166   5.297   8.842   0.801
17642WAT      O53167   2.942   6.714   7.752
17642WAT     H153168   2.923   6.644   7.683
17642WAT     H253169   2.994   6.788   7.710
17643WAT      O53170   3.846   8.107   4.089
17643WAT     H153171   3.812   8.101   3.995
17643WAT     H253172   3.933   8.157   4.089
17644WAT      O53173   6.865   8.705   7.523
17644WAT     H153174   6.782   8.736   7.570
17644WAT     H253175   6.840   8.659   7.438
17645WAT      O53176   9.050   2.764   2.594
17645WAT     H153177   9.037   2.665   2.583
17645WAT     H253178   9.066   2.805   2.504
17646WAT      O53179   8.467   5.949   9.287
17646WAT     H153180   8.426   5.949   9.378
17646WAT     H253181   8.450   5.861   9.243
17647WAT      O53182   4.805   3.636   2.222
17647WAT     H153183   4.709   3.609   2.215
17647WAT     H253184   4.861   3.555   2.243
17648WAT      O53185   4.284   1.657   8.038
17648WAT     H153186   4.236   1.673   7.951
17648WAT     H253187   4.274   1.561   8.064
17649WAT      O53188   6.794   9.164   4.073
17649WAT     H153189   6.766   9.092   4.010
17649WAT     H253190   6.894   9.173   4.070
17650WAT      O53191   1.150   6.585   1.771
17650WAT     H153192   1.229   6.644   1.785
17650WAT     H253193   1.150   6.552   1.676
17651WAT      O53194   3.477   6.678   7.044
17651WAT     H153195   3.515   6.693   6.953
17651WAT     H253196   3.377   6.671   7.038
17652WAT      O53197   6.350   8.771   9.065
17652WAT     H153198   6.354   8.677   9.097
17652WAT     H253199   6.309   8.773   8.974
17653WAT      O53200   2.118   8.234   7.921
17653WAT     H153201   2.177   8.153   7.918
17653WAT     H253202   2.031   8.210   7.965
17654WAT      O53203   2.075   7.835   2.157
17654WAT     H153204   2.136   7.768   2.114
17654WAT     H253205   2.126   7.888   2.224
17655WAT      O53206   2.523   4.666   3.044
17655WAT     H153207   2.510   4.736   2.974
17655WAT     H253208   2.527   4.576   3.000
17656WAT      O53209   5.394   0.556   4.137
17656WAT     H153210   5.386   0.554   4.037
17656WAT     H253211   5.417   0.464   4.170
17657WAT      O53212   7.571   5.616   0.875
17657WAT     H153213   7.521   5.530   0.884
17657WAT     H253214   7.522   5.676   0.811
17658WAT      O53215   0.554   1.587   9.329
17658WAT     H153216   0.495   1.576   9.409
17658WAT     H253217   0.623   1.657   9.347
17659WAT      O53218   6.943   3.501   7.881
17659WAT     H153219   7.020   3.458   7.928
17659WAT     H253220   6.955   3.492   7.782
17660WAT      O53221   4.949   4.764   5.194
17660WAT     H153222   4.878   4.711   5.242
17660WAT     H253223   5.036   4.715   5.199
17661WAT      O53224   7.777   7.694   5.755
17661WAT     H153225   7.749   7.619   5.695
17661WAT     H253226   7.821   7.765   5.702
17662WAT      O53227   9.402   8.859   3.162
17662WAT     H153228   9.366   8.776   3.203
17662WAT     H253229   9.328   8.910   3.118
17663WAT      O53230   8.703   6.506   1.920
17663WAT     H153231   8.630   6.448   1.885
17663WAT     H253232   8.676   6.544   2.008
17664WAT      O53233   9.721   0.765   2.562
17664WAT     H153234   9.693   0.854   2.597
17664WAT     H253235   9.710   0.763   2.462
17665WAT      O53236   0.122   7.374   1.203
17665WAT     H153237   0.215   7.409   1.213
17665WAT     H253238   0.094   7.328   1.287
17666WAT      O53239   7.477   2.307   1.862
17666WAT     H153240   7.493   2.404   1.850
17666WAT     H253241   7.379   2.290   1.870
17667WAT      O53242   9.558   4.572   7.158
17667WAT     H153243   9.468   4.600   7.192
17667WAT     H253244   9.558   4.473   7.142
17668WAT      O53245   5.281   1.944   9.326
17668WAT     H153246   5.247   2.035   9.351
17668WAT     H253247   5.204   1.887   9.296
17669WAT      O53248   5.228   9.289   1.622
17669WAT     H153249   5.313   9.235   1.627
17669WAT     H253250   5.199   9.315   1.714
17670WAT      O53251   2.346   1.689   1.404
17670WAT     H153252   2.330   1.649   1.494
17670WAT     H253253   2.310   1.628   1.333
17671WAT      O53254   4.909   9.575   2.696
17671WAT     H153255   4.877   9.668   2.675
17671WAT     H253256   4.856   9.539   2.773
17672WAT      O53257   2.787   5.944   1.085
17672WAT     H153258   2.877   5.923   1.046
17672WAT     H253259   2.798   6.013   1.157
17673WAT      O53260   1.161   9.205   2.642
17673WAT     H153261   1.162   9.189   2.740
17673WAT     H253262   1.081   9.261   2.618
17674WAT      O53263   5.969   0.869   4.165
17674WAT     H153264   5.976   0.902   4.071
17674WAT     H253265   5.875   0.845   4.186
17675WAT      O53266   2.201   0.036   2.970
17675WAT     H153267   2.122   0.041   2.909
17675WAT     H253268   2.213  -0.059   2.999
17676WAT      O53269   1.411   3.455   9.749
17676WAT     H153270   1.479   3.449   9.676
17676WAT     H253271   1.450   3.506   9.826
17677WAT      O53272   5.400   0.652   6.903
17677WAT     H153273   5.307   0.681   6.882
17677WAT     H253274   5.458   0.732   6.916
17678WAT      O53275   6.529   9.801   0.989
17678WAT     H153276   6.531   9.726   1.054
17678WAT     H253277   6.613   9.802   0.935
17679WAT      O53278   0.610   7.418   4.677
17679WAT     H153279   0.651   7.437   4.766
17679WAT     H253280   0.516   7.454   4.676
17680WAT      O53281   7.544   6.497   6.761
17680WAT     H153282   7.630   6.470   6.717
17680WAT     H253283   7.563   6.531   6.853
17681WAT      O53284   0.237   3.858   8.724
17681WAT     H153285   0.264   3.954   8.714
17681WAT     H253286   0.177   3.833   8.648
17682WAT      O53287   0.134   2.602   8.550
17682WAT     H153288   0.053   2.550   8.578
17682WAT     H253289   0.110   2.699   8.543
17683WAT      O53290   0.107   8.322   8.161
17683WAT     H153291   0.095   8.405   8.107
17683WAT     H253292   0.149   8.251   8.105
17684WAT      O53293   4.251   4.491   9.857
17684WAT     H153294   4.266   4.581   9.816
17684WAT     H253295   4.337   4.440   9.857
17685WAT      O53296   4.551   3.253   6.355
17685WAT     H153297   4.551   3.346   6.319
17685WAT     H253298   4.635   3.239   6.408
17686WAT      O53299   0.214   4.226   5.342
17686WAT     H153300   0.222   4.169   5.424
17686WAT     H253301   0.286   4.200   5.277
17687WAT      O53302   4.101   8.062   2.047
17687WAT     H153303   4.161   8.040   1.970
17687WAT     H253304   4.132   8.013   2.129
17688WAT      O53305   2.868   7.410   6.404
17688WAT     H153306   2.869   7.351   6.323
17688WAT     H253307   2.931   7.486   6.390
17689WAT      O53308   2.875   4.483   1.719
17689WAT     H153309   2.962   4.470   1.767
17689WAT     H253310   2.883   4.451   1.625
17690WAT      O53311   1.698   5.674   0.792
17690WAT     H153312   1.669   5.584   0.825
17690WAT     H253313   1.617   5.725   0.762
17691WAT      O53314   0.161   0.080   6.739
17691WAT     H153315   0.173   0.127   6.826
17691WAT     H253316   0.134  -0.015   6.755
17692WAT      O53317   1.773   8.353   9.482
17692WAT     H153318   1.786   8.395   9.572
17692WAT     H253319   1.763   8.425   9.413
17693WAT      O53320   8.490   3.300   6.519
17693WAT     H153321   8.503   3.308   6.618
17693WAT     H253322   8.392   3.305   6.498
17694WAT      O53323   7.450   0.405   0.427
17694WAT     H153324   7.487   0.452   0.507
17694WAT     H253325   7.353   0.428   0.417
17695WAT      O53326   0.881   1.559   6.538
17695WAT     H153327   0.876   1.512   6.450
17695WAT     H253328   0.955   1.521   6.592
17696WAT      O53329   1.703   3.683   4.557
17696WAT     H153330   1.679   3.671   4.653
17696WAT     H253331   1.685   3.599   4.507
17697WAT      O53332   6.184   8.614   7.412
17697WAT     H153333   6.229   8.693   7.371
17697WAT     H253334   6.179   8.626   7.511
17698WAT      O53335   6.932   6.759   8.292
17698WAT     H153336   6.960   6.775   8.198
17698WAT     H253337   7.012   6.732   8.346
17699WAT      O53338   0.329   4.698   3.478
17699WAT     H153339   0.257   4.694   3.547
17699WAT     H253340   0.401   4.759   3.508
17700WAT      O53341   0.118   4.902   9.708
17700WAT     H153342   0.058   4.943   9.776
17700WAT     H253343   0.093   4.935   9.617
17701WAT      O53344   3.305   5.618   0.038
17701WAT     H153345   3.260   5.528   0.036
17701WAT     H253346   3.239   5.688   0.012
17702WAT      O53347   7.849   7.917   9.820
17702WAT     H153348   7.851   7.971   9.904
17702WAT     H253349   7.928   7.856   9.818
17703WAT      O53350   7.615   7.593   6.519
17703WAT     H153351   7.535   7.537   6.539
17703WAT     H253352   7.698   7.538   6.533
17704WAT      O53353   0.518   0.042   1.137
17704WAT     H153354   0.460   0.019   1.059
17704WAT     H253355   0.614   0.029   1.111
17705WAT      O53356   0.328   3.732   6.843
17705WAT     H153357   0.385   3.793   6.789
17705WAT     H253358   0.384   3.658   6.880
17706WAT      O53359   3.926   7.712   1.920
17706WAT     H153360   3.941   7.663   2.006
17706WAT     H253361   3.923   7.810   1.938
17707WAT      O53362   2.391   3.020   8.839
17707WAT     H153363   2.329   2.969   8.898
17707WAT     H253364   2.426   3.100   8.887
17708WAT      O53365   7.987   5.150   2.547
17708WAT     H153366   8.059   5.216   2.525
17708WAT     H253367   7.990   5.075   2.481
17709WAT      O53368   3.267   6.245   2.726
17709WAT     H153369   3.192   6.279   2.669
17709WAT     H253370   3.350   6.235   2.670
17710WAT      O53371   8.068   7.512   9.664
17710WAT     H153372   8.068   7.445   9.589
17710WAT     H253373   8.102   7.468   9.747
17711WAT      O53374   8.644   7.288   5.018
17711WAT     H153375   8.722   7.313   4.960
17711WAT     H253376   8.612   7.369   5.067
17712WAT      O53377   5.028   0.611   3.019
17712WAT     H153378   4.940   0.657   3.006
17712WAT     H253379   5.100   0.664   2.973
17713WAT      O53380   2.650   2.082   0.831
17713WAT     H153381   2.624   2.133   0.913
17713WAT     H253382   2.741   2.042   0.843
17714WAT      O53383   1.169   6.666   0.599
17714WAT     H153384   1.104   6.610   0.548
17714WAT     H253385   1.262   6.637   0.578
17715WAT      O53386   6.374   8.981   3.991
17715WAT     H153387   6.425   8.953   4.072
17715WAT     H253388   6.361   8.903   3.931
17716WAT      O53389   3.150   5.067   5.608
17716WAT     H153390   3.141   4.978   5.564
17716WAT     H253391   3.211   5.125   5.555
17717WAT      O53392   8.968   6.474   4.279
17717WAT     H153393   8.885   6.491   4.333
17717WAT     H253394   9.048   6.507   4.329
17718WAT      O53395   3.340   5.608   3.678
17718WAT     H153396   3.412   5.583   3.742
17718WAT     H253397   3.290   5.687   3.713
17719WAT      O53398   7.418   2.693   9.593
17719WAT     H153399   7.406   2.619   9.659
17719WAT     H253400   7.511   2.728   9.598
17720WAT      O53401   6.254   6.970   2.638
17720WAT     H153402   6.270   7.006   2.730
17720WAT     H253403   6.223   7.044   2.578
17721WAT      O53404   5.734   1.484   6.486
17721WAT     H153405   5.714   1.535   6.569
17721WAT     H253406   5.649   1.455   6.442
17722WAT      O53407   8.185   4.743   9.092
17722WAT     H153408   8.094   4.752   9.051
17722WAT     H253409   8.207   4.826   9.143
17723WAT      O53410   8.782   5.740   5.181
17723WAT     H153411   8.764   5.810   5.111
17723WAT     H253412   8.871   5.758   5.223
17724WAT      O53413   5.029   5.730   7.268
17724WAT     H153414   4.959   5.674   7.224
17724WAT     H253415   5.004   5.827   7.260
17725WAT      O53416   2.072   8.958   9.810
17725WAT     H153417   2.142   8.889   9.791
17725WAT     H253418   2.106   9.023   9.878
17726WAT      O53419   5.463   4.850   3.339
17726WAT     H153420   5.492   4.816   3.428
17726WAT     H253421   5.467   4.950   3.338
17727WAT      O53422   6.449   0.551   0.469
17727WAT     H153423   6.369   0.576   0.523
17727WAT     H253424   6.439   0.457   0.436
17728WAT      O53425   1.690   2.845   3.075
17728WAT     H153426   1.616   2.796   3.029
17728WAT     H253427   1.696   2.814   3.170
17729WAT      O53428   2.343   8.847   2.502
17729WAT     H153429   2.246   8.833   2.483
17729WAT     H253430   2.398   8.782   2.448
17730WAT      O53431   3.314   1.073   0.683
17730WAT     H153432   3.372   1.000   0.647
17730WAT     H253433   3.220   1.059   0.651
17731WAT      O53434   0.812   7.749   7.647
17731WAT     H153435   0.742   7.711   7.707
17731WAT     H253436   0.792   7.723   7.552
17732WAT      O53437   8.055   1.706   5.099
17732WAT     H153438   8.146   1.749   5.095
17732WAT     H253439   8.061   1.623   5.155
17733WAT      O53440   3.953   4.668   0.568
17733WAT     H153441   3.983   4.580   0.603
17733WAT     H253442   4.032   4.728   0.556
17734WAT      O53443   9.096   2.432   6.868
17734WAT     H153444   9.044   2.381   6.799
17734WAT     H253445   9.073   2.399   6.959
17735WAT      O53446   5.722   3.098   8.817
17735WAT     H153447   5.719   2.998   8.828
17735WAT     H253448   5.713   3.121   8.721
17736WAT      O53449   8.582   3.039   8.250
17736WAT     H153450   8.494   2.991   8.253
17736WAT     H253451   8.650   2.979   8.208
17737WAT      O53452   1.848   4.100   2.852
17737WAT     H153453   1.850   4.006   2.886
17737WAT     H253454   1.923   4.152   2.893
17738WAT      O53455   4.172   6.405   1.287
17738WAT     H153456   4.156   6.326   1.347
17738WAT     H253457   4.173   6.374   1.192
17739WAT      O53458   2.707   8.252   8.830
17739WAT     H153459   2.648   8.291   8.760
17739WAT     H253460   2.721   8.155   8.811
17740WAT      O53461   0.882   7.466   6.188
17740WAT     H153462   0.901   7.563   6.176
17740WAT     H253463   0.786   7.448   6.166
17741WAT      O53464   6.696   9.255   5.572
17741WAT     H153465   6.637   9.332   5.546
17741WAT     H253466   6.696   9.245   5.671
17742WAT      O53467   4.054   5.616   6.876
17742WAT     H153468   4.016   5.665   6.954
17742WAT     H253469   3.988   5.618   6.800
17743WAT      O53470   6.228   1.634   7.426
17743WAT     H153471   6.156   1.602   7.365
17743WAT     H253472   6.303   1.673   7.372
17744WAT      O53473   8.813   3.678   6.642
17744WAT     H153474   8.828   3.633   6.554
17744WAT     H253475   8.830   3.612   6.716
17745WAT      O53476   4.470   3.668   2.725
17745WAT     H153477   4.386   3.723   2.725
17745WAT     H253478   4.499   3.653   2.820
17746WAT      O53479   6.606   4.001   0.046
17746WAT     H153480   6.572   3.960  -0.039
17746WAT     H253481   6.687   4.055   0.026
17747WAT      O53482   0.251   4.446   7.623
17747WAT     H153483   0.200   4.445   7.709
17747WAT     H253484   0.290   4.355   7.607
17748WAT      O53485   7.036   8.095   7.924
17748WAT     H153486   7.047   8.172   7.987
17748WAT     H253487   7.125   8.071   7.884
17749WAT      O53488   2.170   3.547   8.240
17749WAT     H153489   2.095   3.494   8.202
17749WAT     H253490   2.183   3.522   8.336
17750WAT      O53491   2.754   6.485   3.730
17750WAT     H153492   2.848   6.506   3.756
17750WAT     H253493   2.701   6.570   3.725
17751WAT      O53494   7.117   7.491   0.417
17751WAT     H153495   7.069   7.446   0.492
17751WAT     H253496   7.215   7.490   0.435
17752WAT      O53497   9.285   7.480   0.943
17752WAT     H153498   9.312   7.421   0.868
17752WAT     H253499   9.355   7.549   0.959
17753WAT      O53500   9.279   2.448   9.243
17753WAT     H153501   9.337   2.525   9.218
17753WAT     H253502   9.275   2.439   9.343
17754WAT      O53503   8.075   4.227   6.215
17754WAT     H153504   7.990   4.278   6.227
17754WAT     H253505   8.103   4.231   6.119
17755WAT      O53506   9.515   2.088   2.075
17755WAT     H153507   9.454   2.165   2.093
17755WAT     H253508   9.515   2.066   1.977
17756WAT      O53509   7.540   5.705   4.622
17756WAT     H153510   7.493   5.737   4.539
17756WAT     H253511   7.531   5.606   4.629
17757WAT      O53512   9.563   4.923   3.579
17757WAT     H153513   9.592   5.010   3.617
17757WAT     H253514   9.509   4.938   3.496
17758WAT      O53515   4.104   0.913   7.414
17758WAT     H153516   4.114   0.825   7.368
17758WAT     H253517   4.121   0.986   7.348
17759WAT      O53518   6.269   2.781   2.525
17759WAT     H153519   6.183   2.741   2.495
17759WAT     H253520   6.344   2.718   2.507
17760WAT      O53521   4.623   4.554   2.862
17760WAT     H153522   4.576   4.468   2.879
17760WAT     H253523   4.632   4.569   2.763
17761WAT      O53524   5.969   3.221   7.066
17761WAT     H153525   5.935   3.137   7.107
17761WAT     H253526   5.954   3.219   6.967
17762WAT      O53527   2.021   7.557   7.412
17762WAT     H153528   2.039   7.631   7.348
17762WAT     H253529   2.034   7.469   7.366
17763WAT      O53530   6.415   2.990   3.128
17763WAT     H153531   6.426   3.074   3.181
17763WAT     H253532   6.500   2.971   3.077
17764WAT      O53533   5.071   8.986   1.059
17764WAT     H153534   4.995   8.955   1.115
17764WAT     H253535   5.042   9.066   1.005
17765WAT      O53536   7.149   6.615   5.963
17765WAT     H153537   7.153   6.591   6.060
17765WAT     H253538   7.104   6.541   5.912
17766WAT      O53539   3.111   7.622   3.342
17766WAT     H153540   3.201   7.654   3.372
17766WAT     H253541   3.058   7.698   3.306
17767WAT      O53542   7.588   7.713   4.874
17767WAT     H153543   7.674   7.762   4.864
17767WAT     H253544   7.533   7.727   4.792
17768WAT      O53545   7.748   3.070   5.268
17768WAT     H153546   7.696   3.135   5.213
17768WAT     H253547   7.721   2.977   5.243
17769WAT      O53548   5.550   1.816   6.351
17769WAT     H153549   5.573   1.786   6.443
17769WAT     H253550   5.460   1.860   6.351
17770WAT      O53551   0.798   6.037   9.796
17770WAT     H153552   0.882   6.027   9.848
17770WAT     H253553   0.817   6.020   9.699
17771WAT      O53554   5.980   3.284   6.789
17771WAT     H153555   6.064   3.234   6.773
17771WAT     H253556   6.001   3.379   6.812
17772WAT      O53557   3.945   9.613   8.466
17772WAT     H153558   3.973   9.600   8.562
17772WAT     H253559   3.846   9.605   8.459
17773WAT      O53560   4.413   2.233   0.482
17773WAT     H153561   4.373   2.227   0.573
17773WAT     H253562   4.370   2.164   0.423
17774WAT      O53563   6.197   0.485   5.846
17774WAT     H153564   6.133   0.449   5.914
17774WAT     H253565   6.280   0.516   5.893
17775WAT      O53566   1.403   8.425   6.374
17775WAT     H153567   1.450   8.485   6.309
17775WAT     H253568   1.398   8.333   6.336
17776WAT      O53569   6.589   5.155   0.939
17776WAT     H153570   6.558   5.123   0.849
17776WAT     H253571   6.550   5.245   0.957
17777WAT      O53572   5.617   1.893   0.543
17777WAT     H153573   5.522   1.914   0.566
17777WAT     H253574   5.619   1.822   0.473
17778WAT      O53575   7.982   7.231   4.918
17778WAT     H153576   7.971   7.328   4.897
17778WAT     H253577   7.941   7.211   5.007
17779WAT      O53578   0.562   7.683   8.943
17779WAT     H153579   0.546   7.603   8.886
17779WAT     H253580   0.658   7.685   8.972
17780WAT      O53581   9.719   2.566   3.949
17780WAT     H153582   9.717   2.606   3.858
17780WAT     H253583   9.692   2.635   4.016
17781WAT      O53584   5.403   5.647   2.788
17781WAT     H153585   5.478   5.706   2.819
17781WAT     H253586   5.397   5.651   2.688
17782WAT      O53587   4.163   1.339   8.358
17782WAT     H153588   4.089   1.279   8.328
17782WAT     H253589   4.208   1.380   8.278
17783WAT      O53590   1.835   6.201   3.715
17783WAT     H153591   1.835   6.282   3.657
17783WAT     H253592   1.765   6.210   3.785
17784WAT      O53593   4.006   8.979   0.516
17784WAT     H153594   3.950   9.053   0.478
17784WAT     H253595   4.014   8.905   0.450
17785WAT      O53596   9.389   1.356   1.398
17785WAT     H153597   9.344   1.422   1.337
17785WAT     H253598   9.374   1.382   1.493
17786WAT      O53599   7.879   0.561   8.109
17786WAT     H153600   7.801   0.509   8.077
17786WAT     H253601   7.851   0.654   8.132
17787WAT      O53602   7.050   6.586   9.366
17787WAT     H153603   7.148   6.569   9.365
17787WAT     H253604   7.029   6.662   9.428
17788WAT      O53605   5.004   5.314   2.822
17788WAT     H153606   5.033   5.399   2.865
17788WAT     H253607   4.940   5.333   2.748
17789WAT      O53608   7.635   1.329   8.195
17789WAT     H153609   7.718   1.295   8.239
17789WAT     H253610   7.659   1.373   8.109
17790WAT      O53611   4.879   1.256   8.500
17790WAT     H153612   4.825   1.183   8.543
17790WAT     H253613   4.975   1.244   8.523
17791WAT      O53614   0.552   8.561   6.346
17791WAT     H153615   0.545   8.479   6.290
17791WAT     H253616   0.474   8.621   6.327
17792WAT      O53617   8.569   8.052   0.314
17792WAT     H153618   8.523   7.980   0.263
17792WAT     H253619   8.502   8.096   0.376
17793WAT      O53620   4.018   0.846   5.833
17793WAT     H153621   3.988   0.880   5.744
17793WAT     H253622   4.108   0.803   5.824
17794WAT      O53623   5.137   9.097   7.269
17794WAT     H153624   5.153   9.195   7.284
17794WAT     H253625   5.068   9.086   7.197
17795WAT      O53626   5.085   7.593   6.691
17795WAT     H153627   5.002   7.562   6.644
17795WAT     H253628   5.119   7.675   6.646
17796WAT      O53629   9.653   6.195   1.910
17796WAT     H153630   9.610   6.105   1.919
17796WAT     H253631   9.623   6.237   1.824
17797WAT      O53632   8.125   8.829   9.299
17797WAT     H153633   8.100   8.764   9.227
17797WAT     H253634   8.113   8.923   9.266
17798WAT      O53635   2.112   7.010   3.502
17798WAT     H153636   2.026   6.962   3.486
17798WAT     H253637   2.175   6.952   3.553
17799WAT      O53638   8.149   2.880   0.442
17799WAT     H153639   8.230   2.845   0.490
17799WAT     H253640   8.102   2.803   0.397
17800WAT      O53641   3.286   9.003   4.814
17800WAT     H153642   3.379   8.970   4.798
17800WAT     H253643   3.227   8.976   4.738
17801WAT      O53644   6.060   6.606   4.162
17801WAT     H153645   6.136   6.669   4.146
17801WAT     H253646   6.061   6.533   4.093
17802WAT      O53647   9.184   0.183   4.160
17802WAT     H153648   9.282   0.184   4.176
17802WAT     H253649   9.158   0.095   4.121
17803WAT      O53650   9.328   1.278   6.576
17803WAT     H153651   9.238   1.248   6.605
17803WAT     H253652   9.335   1.271   6.476
17804WAT      O53653   1.303   0.623   8.329
17804WAT     H153654   1.205   0.638   8.345
17804WAT     H253655   1.354   0.702   8.365
17805WAT      O53656   9.584   6.538   6.058
17805WAT     H153657   9.626   6.506   5.973
17805WAT     H253658   9.488   6.559   6.043
17806WAT      O53659   2.731   0.649   0.576
17806WAT     H153660   2.825   0.618   0.584
17806WAT     H253661   2.724   0.745   0.603
17807WAT      O53662   1.876   7.986   0.036
17807WAT     H153663   1.828   8.026  -0.042
17807WAT     H253664   1.917   7.899   0.009
17808WAT      O53665   6.956   8.498   9.324
17808WAT     H153666   7.008   8.419   9.359
17808WAT     H253667   6.992   8.582   9.364
17809WAT      O53668   8.083   9.395   4.033
17809WAT     H153669   8.169   9.439   4.054
17809WAT     H253670   8.007   9.454   4.060
17810WAT      O53671   2.148   0.973   6.106
17810WAT     H153672   2.146   1.067   6.072
17810WAT     H253673   2.197   0.970   6.193
17811WAT      O53674   7.632   4.281   2.012
17811WAT     H153675   7.715   4.254   1.964
17811WAT     H253676   7.575   4.201   2.030
17812WAT      O53677   1.522   7.962   2.827
17812WAT     H153678   1.468   7.909   2.762
17812WAT     H253679   1.554   8.046   2.783
17813WAT      O53680   6.880   1.780   3.617
17813WAT     H153681   6.894   1.810   3.523
17813WAT     H253682   6.782   1.765   3.633
17814WAT      O53683   2.414   4.321   4.898
17814WAT     H153684   2.455   4.264   4.969
17814WAT     H253685   2.343   4.379   4.938
17815WAT      O53686   3.825   6.168   5.109
17815WAT     H153687   3.853   6.145   5.202
17815WAT     H253688   3.904   6.166   5.048
17816WAT      O53689   5.591   6.514   5.010
17816WAT     H153690   5.526   6.438   5.002
17816WAT     H253691   5.683   6.479   5.021
17817WAT      O53692   1.532   5.892   7.799
17817WAT     H153693   1.505   5.988   7.803
17817WAT     H253694   1.459   5.838   7.759
17818WAT      O53695   0.194   4.365   3.330
17818WAT     H153696   0.266   4.296   3.330
17818WAT     H253697   0.236   4.456   3.324
17819WAT      O53698   1.217   8.999   3.261
17819WAT     H153699   1.144   8.937   3.233
17819WAT     H253700   1.181   9.092   3.265
17820WAT      O53701   3.814   4.347   5.623
17820WAT     H153702   3.784   4.260   5.661
17820WAT     H253703   3.889   4.384   5.678
17821WAT      O53704   7.117   1.707   2.820
17821WAT     H153705   7.168   1.791   2.840
17821WAT     H253706   7.041   1.728   2.758
17822WAT      O53707   1.005   7.871   5.084
17822WAT     H153708   1.075   7.921   5.033
17822WAT     H253709   1.041   7.781   5.109
17823WAT      O53710   0.776   3.149   8.351
17823WAT     H153711   0.732   3.188   8.270
17823WAT     H253712   0.734   3.188   8.433
17824WAT      O53713   9.639   3.877   0.991
17824WAT     H153714   9.700   3.943   0.947
17824WAT     H253715   9.664   3.867   1.087
17825WAT      O53716   6.503   0.605   6.315
17825WAT     H153717   6.593   0.578   6.282
17825WAT     H253718   6.433   0.556   6.263
17826WAT      O53719   7.192   6.625   5.583
17826WAT     H153720   7.244   6.676   5.651
17826WAT     H253721   7.254   6.587   5.514
17827WAT      O53722   2.407   7.601   8.105
17827WAT     H153723   2.478   7.541   8.067
17827WAT     H253724   2.378   7.566   8.194
17828WAT      O53725   2.776   5.312   3.527
17828WAT     H153726   2.875   5.300   3.525
17828WAT     H253727   2.739   5.267   3.609
17829WAT      O53728   0.720   2.416   6.200
17829WAT     H153729   0.662   2.418   6.119
17829WAT     H253730   0.814   2.393   6.174
17830WAT      O53731   1.929   5.357   7.228
17830WAT     H153732   2.020   5.374   7.189
17830WAT     H253733   1.864   5.336   7.154
17831WAT      O53734   2.342   4.471   9.140
17831WAT     H153735   2.319   4.415   9.220
17831WAT     H253736   2.360   4.411   9.062
17832WAT      O53737   4.991   0.243   0.977
17832WAT     H153738   5.089   0.252   0.997
17832WAT     H253739   4.945   0.329   1.000
17833WAT      O53740   5.217   4.949   6.924
17833WAT     H153741   5.157   5.027   6.906
17833WAT     H253742   5.206   4.920   7.019
17834WAT      O53743   1.568   6.840   5.434
17834WAT     H153744   1.599   6.859   5.341
17834WAT     H253745   1.512   6.916   5.466
17835WAT      O53746   8.101   6.186   4.914
17835WAT     H153747   8.013   6.144   4.892
17835WAT     H253748   8.085   6.270   4.966
17836WAT      O53749   5.349   2.691   5.539
17836WAT     H153750   5.375   2.785   5.518
17836WAT     H253751   5.286   2.657   5.469
17837WAT      O53752   5.205   9.648   8.075
17837WAT     H153753   5.291   9.682   8.037
17837WAT     H253754   5.217   9.554   8.108
17838WAT      O53755   0.879   7.829   2.720
17838WAT     H153756   0.916   7.868   2.636
17838WAT     H253757   0.934   7.750   2.748
17839WAT      O53758   0.573   0.947   4.338
17839WAT     H153759   0.570   0.852   4.309
17839WAT     H253760   0.668   0.975   4.351
17840WAT      O53761   8.411   6.949   6.489
17840WAT     H153762   8.400   6.864   6.540
17840WAT     H253763   8.371   7.025   6.541
17841WAT      O53764   5.048   9.529   3.939
17841WAT     H153765   4.979   9.457   3.952
17841WAT     H253766   5.073   9.567   4.028
17842WAT      O53767   8.311   4.484   9.578
17842WAT     H153768   8.299   4.583   9.591
17842WAT     H253769   8.359   4.468   9.492
17843WAT      O53770   5.934   1.975   6.382
17843WAT     H153771   5.888   1.939   6.301
17843WAT     H253772   5.870   1.977   6.459
17844WAT      O53773   4.016   1.059   6.052
17844WAT     H153774   4.020   1.014   5.963
17844WAT     H253775   4.085   1.020   6.113
17845WAT      O53776   4.358   6.434   7.479
17845WAT     H153777   4.453   6.420   7.453
17845WAT     H253778   4.348   6.420   7.578
17846WAT      O53779   1.008   3.232   7.056
17846WAT     H153780   0.914   3.264   7.069
17846WAT     H253781   1.006   3.134   7.035
17847WAT      O53782   0.111   1.329   7.873
17847WAT     H153783   0.141   1.260   7.939
17847WAT     H253784   0.182   1.342   7.804
17848WAT      O53785   8.920   7.244   7.239
17848WAT     H153786   8.945   7.276   7.147
17848WAT     H253787   8.927   7.320   7.304
17849WAT      O53788   4.024   1.058   6.357
17849WAT     H153789   4.099   1.055   6.424
17849WAT     H253790   3.968   1.139   6.375
17850WAT      O53791   7.107   5.039   4.512
17850WAT     H153792   7.080   5.127   4.552
17850WAT     H253793   7.031   4.975   4.519
17851WAT      O53794   2.027   3.858   5.290
17851WAT     H153795   2.025   3.862   5.390
17851WAT     H253796   2.106   3.804   5.261
17852WAT      O53797   5.225   3.565   6.086
17852WAT     H153798   5.312   3.537   6.046
17852WAT     H253799   5.177   3.625   6.022
17853WAT      O53800   2.477   7.277   8.157
17853WAT     H153801   2.481   7.181   8.187
17853WAT     H253802   2.512   7.336   8.229
17854WAT      O53803   8.584   5.334   2.102
17854WAT     H153804   8.587   5.237   2.124
17854WAT     H253805   8.583   5.388   2.186
17855WAT      O53806   7.046   6.718   6.890
17855WAT     H153807   7.002   6.685   6.974
17855WAT     H253808   7.062   6.641   6.828
17856WAT      O53809   8.831   5.649   4.269
17856WAT     H153810   8.886   5.641   4.185
17856WAT     H253811   8.738   5.616   4.252
17857WAT      O53812   4.287   8.640   0.595
17857WAT     H153813   4.381   8.667   0.616
17857WAT     H253814   4.288   8.552   0.547
17858WAT      O53815   0.413   0.279   6.859
17858WAT     H153816   0.405   0.299   6.761
17858WAT     H253817   0.485   0.335   6.899
17859WAT      O53818   2.609   0.440   4.380
17859WAT     H153819   2.691   0.388   4.404
17859WAT     H253820   2.630   0.538   4.381
17860WAT      O53821   0.370   5.694   2.906
17860WAT     H153822   0.272   5.698   2.886
17860WAT     H253823   0.420   5.744   2.835
17861WAT      O53824   0.866   3.618   9.018
17861WAT     H153825   0.815   3.704   9.012
17861WAT     H253826   0.803   3.541   9.010
17862WAT      O53827   3.640   4.333   8.548
17862WAT     H153828   3.685   4.407   8.497
17862WAT     H253829   3.708   4.264   8.572
17863WAT      O53830   5.976   9.040   3.429
17863WAT     H153831   6.055   9.084   3.471
17863WAT     H253832   5.922   8.995   3.500
17864WAT      O53833   2.836   4.805   9.705
17864WAT     H153834   2.798   4.852   9.785
17864WAT     H253835   2.900   4.734   9.735
17865WAT      O53836   6.303   9.179   5.180
17865WAT     H153837   6.375   9.137   5.234
17865WAT     H253838   6.289   9.126   5.096
17866WAT      O53839   3.111   8.369   2.965
17866WAT     H153840   3.014   8.350   2.951
17866WAT     H253841   3.125   8.407   3.056
17867WAT      O53842   6.044   6.491   7.919
17867WAT     H153843   6.075   6.401   7.947
17867WAT     H253844   6.039   6.496   7.819
17868WAT      O53845   9.077   9.082   9.551
17868WAT     H153846   9.133   9.145   9.498
17868WAT     H253847   9.005   9.045   9.494
17869WAT      O53848   2.631   5.625   9.562
17869WAT     H153849   2.625   5.693   9.635
17869WAT     H253850   2.540   5.606   9.526
17870WAT      O53851   1.501   9.032   0.039
17870WAT     H153852   1.488   9.021   0.137
17870WAT     H253853   1.413   9.050  -0.005
17871WAT      O53854   8.775   1.199   3.988
17871WAT     H153855   8.677   1.180   3.979
17871WAT     H253856   8.825   1.113   3.998
17872WAT      O53857   5.921   2.812   2.777
17872WAT     H153858   5.968   2.730   2.743
17872WAT     H253859   5.843   2.832   2.717
17873WAT      O53860   0.393   1.220   6.697
17873WAT     H153861   0.363   1.315   6.696
17873WAT     H253862   0.331   1.166   6.754
17874WAT      O53863   5.423   6.898   0.903
17874WAT     H153864   5.337   6.851   0.885
17874WAT     H253865   5.433   6.913   1.001
17875WAT      O53866   7.327   5.625   6.005
17875WAT     H153867   7.266   5.596   5.931
17875WAT     H253868   7.416   5.651   5.966
17876WAT      O53869   2.310   5.019   2.715
17876WAT     H153870   2.322   5.070   2.630
17876WAT     H253871   2.230   5.054   2.764
17877WAT      O53872   9.888   7.184   7.460
17877WAT     H153873   9.896   7.202   7.362
17877WAT     H253874   9.809   7.233   7.497
17878WAT      O53875   9.187   0.836   8.428
17878WAT     H153876   9.137   0.833   8.342
17878WAT     H253877   9.177   0.927   8.469
17879WAT      O53878   2.831   0.269   3.213
17879WAT     H153879   2.760   0.202   3.194
17879WAT     H253880   2.854   0.266   3.310
17880WAT      O53881   9.170   7.155   2.252
17880WAT     H153882   9.170   7.255   2.265
17880WAT     H253883   9.260   7.126   2.221
17881WAT      O53884   6.868   6.520   3.273
17881WAT     H153885   6.804   6.523   3.197
17881WAT     H253886   6.831   6.572   3.350
17882WAT      O53887   2.996   3.515   2.006
17882WAT     H153888   2.944   3.434   1.980
17882WAT     H253889   3.093   3.494   2.005
17883WAT      O53890   4.598   9.785   3.961
17883WAT     H153891   4.668   9.727   3.919
17883WAT     H253892   4.509   9.738   3.956
17884WAT      O53893   2.345   6.729   2.849
17884WAT     H153894   2.387   6.701   2.936
17884WAT     H253895   2.374   6.667   2.777
17885WAT      O53896   7.649   6.699   3.897
17885WAT     H153897   7.710   6.619   3.902
17885WAT     H253898   7.698   6.775   3.855
17886WAT      O53899   7.583   1.653   9.543
17886WAT     H153900   7.553   1.610   9.628
17886WAT     H253901   7.504   1.667   9.483
17887WAT      O53902   4.471   0.734   2.380
17887WAT     H153903   4.445   0.720   2.284
17887WAT     H253904   4.403   0.691   2.439
17888WAT      O53905   6.005   3.377   7.946
17888WAT     H153906   6.043   3.288   7.922
17888WAT     H253907   6.066   3.450   7.912
17889WAT      O53908   6.420   8.854   0.650
17889WAT     H153909   6.417   8.807   0.739
17889WAT     H253910   6.488   8.810   0.591
17890WAT      O53911   6.445   7.519   5.783
17890WAT     H153912   6.444   7.477   5.873
17890WAT     H253913   6.536   7.509   5.742
17891WAT      O53914   0.770   1.828   8.189
17891WAT     H153915   0.697   1.876   8.140
17891WAT     H253916   0.832   1.895   8.230
17892WAT      O53917   1.886   6.499   5.027
17892WAT     H153918   1.971   6.448   5.010
17892WAT     H253919   1.821   6.441   5.076
17893WAT      O53920   0.992   0.366   9.221
17893WAT     H153921   0.924   0.427   9.180
17893WAT     H253922   0.945   0.287   9.261
17894WAT      O53923   7.550   5.749   4.961
17894WAT     H153924   7.483   5.679   4.986
17894WAT     H253925   7.591   5.726   4.873
17895WAT      O53926   5.419   0.660   7.715
17895WAT     H153927   5.483   0.719   7.664
17895WAT     H253928   5.451   0.649   7.809
17896WAT      O53929   7.190   3.092   2.117
17896WAT     H153930   7.197   3.177   2.066
17896WAT     H253931   7.098   3.054   2.107
17897WAT      O53932   1.971   4.760   0.845
17897WAT     H153933   1.944   4.822   0.772
17897WAT     H253934   1.973   4.810   0.932
17898WAT      O53935   0.290   5.074   5.402
17898WAT     H153936   0.365   5.008   5.411
17898WAT     H253937   0.203   5.027   5.419
17899WAT      O53938   0.908   4.137   7.968
17899WAT     H153939   0.992   4.087   7.945
17899WAT     H253940   0.914   4.167   8.063
17900WAT      O53941   6.036   1.794   2.608
17900WAT     H153942   5.985   1.782   2.693
17900WAT     H253943   5.974   1.830   2.537
17901WAT      O53944   6.314   2.002   3.732
17901WAT     H153945   6.273   2.087   3.700
17901WAT     H253946   6.413   2.007   3.723
17902WAT      O53947   7.184   9.707   2.835
17902WAT     H153948   7.224   9.616   2.845
17902WAT     H253949   7.110   9.703   2.768
17903WAT      O53950   6.475   4.578   0.259
17903WAT     H153951   6.396   4.633   0.233
17903WAT     H253952   6.501   4.598   0.353
17904WAT      O53953   9.696   5.921   7.908
17904WAT     H153954   9.787   5.909   7.868
17904WAT     H253955   9.653   5.832   7.921
17905WAT      O53956   3.937   0.266   0.662
17905WAT     H153957   3.975   0.261   0.569
17905WAT     H253958   3.854   0.211   0.667
17906WAT      O53959   6.334   7.206   3.950
17906WAT     H153960   6.328   7.176   4.045
17906WAT     H253961   6.243   7.198   3.908
17907WAT      O53962   8.596   4.574   8.351
17907WAT     H153963   8.543   4.625   8.419
17907WAT     H253964   8.569   4.603   8.259
17908WAT      O53965   7.159   7.031   7.673
17908WAT     H153966   7.088   6.996   7.612
17908WAT     H253967   7.180   6.963   7.743
17909WAT      O53968   0.842   4.298   0.049
17909WAT     H153969   0.879   4.313  -0.043
17909WAT     H253970   0.742   4.295   0.045
17910WAT      O53971   6.639   7.241   8.945
17910WAT     H153972   6.561   7.180   8.950
17910WAT     H253973   6.699   7.226   9.024
17911WAT      O53974   5.644   1.867   1.145
17911WAT     H153975   5.698   1.886   1.063
17911WAT     H253976   5.666   1.934   1.216
17912WAT      O53977   3.798   2.671   5.118
17912WAT     H153978   3.859   2.739   5.159
17912WAT     H253979   3.809   2.672   5.018
17913WAT      O53980   3.499   0.708   9.841
17913WAT     H153981   3.538   0.619   9.864
17913WAT     H253982   3.444   0.700   9.758
17914WAT      O53983   4.881   5.401   2.600
17914WAT     H153984   4.949   5.457   2.554
17914WAT     H253985   4.842   5.335   2.536
17915WAT      O53986   8.640   2.086   6.058
17915WAT     H153987   8.629   2.160   6.124
17915WAT     H253988   8.665   2.002   6.107
17916WAT      O53989   3.983   7.266   9.416
17916WAT     H153990   3.943   7.197   9.476
17916WAT     H253991   4.030   7.334   9.471
17917WAT      O53992   6.835   4.358   1.084
17917WAT     H153993   6.868   4.264   1.077
17917WAT     H253994   6.771   4.376   1.009
17918WAT      O53995   4.401   1.236   7.360
17918WAT     H153996   4.462   1.209   7.286
17918WAT     H253997   4.393   1.160   7.425
17919WAT      O53998   5.107   1.164   9.343
17919WAT     H153999   5.160   1.132   9.264
17919WAT     H254000   5.010   1.168   9.318
17920WAT      O54001   9.467   8.841   4.758
17920WAT     H154002   9.467   8.748   4.795
17920WAT     H254003   9.421   8.842   4.670
17921WAT      O54004   7.783   6.529   4.293
17921WAT     H154005   7.782   6.484   4.383
17921WAT     H254006   7.853   6.487   4.236
17922WAT      O54007   6.537   1.095   9.056
17922WAT     H154008   6.484   1.175   9.027
17922WAT     H254009   6.615   1.083   8.995
17923WAT      O54010   8.686   4.252   3.226
17923WAT     H154011   8.737   4.319   3.280
17923WAT     H254012   8.721   4.251   3.132
17924WAT      O54013   7.556   8.091   0.634
17924WAT     H154014   7.579   8.175   0.683
17924WAT     H254015   7.625   8.074   0.563
17925WAT      O54016   0.819   0.157   5.108
17925WAT     H154017   0.785   0.246   5.137
17925WAT     H254018   0.850   0.162   5.013
17926WAT      O54019   2.173   1.030   5.597
17926WAT     H154020   2.272   1.035   5.583
17926WAT     H254021   2.154   0.984   5.684
17927WAT      O54022   4.103   6.492   2.872
17927WAT     H154023   4.096   6.467   2.776
17927WAT     H254024   4.137   6.586   2.880
17928WAT      O54025   8.809   3.537   9.886
17928WAT     H154026   8.814   3.546   9.985
17928WAT     H254027   8.757   3.454   9.863
17929WAT      O54028   8.327   0.326   4.776
17929WAT     H154029   8.339   0.370   4.865
17929WAT     H254030   8.292   0.234   4.789
17930WAT      O54031   4.914   0.529   9.767
17930WAT     H154032   4.872   0.439   9.759
17930WAT     H254033   4.846   0.600   9.750
17931WAT      O54034   9.426   5.532   2.391
17931WAT     H154035   9.437   5.480   2.307
17931WAT     H254036   9.499   5.508   2.455
17932WAT      O54037   4.858   0.168   5.126
17932WAT     H154038   4.779   0.227   5.139
17932WAT     H254039   4.832   0.073   5.143
17933WAT      O54040   5.354   5.836   3.945
17933WAT     H154041   5.379   5.858   3.851
17933WAT     H254042   5.426   5.866   4.007
17934WAT      O54043   8.059   6.742   8.346
17934WAT     H154044   8.148   6.728   8.304
17934WAT     H254045   8.061   6.826   8.400
17935WAT      O54046   7.257   8.711   8.146
17935WAT     H154047   7.171   8.662   8.165
17935WAT     H254048   7.332   8.644   8.140
17936WAT      O54049   7.023   8.546   0.624
17936WAT     H154050   6.996   8.451   0.634
17936WAT     H254051   7.119   8.551   0.596
17937WAT      O54052   7.216   0.258   1.081
17937WAT     H154053   7.162   0.332   1.122
17937WAT     H254054   7.176   0.233   0.993
17938WAT      O54055   5.656   9.491   0.071
17938WAT     H154056   5.657   9.562   0.142
17938WAT     H254057   5.662   9.401   0.113
17939WAT      O54058   2.785   8.156   4.587
17939WAT     H154059   2.832   8.199   4.664
17939WAT     H254060   2.760   8.227   4.521
17940WAT      O54061   4.900   2.071   9.557
17940WAT     H154062   4.819   2.083   9.615
17940WAT     H254063   4.972   2.026   9.610
17941WAT      O54064   6.349   3.837   2.209
17941WAT     H154065   6.358   3.770   2.135
17941WAT     H254066   6.369   3.929   2.174
17942WAT      O54067   7.209   5.500   8.222
17942WAT     H154068   7.188   5.420   8.279
17942WAT     H254069   7.143   5.505   8.147
17943WAT      O54070   0.832   8.419   2.327
17943WAT     H154071   0.898   8.481   2.284
17943WAT     H254072   0.772   8.471   2.389
17944WAT      O54073   1.386   6.391   6.690
17944WAT     H154074   1.412   6.323   6.758
17944WAT     H254075   1.394   6.350   6.598
17945WAT      O54076   7.378   3.939   0.536
17945WAT     H154077   7.419   4.029   0.521
17945WAT     H254078   7.449   3.869   0.534
17946WAT      O54079   0.495   6.166   9.363
17946WAT     H154080   0.491   6.220   9.448
17946WAT     H254081   0.455   6.219   9.288
17947WAT      O54082   8.339   6.671   5.050
17947WAT     H154083   8.349   6.586   5.101
17947WAT     H254084   8.264   6.725   5.089
17948WAT      O54085   1.907   3.807   3.794
17948WAT     H154086   1.842   3.806   3.870
17948WAT     H254087   1.950   3.717   3.785
17949WAT      O54088   2.706   5.131   6.715
17949WAT     H154089   2.671   5.044   6.750
17949WAT     H254090   2.631   5.193   6.696
17950WAT      O54091   2.677   7.186   0.879
17950WAT     H154092   2.709   7.281   0.881
17950WAT     H254093   2.583   7.182   0.912
17951WAT      O54094   4.910   2.010   0.021
17951WAT     H154095   4.827   1.986  -0.029
17951WAT     H254096   4.936   1.934   0.081
17952WAT      O54097   4.745   3.181   2.815
17952WAT     H154098   4.741   3.257   2.750
17952WAT     H254099   4.747   3.216   2.908
17953WAT      O54100   8.249   4.200   2.151
17953WAT     H154101   8.264   4.257   2.232
17953WAT     H254102   8.277   4.251   2.069
17954WAT      O54103   4.049   5.630   5.490
17954WAT     H154104   4.049   5.597   5.585
17954WAT     H254105   4.136   5.607   5.447
17955WAT      O54106   9.423   5.216   7.418
17955WAT     H154107   9.488   5.219   7.343
17955WAT     H254108   9.338   5.172   7.387
17956WAT      O54109   8.294   8.495   6.945
17956WAT     H154110   8.374   8.497   6.886
17956WAT     H254111   8.322   8.506   7.041
17957WAT      O54112   4.103   3.857   1.347
17957WAT     H154113   4.089   3.877   1.444
17957WAT     H254114   4.022   3.809   1.311
17958WAT      O54115   6.469   0.177   6.863
17958WAT     H154116   6.425   0.230   6.790
17958WAT     H254117   6.466   0.228   6.948
17959WAT      O54118   4.901   4.178   0.236
17959WAT     H154119   4.834   4.115   0.196
17959WAT     H254120   4.859   4.227   0.313
17960WAT      O54121   7.804   7.010   5.881
17960WAT     H154122   7.746   6.980   5.957
17960WAT     H254123   7.794   7.109   5.869
17961WAT      O54124   0.532   4.233   7.806
17961WAT     H154125   0.550   4.135   7.814
17961WAT     H254126   0.614   4.284   7.831
17962WAT      O54127   8.676   8.120   5.828
17962WAT     H154128   8.703   8.068   5.746
17962WAT     H254129   8.742   8.101   5.901
17963WAT      O54130   5.343   7.980   8.545
17963WAT     H154131   5.331   7.950   8.639
17963WAT     H254132   5.429   7.943   8.509
17964WAT      O54133   6.589   1.172   4.309
17964WAT     H154134   6.571   1.229   4.229
17964WAT     H254135   6.682   1.135   4.302
17965WAT      O54136   5.086   8.287   6.938
17965WAT     H154137   5.065   8.373   6.892
17965WAT     H254138   5.076   8.211   6.873
17966WAT      O54139   9.123   1.582   8.354
17966WAT     H154140   9.103   1.667   8.403
17966WAT     H254141   9.180   1.524   8.412
17967WAT      O54142   3.681   5.427   5.625
17967WAT     H154143   3.608   5.387   5.681
17967WAT     H254144   3.646   5.444   5.533
17968WAT      O54145   8.761   8.254   5.170
17968WAT     H154146   8.842   8.258   5.227
17968WAT     H254147   8.776   8.307   5.086
17969WAT      O54148   4.699   5.169   0.327
17969WAT     H154149   4.715   5.222   0.244
17969WAT     H254150   4.784   5.124   0.355
17970WAT      O54151   6.345   2.734   7.492
17970WAT     H154152   6.378   2.827   7.478
17970WAT     H254153   6.246   2.734   7.505
17971WAT      O54154   5.891   0.587   0.339
17971WAT     H154155   5.882   0.494   0.303
17971WAT     H254156   5.980   0.596   0.384
17972WAT      O54157   3.370   9.545   6.606
17972WAT     H154158   3.463   9.509   6.605
17972WAT     H254159   3.307   9.476   6.572
17973WAT      O54160   9.861   6.725   4.014
17973WAT     H154161   9.918   6.647   4.039
17973WAT     H254162   9.765   6.695   4.008
17974WAT      O54163   3.850   7.260   1.201
17974WAT     H154164   3.904   7.343   1.216
17974WAT     H254165   3.905   7.194   1.149
17975WAT      O54166   5.678   8.340   8.768
17975WAT     H154167   5.605   8.272   8.770
17975WAT     H254168   5.766   8.294   8.774
17976WAT      O54169   5.506   7.053   5.353
17976WAT     H154170   5.435   7.118   5.382
17976WAT     H254171   5.493   6.966   5.403
17977WAT      O54172   0.379   1.857   4.087
17977WAT     H154173   0.280   1.862   4.095
17977WAT     H254174   0.407   1.894   3.998
17978WAT      O54175   3.971   1.057   0.754
17978WAT     H154176   4.019   0.970   0.748
17978WAT     H254177   3.918   1.060   0.839
17979WAT      O54178   8.183   8.482   4.722
17979WAT     H154179   8.200   8.411   4.654
17979WAT     H254180   8.221   8.454   4.810
17980WAT      O54181   8.590   4.767   2.032
17980WAT     H154182   8.579   4.694   1.965
17980WAT     H254183   8.545   4.850   2.000
17981WAT      O54184   8.103   5.352   9.295
17981WAT     H154185   8.032   5.403   9.343
17981WAT     H254186   8.090   5.362   9.196
17982WAT      O54187   4.810   6.055   0.385
17982WAT     H154188   4.860   6.063   0.472
17982WAT     H254189   4.863   6.100   0.313
17983WAT      O54190   0.508   2.372   1.640
17983WAT     H154191   0.426   2.329   1.677
17983WAT     H254192   0.493   2.395   1.544
17984WAT      O54193   5.105   3.691   1.411
17984WAT     H154194   5.048   3.691   1.493
17984WAT     H254195   5.193   3.732   1.431
17985WAT      O54196   7.474   5.430   0.527
17985WAT     H154197   7.396   5.431   0.590
17985WAT     H254198   7.539   5.501   0.553
17986WAT      O54199   7.226   9.519   6.662
17986WAT     H154200   7.187   9.586   6.725
17986WAT     H254201   7.298   9.467   6.709
17987WAT      O54202   3.647   6.843   7.207
17987WAT     H154203   3.731   6.885   7.174
17987WAT     H254204   3.590   6.816   7.130
17988WAT      O54205   4.918   6.130   0.636
17988WAT     H154206   5.001   6.173   0.600
17988WAT     H254207   4.861   6.200   0.680
17989WAT      O54208   7.010   0.517   0.106
17989WAT     H154209   6.967   0.519   0.016
17989WAT     H254210   7.089   0.577   0.108
17990WAT      O54211   7.818   1.827   5.187
17990WAT     H154212   7.748   1.774   5.139
17990WAT     H254213   7.907   1.784   5.173
17991WAT      O54214   2.357   2.640   3.787
17991WAT     H154215   2.410   2.722   3.767
17991WAT     H254216   2.259   2.661   3.782
17992WAT      O54217   6.696   8.250   7.607
17992WAT     H154218   6.649   8.336   7.627
17992WAT     H254219   6.780   8.244   7.660
17993WAT      O54220   2.143   5.944   1.457
17993WAT     H154221   2.138   5.932   1.358
17993WAT     H254222   2.105   6.033   1.482
17994WAT      O54223   2.756   7.230   6.892
17994WAT     H154224   2.817   7.173   6.947
17994WAT     H254225   2.798   7.248   6.803
17995WAT      O54226   1.707   8.279   6.647
17995WAT     H154227   1.763   8.204   6.685
17995WAT     H254228   1.668   8.250   6.560
17996WAT      O54229   6.966   2.483   1.090
17996WAT     H154230   6.985   2.425   1.169
17996WAT     H254231   6.871   2.516   1.095
17997WAT      O54232   5.699   3.844   2.976
17997WAT     H154233   5.652   3.771   3.027
17997WAT     H254234   5.644   3.869   2.896
17998WAT      O54235   0.077   1.392   0.337
17998WAT     H154236   0.147   1.438   0.284
17998WAT     H254237   0.038   1.317   0.283
17999WAT      O54238   8.646   9.640   6.625
17999WAT     H154239   8.673   9.736   6.622
17999WAT     H254240   8.679   9.599   6.711
18000WAT      O54241   6.219   8.605   5.572
18000WAT     H154242   6.135   8.658   5.581
18000WAT     H254243   6.288   8.660   5.524
18001WAT      O54244   7.424   4.674   5.994
18001WAT     H154245   7.448   4.768   6.018
18001WAT     H254246   7.483   4.641   5.921
18002WAT      O54247   0.979   0.116   1.326
18002WAT     H154248   0.945   0.205   1.293
18002WAT     H254249   0.902   0.053   1.334
18003WAT      O54250   8.228   0.001   8.911
18003WAT     H154251   8.164  -0.002   8.834
18003WAT     H254252   8.321   0.014   8.877
18004WAT      O54253   5.016   7.323   9.133
18004WAT     H154254   4.920   7.301   9.116
18004WAT     H254255   5.044   7.400   9.075
18005WAT      O54256   7.033   2.588   0.834
18005WAT     H154257   6.998   2.544   0.916
18005WAT     H254258   7.129   2.564   0.822
18006WAT      O54259   2.174   2.174   7.358
18006WAT     H154260   2.180   2.272   7.339
18006WAT     H254261   2.148   2.125   7.275
18007WAT      O54262   2.777   3.738   4.044
18007WAT     H154263   2.766   3.797   4.125
18007WAT     H254264   2.701   3.674   4.039
18008WAT      O54265   7.818   2.024   2.000
18008WAT     H154266   7.840   1.957   2.070
18008WAT     H254267   7.797   1.978   1.914
18009WAT      O54268   8.577   6.252   8.362
18009WAT     H154269   8.663   6.269   8.409
18009WAT     H254270   8.565   6.319   8.289
18010WAT      O54271   0.854   7.771   3.473
18010WAT     H154272   0.903   7.724   3.399
18010WAT     H254273   0.777   7.716   3.503
18011WAT      O54274   6.078   6.958   7.281
18011WAT     H154275   6.105   6.889   7.214
18011WAT     H254276   6.152   7.025   7.291
18012WAT      O54277   3.386   0.367   6.614
18012WAT     H154278   3.433   0.322   6.539
18012WAT     H254279   3.297   0.401   6.583
18013WAT      O54280   9.388   3.280   8.098
18013WAT     H154281   9.419   3.185   8.102
18013WAT     H254282   9.370   3.306   8.003
18014WAT      O54283   4.337   3.557   4.663
18014WAT     H154284   4.374   3.494   4.595
18014WAT     H254285   4.412   3.596   4.717
18015WAT      O54286   3.620   9.486   3.417
18015WAT     H154287   3.674   9.431   3.354
18015WAT     H254288   3.529   9.502   3.379
18016WAT      O54289   1.214   8.853   1.079
18016WAT     H154290   1.296   8.818   1.126
18016WAT     H254291   1.242   8.910   1.002
18017WAT      O54292   6.555   7.565   1.045
18017WAT     H154293   6.636   7.581   1.100
18017WAT     H254294   6.483   7.630   1.071
18018WAT      O54295   1.707   5.941   8.850
18018WAT     H154296   1.687   5.971   8.756
18018WAT     H254297   1.628   5.962   8.908
18019WAT      O54298   4.990   5.589   3.098
18019WAT     H154299   5.037   5.594   3.009
18019WAT     H254300   5.050   5.625   3.169
18020WAT      O54301   8.507   0.588   2.004
18020WAT     H154302   8.521   0.576   2.103
18020WAT     H254303   8.422   0.541   1.978
18021WAT      O54304   0.933   6.865   9.526
18021WAT     H154305   0.837   6.893   9.518
18021WAT     H254306   0.990   6.927   9.472
18022WAT      O54307   1.406   5.373   4.025
18022WAT     H154308   1.502   5.394   4.046
18022WAT     H254309   1.361   5.456   3.991
18023WAT      O54310   2.973   9.171   5.373
18023WAT     H154311   2.887   9.182   5.423
18023WAT     H254312   2.953   9.146   5.278
18024WAT      O54313   0.040   7.620   5.734
18024WAT     H154314   0.129   7.582   5.760
18024WAT     H254315   0.008   7.681   5.806
18025WAT      O54316   4.411   8.488   5.299
18025WAT     H154317   4.489   8.529   5.252
18025WAT     H254318   4.332   8.487   5.237
18026WAT      O54319   5.316   9.303   2.980
18026WAT     H154320   5.287   9.384   3.031
18026WAT     H254321   5.308   9.222   3.038
18027WAT      O54322   3.468   0.886   7.064
18027WAT     H154323   3.441   0.941   7.143
18027WAT     H254324   3.566   0.898   7.046
18028WAT      O54325   9.772   0.063   0.530
18028WAT     H154326   9.827   0.127   0.582
18028WAT     H254327   9.711   0.113   0.468
18029WAT      O54328   3.810   3.694   6.270
18029WAT     H154329   3.723   3.681   6.318
18029WAT     H254330   3.886   3.674   6.332
18030WAT      O54331   9.093   7.216   4.693
18030WAT     H154332   9.145   7.298   4.666
18030WAT     H254333   9.157   7.142   4.715
18031WAT      O54334   9.739   2.731   0.961
18031WAT     H154335   9.821   2.743   0.904
18031WAT     H254336   9.767   2.703   1.053
18032WAT      O54337   0.117   8.868   5.163
18032WAT     H154338   0.043   8.930   5.134
18032WAT     H254339   0.140   8.887   5.258
18033WAT      O54340   1.884   2.402   5.584
18033WAT     H154341   1.874   2.337   5.509
18033WAT     H254342   1.815   2.474   5.575
18034WAT      O54343   5.474   6.783   4.373
18034WAT     H154344   5.427   6.712   4.321
18034WAT     H254345   5.443   6.782   4.468
18035WAT      O54346   7.782   2.732   9.708
18035WAT     H154347   7.739   2.724   9.798
18035WAT     H254348   7.832   2.647   9.688
18036WAT      O54349   8.450   3.703   0.276
18036WAT     H154350   8.389   3.683   0.200
18036WAT     H254351   8.407   3.767   0.338
18037WAT      O54352   1.027   0.881   0.125
18037WAT     H154353   1.055   0.811   0.059
18037WAT     H254354   0.983   0.957   0.077
18038WAT      O54355   9.695   8.403   8.190
18038WAT     H154356   9.790   8.382   8.165
18038WAT     H254357   9.666   8.342   8.263
18039WAT      O54358   9.729   2.993   5.185
18039WAT     H154359   9.781   3.029   5.108
18039WAT     H254360   9.636   3.028   5.182
18040WAT      O54361   4.224   8.488   1.488
18040WAT     H154362   4.317   8.516   1.514
18040WAT     H254363   4.173   8.568   1.457
18041WAT      O54364   5.529   4.729   4.449
18041WAT     H154365   5.628   4.723   4.446
18041WAT     H254366   5.499   4.754   4.541
18042WAT      O54367   5.942   9.711   7.180
18042WAT     H154368   5.953   9.612   7.167
18042WAT     H254369   6.032   9.754   7.180
18043WAT      O54370   7.154   0.593   2.160
18043WAT     H154371   7.120   0.535   2.086
18043WAT     H254372   7.077   0.616   2.220
18044WAT      O54373   0.995   5.689   3.891
18044WAT     H154374   1.005   5.737   3.804
18044WAT     H254375   0.949   5.748   3.957
18045WAT      O54376   3.939   6.345   9.195
18045WAT     H154377   4.024   6.395   9.177
18045WAT     H254378   3.864   6.411   9.206
18046WAT      O54379   7.841   1.486   9.207
18046WAT     H154380   7.827   1.474   9.305
18046WAT     H254381   7.819   1.580   9.181
18047WAT      O54382   3.776   7.835   6.119
18047WAT     H154383   3.825   7.850   6.033
18047WAT     H254384   3.686   7.795   6.099
18048WAT      O54385   3.829   9.255   8.526
18048WAT     H154386   3.824   9.277   8.429
18048WAT     H254387   3.743   9.280   8.570
18049WAT      O54388   0.007   0.951   8.068
18049WAT     H154389  -0.058   0.926   7.995
18049WAT     H254390   0.100   0.932   8.037
18050WAT      O54391   4.048   3.267   3.539
18050WAT     H154392   4.084   3.332   3.606
18050WAT     H254393   4.078   3.292   3.447
18051WAT      O54394   2.682   4.794   7.987
18051WAT     H154395   2.602   4.843   7.953
18051WAT     H254396   2.664   4.760   8.079
18052WAT      O54397   7.466   5.922   9.654
18052WAT     H154398   7.376   5.878   9.665
18052WAT     H254399   7.454   6.012   9.612
18053WAT      O54400   6.017   7.121   9.501
18053WAT     H154401   6.001   7.061   9.579
18053WAT     H254402   5.975   7.211   9.518
18054WAT      O54403   3.250   2.725   1.994
18054WAT     H154404   3.185   2.659   1.956
18054WAT     H254405   3.308   2.680   2.061
18055WAT      O54406   0.463   2.454   3.333
18055WAT     H154407   0.442   2.358   3.353
18055WAT     H254408   0.475   2.465   3.234
18056WAT      O54409   7.575   4.025   0.895
18056WAT     H154410   7.501   4.045   0.959
18056WAT     H254411   7.655   4.079   0.920
18057WAT      O54412   8.430   0.888   5.014
18057WAT     H154413   8.420   0.832   5.097
18057WAT     H254414   8.473   0.975   5.038
18058WAT      O54415   4.330   4.310   8.781
18058WAT     H154416   4.405   4.251   8.755
18058WAT     H254417   4.245   4.278   8.738
18059WAT      O54418   9.014   9.168   8.275
18059WAT     H154419   8.933   9.120   8.308
18059WAT     H254420   9.082   9.174   8.348
18060WAT      O54421   0.019   9.422   1.064
18060WAT     H154422  -0.011   9.518   1.070
18060WAT     H254423   0.085   9.412   0.990
18061WAT      O54424   4.685   2.833   7.074
18061WAT     H154425   4.726   2.871   6.991
18061WAT     H254426   4.722   2.880   7.154
18062WAT      O54427   3.342   7.122   2.573
18062WAT     H154428   3.420   7.130   2.512
18062WAT     H254429   3.257   7.121   2.520
18063WAT      O54430   3.423   9.224   0.971
18063WAT     H154431   3.451   9.257   1.062
18063WAT     H254432   3.476   9.143   0.948
18064WAT      O54433   4.226   9.561   5.955
18064WAT     H154434   4.277   9.592   5.875
18064WAT     H254435   4.175   9.638   5.993
18065WAT      O54436   1.846   4.258   2.192
18065WAT     H154437   1.847   4.186   2.262
18065WAT     H254438   1.761   4.253   2.140
18066WAT      O54439   9.606   8.142   7.355
18066WAT     H154440   9.601   8.242   7.349
18066WAT     H254441   9.621   8.115   7.450
18067WAT      O54442   1.589   2.760   1.424
18067WAT     H154443   1.650   2.749   1.502
18067WAT     H254444   1.635   2.815   1.354
18068WAT      O54445   0.923   0.754   0.408
18068WAT     H154446   0.955   0.789   0.320
18068WAT     H254447   1.001   0.742   0.469
18069WAT      O54448   3.369   6.694   9.050
18069WAT     H154449   3.327   6.744   8.975
18069WAT     H254450   3.341   6.598   9.047
18070WAT      O54451   6.791   6.348   7.377
18070WAT     H154452   6.844   6.310   7.453
18070WAT     H254453   6.696   6.318   7.384
18071WAT      O54454   3.673   8.477   1.698
18071WAT     H154455   3.648   8.513   1.608
18071WAT     H254456   3.764   8.509   1.723
18072WAT      O54457   1.139   1.046   2.465
18072WAT     H154458   1.122   0.950   2.441
18072WAT     H254459   1.183   1.050   2.555
18073WAT      O54460   7.611   5.967   6.284
18073WAT     H154461   7.558   5.882   6.283
18073WAT     H254462   7.691   5.957   6.224
18074WAT      O54463   7.054   6.033   9.582
18074WAT     H154464   7.034   6.075   9.671
18074WAT     H254465   7.096   5.943   9.597
18075WAT      O54466   5.917   8.447   4.705
18075WAT     H154467   5.894   8.391   4.785
18075WAT     H254468   6.016   8.452   4.695
18076WAT      O54469   5.497   9.338   4.836
18076WAT     H154470   5.436   9.334   4.757
18076WAT     H254471   5.447   9.311   4.918
18077WAT      O54472   6.055   8.446   0.099
18077WAT     H154473   5.976   8.404   0.143
18077WAT     H254474   6.024   8.514   0.033
18078WAT      O54475   5.421   5.142   8.291
18078WAT     H154476   5.405   5.076   8.365
18078WAT     H254477   5.500   5.112   8.236
18079WAT      O54478   3.822   7.332   7.813
18079WAT     H154479   3.885   7.407   7.795
18079WAT     H254480   3.833   7.262   7.742
18080WAT      O54481   2.298   8.529   2.039
18080WAT     H154482   2.231   8.560   1.972
18080WAT     H254483   2.371   8.478   1.992
18081WAT      O54484   5.839   0.769   0.135
18081WAT     H154485   5.835   0.720   0.048
18081WAT     H254486   5.890   0.715   0.202
18082WAT      O54487   7.320   3.249   5.477
18082WAT     H154488   7.335   3.155   5.446
18082WAT     H254489   7.223   3.271   5.471
18083WAT      O54490   8.160   8.664   6.717
18083WAT     H154491   8.094   8.683   6.644
18083WAT     H254492   8.140   8.575   6.757
18084WAT      O54493   9.874   8.317   9.412
18084WAT     H154494   9.957   8.269   9.384
18084WAT     H254495   9.839   8.371   9.335
18085WAT      O54496   2.454   2.665   8.986
18085WAT     H154497   2.489   2.691   8.895
18085WAT     H254498   2.526   2.680   9.054
18086WAT      O54499   7.097   0.181   0.365
18086WAT     H154500   7.049   0.267   0.351
18086WAT     H254501   7.044   0.106   0.326
18087WAT      O54502   9.713   0.518   0.014
18087WAT     H154503   9.613   0.515   0.007
18087WAT     H254504   9.753   0.519  -0.078
18088WAT      O54505   6.499   2.852   6.773
18088WAT     H154506   6.462   2.842   6.680
18088WAT     H254507   6.425   2.841   6.840
18089WAT      O54508   4.420   2.569   1.848
18089WAT     H154509   4.327   2.532   1.855
18089WAT     H254510   4.473   2.540   1.927
18090WAT      O54511   5.335   6.220   2.814
18090WAT     H154512   5.343   6.315   2.782
18090WAT     H254513   5.249   6.181   2.782
18091WAT      O54514   5.779   9.035   0.057
18091WAT     H154515   5.819   9.085  -0.020
18091WAT     H254516   5.732   8.954   0.023
18092WAT      O54517   5.752   1.843   7.388
18092WAT     H154518   5.835   1.832   7.444
18092WAT     H254519   5.777   1.884   7.300
18093WAT      O54520   6.915   2.774   8.577
18093WAT     H154521   6.964   2.861   8.585
18093WAT     H254522   6.825   2.784   8.619
18094WAT      O54523   7.710   9.566   2.444
18094WAT     H154524   7.718   9.487   2.384
18094WAT     H254525   7.613   9.589   2.458
18095WAT      O54526   9.644   4.997   4.076
18095WAT     H154527   9.544   4.998   4.083
18095WAT     H254528   9.673   4.916   4.023
18096WAT      O54529   7.054   4.919   7.041
18096WAT     H154530   7.061   4.822   7.018
18096WAT     H254531   6.964   4.936   7.083
18097WAT      O54532   3.481   5.535   2.455
18097WAT     H154533   3.482   5.564   2.551
18097WAT     H254534   3.473   5.615   2.396
18098WAT      O54535   0.899   4.447   1.552
18098WAT     H154536   0.814   4.395   1.543
18098WAT     H254537   0.894   4.527   1.493
18099WAT      O54538   6.268   1.335   7.905
18099WAT     H154539   6.341   1.336   7.837
18099WAT     H254540   6.264   1.245   7.948
18100WAT      O54541   8.434   0.104   0.661
18100WAT     H154542   8.343   0.066   0.679
18100WAT     H254543   8.433   0.152   0.574
18101WAT      O54544   1.805   3.348   5.897
18101WAT     H154545   1.746   3.387   5.966
18101WAT     H254546   1.817   3.250   5.914
18102WAT      O54547   3.917   0.453   6.029
18102WAT     H154548   3.822   0.425   6.021
18102WAT     H254549   3.924   0.552   6.013
18103WAT      O54550   9.446   3.347   2.352
18103WAT     H154551   9.527   3.406   2.357
18103WAT     H254552   9.462   3.274   2.285
18104WAT      O54553   1.972   6.757   6.914
18104WAT     H154554   1.881   6.715   6.920
18104WAT     H254555   2.020   6.746   7.001
18105WAT      O54556   6.615   1.517   7.949
18105WAT     H154557   6.672   1.479   8.022
18105WAT     H254558   6.654   1.603   7.916
18106WAT      O54559   9.514   1.113   3.849
18106WAT     H154560   9.527   1.212   3.845
18106WAT     H254561   9.603   1.067   3.845
18107WAT      O54562   5.618   9.532   2.839
18107WAT     H154563   5.644   9.602   2.905
18107WAT     H254564   5.589   9.449   2.887
18108WAT      O54565   5.212   7.922   9.107
18108WAT     H154566   5.117   7.949   9.120
18108WAT     H254567   5.233   7.919   9.009
18109WAT      O54568   4.753   4.346   5.205
18109WAT     H154569   4.662   4.387   5.211
18109WAT     H254570   4.750   4.254   5.243
18110WAT      O54571   0.980   0.436   1.619
18110WAT     H154572   1.028   0.491   1.550
18110WAT     H254573   1.043   0.368   1.657
18111WAT      O54574   4.029   1.204   4.859
18111WAT     H154575   4.013   1.140   4.934
18111WAT     H254576   4.121   1.191   4.823
18112WAT      O54577   1.034   1.016   7.784
18112WAT     H154578   1.085   0.943   7.738
18112WAT     H254579   1.064   1.105   7.748
18113WAT      O54580   6.728   1.444   5.045
18113WAT     H154581   6.685   1.527   5.080
18113WAT     H254582   6.821   1.437   5.080
18114WAT      O54583   0.104   3.080   4.266
18114WAT     H154584   0.140   3.125   4.348
18114WAT     H254585   0.136   3.129   4.185
18115WAT      O54586   1.536   9.661   0.935
18115WAT     H154587   1.528   9.761   0.932
18115WAT     H254588   1.632   9.635   0.948
18116WAT      O54589   8.355   4.472   2.733
18116WAT     H154590   8.441   4.490   2.685
18116WAT     H254591   8.278   4.494   2.672
18117WAT      O54592   7.972   4.446   9.387
18117WAT     H154593   8.053   4.388   9.389
18117WAT     H254594   7.934   4.454   9.479
18118WAT      O54595   3.558   2.524   4.708
18118WAT     H154596   3.632   2.531   4.640
18118WAT     H254597   3.531   2.615   4.738
18119WAT      O54598   3.598   5.390   7.301
18119WAT     H154599   3.620   5.386   7.399
18119WAT     H254600   3.608   5.300   7.260
18120WAT      O54601   5.413   2.877   9.824
18120WAT     H154602   5.426   2.921   9.734
18120WAT     H254603   5.502   2.867   9.869
18121WAT      O54604   2.199   5.865   0.137
18121WAT     H154605   2.153   5.781   0.165
18121WAT     H254606   2.270   5.889   0.205
18122WAT      O54607   4.541   9.532   3.377
18122WAT     H154608   4.538   9.588   3.460
18122WAT     H254609   4.621   9.558   3.323
18123WAT      O54610   2.244   9.613   3.960
18123WAT     H154611   2.262   9.704   3.996
18123WAT     H254612   2.331   9.569   3.934
18124WAT      O54613   4.710   3.418   4.789
18124WAT     H154614   4.655   3.481   4.735
18124WAT     H254615   4.741   3.342   4.731
18125WAT      O54616   1.175   6.024   0.786
18125WAT     H154617   1.165   5.929   0.759
18125WAT     H254618   1.257   6.063   0.746
18126WAT      O54619   5.500   4.221   7.057
18126WAT     H154620   5.463   4.313   7.069
18126WAT     H254621   5.496   4.196   6.960
18127WAT      O54622   1.393   4.602   9.565
18127WAT     H154623   1.450   4.668   9.517
18127WAT     H254624   1.402   4.615   9.664
18128WAT      O54625   0.032   8.844   0.920
18128WAT     H154626   0.011   8.787   0.999
18128WAT     H254627   0.070   8.932   0.951
18129WAT      O54628   9.510   2.889   6.589
18129WAT     H154629   9.511   2.982   6.551
18129WAT     H254630   9.578   2.882   6.662
18130WAT      O54631   9.033   6.674   3.912
18130WAT     H154632   9.032   6.751   3.848
18130WAT     H254633   9.061   6.591   3.864
18131WAT      O54634   2.760   6.528   7.628
18131WAT     H154635   2.762   6.430   7.648
18131WAT     H254636   2.670   6.564   7.650
18132WAT      O54637   7.776   4.323   9.860
18132WAT     H154638   7.835   4.317   9.941
18132WAT     H254639   7.690   4.369   9.884
18133WAT      O54640   1.154   1.099   1.150
18133WAT     H154641   1.161   1.050   1.237
18133WAT     H254642   1.095   1.179   1.162
18134WAT      O54643   6.014   8.717   1.951
18134WAT     H154644   5.929   8.666   1.964
18134WAT     H254645   6.091   8.660   1.976
18135WAT      O54646   5.271   7.129   2.449
18135WAT     H154647   5.323   7.165   2.526
18135WAT     H254648   5.278   7.030   2.448
18136WAT      O54649   3.775   4.293   0.305
18136WAT     H154650   3.835   4.217   0.332
18136WAT     H254651   3.757   4.350   0.385
18137WAT      O54652   5.812   7.054   6.038
18137WAT     H154653   5.762   7.135   6.068
18137WAT     H254654   5.884   7.081   5.973
18138WAT      O54655   6.149   2.168   7.097
18138WAT     H154656   6.162   2.155   6.999
18138WAT     H254657   6.158   2.266   7.118
18139WAT      O54658   4.837   3.940   6.661
18139WAT     H154659   4.774   3.953   6.738
18139WAT     H254660   4.788   3.897   6.585
18140WAT      O54661   8.606   0.155   5.768
18140WAT     H154662   8.613   0.174   5.866
18140WAT     H254663   8.539   0.083   5.754
18141WAT      O54664   4.175   1.372   0.167
18141WAT     H154665   4.242   1.298   0.166
18141WAT     H254666   4.170   1.413   0.076
18142WAT      O54667   8.157   7.010   2.877
18142WAT     H154668   8.221   7.083   2.900
18142WAT     H254669   8.098   7.040   2.802
18143WAT      O54670   1.334   1.318   9.305
18143WAT     H154671   1.301   1.255   9.236
18143WAT     H254672   1.263   1.385   9.326
18144WAT      O54673   6.322   1.716   4.090
18144WAT     H154674   6.314   1.693   3.993
18144WAT     H254675   6.409   1.763   4.106
18145WAT      O54676   6.002   7.088   6.430
18145WAT     H154677   6.004   7.168   6.370
18145WAT     H254678   5.943   7.018   6.390
18146WAT      O54679   8.637   5.209   0.553
18146WAT     H154680   8.673   5.196   0.460
18146WAT     H254681   8.647   5.305   0.579
18147WAT      O54682   2.179   2.512   7.226
18147WAT     H154683   2.267   2.466   7.213
18147WAT     H254684   2.170   2.587   7.160
18148WAT      O54685   9.816   1.777   1.114
18148WAT     H154686   9.773   1.764   1.025
18148WAT     H254687   9.887   1.846   1.107
18149WAT      O54688   1.047   9.819   0.499
18149WAT     H154689   1.061   9.895   0.435
18149WAT     H254690   1.044   9.734   0.447
18150WAT      O54691   0.067   8.488   7.274
18150WAT     H154692   0.087   8.532   7.186
18150WAT     H254693   0.128   8.410   7.287
18151WAT      O54694   7.477   4.770   7.906
18151WAT     H154695   7.440   4.819   7.985
18151WAT     H254696   7.459   4.672   7.915
18152WAT      O54697   2.241   1.201   4.815
18152WAT     H154698   2.217   1.136   4.743
18152WAT     H254699   2.175   1.193   4.889
18153WAT      O54700   5.811   8.343   0.201
18153WAT     H154701   5.751   8.417   0.171
18153WAT     H254702   5.770   8.255   0.177
18154WAT      O54703   7.091   2.093   7.321
18154WAT     H154704   7.001   2.100   7.278
18154WAT     H254705   7.159   2.137   7.263
18155WAT      O54706   6.364   7.045   4.553
18155WAT     H154707   6.383   6.981   4.478
18155WAT     H254708   6.379   7.139   4.520
18156WAT      O54709   9.262   7.729   8.412
18156WAT     H154710   9.241   7.798   8.343
18156WAT     H254711   9.210   7.749   8.496
18157WAT      O54712   5.795   2.031   9.888
18157WAT     H154713   5.755   2.085   9.813
18157WAT     H254714   5.724   1.974   9.929
18158WAT      O54715   6.688   6.967   8.651
18158WAT     H154716   6.725   6.879   8.624
18158WAT     H254717   6.730   7.039   8.596
18159WAT      O54718   4.692   0.153   6.766
18159WAT     H154719   4.723   0.102   6.846
18159WAT     H254720   4.651   0.240   6.796
18160WAT      O54721   2.837   8.402   7.299
18160WAT     H154722   2.879   8.329   7.352
18160WAT     H254723   2.820   8.481   7.358
18161WAT      O54724   3.082   9.376   8.465
18161WAT     H154725   3.042   9.418   8.384
18161WAT     H254726   3.121   9.287   8.440
18162WAT      O54727   1.196   8.651   4.898
18162WAT     H154728   1.266   8.671   4.830
18162WAT     H254729   1.175   8.734   4.951
18163WAT      O54730   5.912   6.026   3.698
18163WAT     H154731   5.946   5.936   3.724
18163WAT     H254732   5.819   6.038   3.734
18164WAT      O54733   2.396   4.592   5.270
18164WAT     H154734   2.367   4.606   5.365
18164WAT     H254735   2.328   4.536   5.222
18165WAT      O54736   2.280   8.245   3.044
18165WAT     H154737   2.364   8.268   3.093
18165WAT     H254738   2.240   8.328   3.005
18166WAT      O54739   9.732   6.778   8.933
18166WAT     H154740   9.798   6.735   8.994
18166WAT     H254741   9.656   6.715   8.917
18167WAT      O54742   6.409   9.681   0.337
18167WAT     H154743   6.490   9.722   0.378
18167WAT     H254744   6.327   9.725   0.375
18168WAT      O54745   4.429   3.522   8.442
18168WAT     H154746   4.385   3.497   8.529
18168WAT     H254747   4.448   3.620   8.442
18169WAT      O54748   1.343   6.831   9.382
18169WAT     H154749   1.320   6.734   9.374
18169WAT     H254750   1.430   6.848   9.335
18170WAT      O54751   0.739   9.807   9.117
18170WAT     H154752   0.734   9.746   9.196
18170WAT     H254753   0.822   9.787   9.065
18171WAT      O54754   4.826   4.179   1.489
18171WAT     H154755   4.854   4.140   1.401
18171WAT     H254756   4.843   4.278   1.487
18172WAT      O54757   2.478   3.978   0.453
18172WAT     H154758   2.393   3.991   0.504
18172WAT     H254759   2.555   4.012   0.507
18173WAT      O54760   5.437   6.484   2.657
18173WAT     H154761   5.387   6.564   2.688
18173WAT     H254762   5.532   6.510   2.635
18174WAT      O54763   5.468   6.852   5.035
18174WAT     H154764   5.494   6.833   5.130
18174WAT     H254765   5.458   6.951   5.022
18175WAT      O54766   6.905   8.445   4.736
18175WAT     H154767   6.976   8.432   4.806
18175WAT     H254768   6.849   8.523   4.761
18176WAT      O54769   8.887   2.552   0.834
18176WAT     H154770   8.968   2.590   0.879
18176WAT     H254771   8.885   2.581   0.738
18177WAT      O54772   5.620   8.078   5.167
18177WAT     H154773   5.676   7.999   5.142
18177WAT     H254774   5.569   8.109   5.087
18178WAT      O54775   1.342   4.544   3.273
18178WAT     H154776   1.350   4.621   3.337
18178WAT     H254777   1.246   4.526   3.254
18179WAT      O54778   0.360   9.650   0.525
18179WAT     H154779   0.343   9.563   0.479
18179WAT     H254780   0.320   9.725   0.471
18180WAT      O54781   9.849   1.425   5.235
18180WAT     H154782   9.761   1.472   5.239
18180WAT     H254783   9.858   1.379   5.146
18181WAT      O54784   9.785   1.220   2.321
18181WAT     H154785   9.825   1.312   2.316
18181WAT     H254786   9.851   1.153   2.287
18182WAT      O54787   7.353   5.424   8.562
18182WAT     H154788   7.415   5.355   8.599
18182WAT     H254789   7.302   5.467   8.637
18183WAT      O54790   1.081   3.310   9.497
18183WAT     H154791   1.089   3.384   9.564
18183WAT     H254792   1.165   3.304   9.444
18184WAT      O54793   1.730   4.065   0.462
18184WAT     H154794   1.739   4.041   0.365
18184WAT     H254795   1.634   4.081   0.484
18185WAT      O54796   8.003   4.444   3.061
18185WAT     H154797   8.034   4.352   3.037
18185WAT     H254798   8.083   4.502   3.081
18186WAT      O54799   3.254   5.754   1.928
18186WAT     H154800   3.279   5.827   1.865
18186WAT     H254801   3.250   5.667   1.879
18187WAT      O54802   6.132   8.268   3.339
18187WAT     H154803   6.116   8.303   3.431
18187WAT     H254804   6.226   8.290   3.311
18188WAT      O54805   9.839   8.402   2.330
18188WAT     H154806   9.880   8.311   2.321
18188WAT     H254807   9.845   8.450   2.242
18189WAT      O54808   1.150   6.920   5.092
18189WAT     H154809   1.082   6.991   5.112
18189WAT     H254810   1.130   6.878   5.003
18190WAT      O54811   5.591   9.247   0.161
18190WAT     H154812   5.544   9.212   0.242
18190WAT     H254813   5.624   9.170   0.106
18191WAT      O54814   7.139   8.161   9.640
18191WAT     H154815   7.099   8.164   9.731
18191WAT     H254816   7.168   8.068   9.619
18192WAT      O54817   5.760   5.814   1.211
18192WAT     H154818   5.802   5.737   1.164
18192WAT     H254819   5.804   5.828   1.300
18193WAT      O54820   8.660   6.529   3.872
18193WAT     H154821   8.637   6.541   3.969
18193WAT     H254822   8.652   6.617   3.825
18194WAT      O54823   9.035   1.336   6.765
18194WAT     H154824   9.066   1.368   6.676
18194WAT     H254825   8.968   1.400   6.803
18195WAT      O54826   3.938   2.483   6.878
18195WAT     H154827   3.898   2.530   6.799
18195WAT     H254828   3.887   2.400   6.896
18196WAT      O54829   5.005   5.085   7.955
18196WAT     H154830   4.924   5.103   7.899
18196WAT     H254831   5.087   5.116   7.905
18197WAT      O54832   3.711   8.686   9.295
18197WAT     H154833   3.763   8.767   9.323
18197WAT     H254834   3.721   8.672   9.196
18198WAT      O54835   0.831   9.069   9.542
18198WAT     H154836   0.777   9.120   9.475
18198WAT     H254837   0.882   8.997   9.496
18199WAT      O54838   2.308   8.533   6.963
18199WAT     H154839   2.365   8.561   7.041
18199WAT     H254840   2.366   8.522   6.882
18200WAT      O54841   4.098   0.636   7.926
18200WAT     H154842   4.181   0.581   7.933
18200WAT     H254843   4.108   0.720   7.981
18201WAT      O54844   9.042   6.459   5.170
18201WAT     H154845   9.004   6.550   5.186
18201WAT     H254846   8.974   6.390   5.198
18202WAT      O54847   5.873   4.500   9.586
18202WAT     H154848   5.891   4.461   9.495
18202WAT     H254849   5.830   4.430   9.644
18203WAT      O54850   1.357   5.609   4.319
18203WAT     H154851   1.316   5.608   4.228
18203WAT     H254852   1.338   5.522   4.365
18204WAT      O54853   5.678   3.920   7.732
18204WAT     H154854   5.591   3.920   7.683
18204WAT     H254855   5.741   3.856   7.690
18205WAT      O54856   9.424   1.450   2.341
18205WAT     H154857   9.339   1.459   2.288
18205WAT     H254858   9.480   1.377   2.302
18206WAT      O54859   5.993   5.140   2.240
18206WAT     H154860   5.937   5.158   2.322
18206WAT     H254861   5.938   5.094   2.171
18207WAT      O54862   9.483   1.926   4.608
18207WAT     H154863   9.385   1.947   4.603
18207WAT     H254864   9.510   1.913   4.704
18208WAT      O54865   4.418   9.436   4.853
18208WAT     H154866   4.420   9.408   4.949
18208WAT     H254867   4.332   9.408   4.811
18209WAT      O54868   7.481   2.273   2.582
18209WAT     H154869   7.405   2.335   2.561
18209WAT     H254870   7.554   2.286   2.516
18210WAT      O54871   0.234   4.577   8.256
18210WAT     H154872   0.313   4.536   8.211
18210WAT     H254873   0.153   4.522   8.236
18211WAT      O54874   1.883   3.736   6.574
18211WAT     H154875   1.950   3.681   6.524
18211WAT     H254876   1.931   3.794   6.640
18212WAT      O54877   7.774   6.708   0.920
18212WAT     H154878   7.870   6.738   0.923
18212WAT     H254879   7.750   6.685   0.826
18213WAT      O54880   6.597   5.996   2.830
18213WAT     H154881   6.597   5.965   2.925
18213WAT     H254882   6.548   6.083   2.823
18214WAT      O54883   2.180   6.078   7.689
18214WAT     H154884   2.201   5.991   7.734
18214WAT     H254885   2.252   6.100   7.623
18215WAT      O54886   0.223   6.627   9.859
18215WAT     H154887   0.153   6.659   9.923
18215WAT     H254888   0.277   6.705   9.827
18216WAT      O54889   0.233   4.913   5.159
18216WAT     H154890   0.185   4.825   5.156
18216WAT     H254891   0.292   4.916   5.239
18217WAT      O54892   9.045   8.302   0.695
18217WAT     H154893   9.031   8.339   0.787
18217WAT     H254894   9.143   8.295   0.677
18218WAT      O54895   9.020   7.879   5.553
18218WAT     H154896   8.932   7.915   5.585
18218WAT     H254897   9.089   7.897   5.623
18219WAT      O54898   6.820   8.477   7.359
18219WAT     H154899   6.793   8.433   7.273
18219WAT     H254900   6.905   8.436   7.392
18220WAT      O54901   1.292   3.082   0.545
18220WAT     H154902   1.234   3.096   0.626
18220WAT     H254903   1.366   3.150   0.545
18221WAT      O54904   3.647   7.953   5.808
18221WAT     H154905   3.654   8.012   5.889
18221WAT     H254906   3.565   7.897   5.815
18222WAT      O54907   4.069   0.570   3.329
18222WAT     H154908   3.985   0.553   3.381
18222WAT     H254909   4.115   0.483   3.311
18223WAT      O54910   1.910   4.815   8.646
18223WAT     H154911   1.813   4.839   8.652
18223WAT     H254912   1.952   4.867   8.572
18224WAT      O54913   4.023   8.222   1.153
18224WAT     H154914   3.945   8.285   1.155
18224WAT     H254915   3.989   8.129   1.134
18225WAT      O54916   7.808   6.127   3.369
18225WAT     H154917   7.833   6.216   3.329
18225WAT     H254918   7.856   6.054   3.320
18226WAT      O54919   9.129   9.294   0.631
18226WAT     H154920   9.087   9.331   0.714
18226WAT     H254921   9.063   9.239   0.581
18227WAT      O54922   4.306   0.442   6.712
18227WAT     H154923   4.367   0.404   6.644
18227WAT     H254924   4.279   0.535   6.685
18228WAT      O54925   3.376   3.337   3.227
18228WAT     H154926   3.396   3.247   3.267
18228WAT     H254927   3.278   3.355   3.234
18229WAT      O54928   6.256   7.215   8.412
18229WAT     H154929   6.298   7.285   8.355
18229WAT     H254930   6.328   7.157   8.450
18230WAT      O54931   0.211   9.793   9.003
18230WAT     H154932   0.137   9.825   9.062
18230WAT     H254933   0.175   9.777   8.911
18231WAT      O54934   7.769   7.789   9.350
18231WAT     H154935   7.772   7.844   9.266
18231WAT     H254936   7.812   7.839   9.424
18232WAT      O54937   0.761   2.345   8.157
18232WAT     H154938   0.772   2.413   8.085
18232WAT     H254939   0.846   2.338   8.210
18233WAT      O54940   7.675   5.630   0.602
18233WAT     H154941   7.636   5.709   0.649
18233WAT     H254942   7.771   5.620   0.627
18234WAT      O54943   1.244   4.349   9.021
18234WAT     H154944   1.145   4.365   9.014
18234WAT     H254945   1.292   4.406   8.954
18235WAT      O54946   0.129   4.633   6.808
18235WAT     H154947   0.094   4.540   6.797
18235WAT     H254948   0.225   4.629   6.838
18236WAT      O54949   1.290   3.930   4.507
18236WAT     H154950   1.288   3.837   4.470
18236WAT     H254951   1.219   3.985   4.462
18237WAT      O54952   6.968   0.096   6.666
18237WAT     H154953   6.961   0.171   6.600
18237WAT     H254954   6.889   0.098   6.728
18238WAT      O54955   9.387   6.415   8.173
18238WAT     H154956   9.329   6.424   8.092
18238WAT     H254957   9.390   6.319   8.201
18239WAT      O54958   2.159   2.559   0.915
18239WAT     H154959   2.164   2.632   0.984
18239WAT     H254960   2.176   2.598   0.825
18240WAT      O54961   6.571   7.891   7.600
18240WAT     H154962   6.550   7.970   7.543
18240WAT     H254963   6.591   7.921   7.694
18241WAT      O54964   6.115   6.489   8.994
18241WAT     H154965   6.155   6.445   9.074
18241WAT     H254966   6.164   6.462   8.912
18242WAT      O54967   7.146   8.247   1.455
18242WAT     H154968   7.221   8.295   1.409
18242WAT     H254969   7.147   8.270   1.552
18243WAT      O54970   2.302   9.098   2.449
18243WAT     H154971   2.211   9.090   2.409
18243WAT     H254972   2.332   9.009   2.483
18244WAT      O54973   5.150   6.358   0.241
18244WAT     H154974   5.233   6.310   0.212
18244WAT     H254975   5.136   6.438   0.183
18245WAT      O54976   8.396   9.311   0.970
18245WAT     H154977   8.477   9.369   0.977
18245WAT     H254978   8.328   9.354   0.910
18246WAT      O54979   3.512   2.425   6.493
18246WAT     H154980   3.569   2.345   6.509
18246WAT     H254981   3.434   2.399   6.435
18247WAT      O54982   4.243   8.860   9.019
18247WAT     H154983   4.295   8.930   9.068
18247WAT     H254984   4.251   8.773   9.067
18248WAT      O54985   7.685   3.177   4.031
18248WAT     H154986   7.652   3.101   4.086
18248WAT     H254987   7.783   3.188   4.045
18249WAT      O54988   6.890   6.738   7.731
18249WAT     H154989   6.871   6.833   7.707
18249WAT     H254990   6.839   6.677   7.670
18250WAT      O54991   9.834   4.734   0.221
18250WAT     H154992   9.928   4.734   0.257
18250WAT     H254993   9.788   4.818   0.250
18251WAT      O54994   6.026   7.490   5.223
18251WAT     H154995   5.940   7.532   5.252
18251WAT     H254996   6.006   7.407   5.171
18252WAT      O54997   8.095   7.097   1.224
18252WAT     H154998   8.052   7.083   1.313
18252WAT     H254999   8.189   7.128   1.238
18253WAT      O55000   4.776   2.935   4.315
18253WAT     H155001   4.775   2.897   4.223
18253WAT     H255002   4.729   3.023   4.316
18254WAT      O55003   6.420   6.970   7.645
18254WAT     H155004   6.359   7.015   7.710
18254WAT     H255005   6.404   7.007   7.554
18255WAT      O55006   5.985   7.632   5.900
18255WAT     H155007   5.934   7.679   5.828
18255WAT     H255008   6.083   7.649   5.887
18256WAT      O55009   5.448   8.224   4.310
18256WAT     H155010   5.471   8.319   4.288
18256WAT     H255011   5.514   8.189   4.377
18257WAT      O55012   6.609   2.076   2.113
18257WAT     H155013   6.633   2.115   2.023
18257WAT     H255014   6.524   2.025   2.105
18258WAT      O55015   8.832   5.432   0.889
18258WAT     H155016   8.789   5.463   0.974
18258WAT     H255017   8.764   5.431   0.816
18259WAT      O55018   7.193   4.428   5.615
18259WAT     H155019   7.223   4.468   5.702
18259WAT     H255020   7.109   4.472   5.586
18260WAT      O55021   9.818   4.482   4.950
18260WAT     H155022   9.786   4.478   5.045
18260WAT     H255023   9.918   4.489   4.948
18261WAT      O55024   9.591   9.266   3.577
18261WAT     H155025   9.618   9.300   3.667
18261WAT     H255026   9.659   9.293   3.509
18262WAT      O55027   5.603   1.745   3.504
18262WAT     H155028   5.553   1.665   3.471
18262WAT     H255029   5.679   1.715   3.562
18263WAT      O55030   6.020   6.563   7.357
18263WAT     H155031   6.074   6.628   7.412
18263WAT     H255032   6.081   6.514   7.295
18264WAT      O55033   5.305   4.219   1.526
18264WAT     H155034   5.294   4.199   1.429
18264WAT     H255035   5.241   4.291   1.553
18265WAT      O55036   9.454   2.288   8.285
18265WAT     H155037   9.546   2.327   8.287
18265WAT     H255038   9.428   2.267   8.191
18266WAT      O55039   8.796   0.256   3.517
18266WAT     H155040   8.718   0.237   3.457
18266WAT     H255041   8.817   0.354   3.514
18267WAT      O55042   1.592   0.626   9.762
18267WAT     H155043   1.519   0.694   9.762
18267WAT     H255044   1.604   0.590   9.669
18268WAT      O55045   9.198   2.166   5.183
18268WAT     H155046   9.209   2.087   5.122
18268WAT     H255047   9.101   2.179   5.203
18269WAT      O55048   5.294   4.286   0.543
18269WAT     H155049   5.262   4.378   0.564
18269WAT     H255050   5.318   4.238   0.628
18270WAT      O55051   1.283   5.625   5.821
18270WAT     H155052   1.296   5.535   5.862
18270WAT     H255053   1.373   5.662   5.794
18271WAT      O55054   8.287   5.837   8.857
18271WAT     H155055   8.318   5.839   8.762
18271WAT     H255056   8.345   5.898   8.912
18272WAT      O55057   6.231   7.676   5.660
18272WAT     H155058   6.200   7.643   5.571
18272WAT     H255059   6.300   7.613   5.697
18273WAT      O55060   1.055   9.016   4.473
18273WAT     H155061   1.121   9.076   4.519
18273WAT     H255062   1.035   8.938   4.532
18274WAT      O55063   2.366   5.667   7.659
18274WAT     H155064   2.380   5.582   7.710
18274WAT     H255065   2.357   5.646   7.561
18275WAT      O55066   6.127   2.142   0.386
18275WAT     H155067   6.221   2.113   0.365
18275WAT     H255068   6.093   2.198   0.311
18276WAT      O55069   4.954   5.170   1.232
18276WAT     H155070   4.981   5.263   1.259
18276WAT     H255071   4.981   5.106   1.304
18277WAT      O55072   7.991   7.371   4.516
18277WAT     H155073   8.068   7.333   4.465
18277WAT     H255074   7.928   7.416   4.453
18278WAT      O55075   9.634   0.257   5.384
18278WAT     H155076   9.732   0.273   5.401
18278WAT     H255077   9.588   0.346   5.372
18279WAT      O55078   0.900   5.772   6.630
18279WAT     H155079   0.914   5.773   6.531
18279WAT     H255080   0.844   5.693   6.654
18280WAT      O55081   3.341   4.443   5.178
18280WAT     H155082   3.308   4.502   5.104
18280WAT     H255083   3.264   4.395   5.219
18281WAT      O55084   0.198   2.319   0.933
18281WAT     H155085   0.272   2.257   0.906
18281WAT     H255086   0.221   2.412   0.903
18282WAT      O55087   6.923   6.855   5.817
18282WAT     H155088   6.981   6.852   5.898
18282WAT     H255089   6.964   6.801   5.744
18283WAT      O55090   6.982   5.964   7.216
18283WAT     H155091   7.041   5.886   7.238
18283WAT     H255092   6.918   5.979   7.290
18284WAT      O55093   4.287   2.477   3.359
18284WAT     H155094   4.356   2.549   3.356
18284WAT     H255095   4.196   2.517   3.351
18285WAT      O55096   1.370   4.708   2.502
18285WAT     H155097   1.412   4.794   2.471
18285WAT     H255098   1.404   4.685   2.592
18286WAT      O55099   3.219   8.823   1.311
18286WAT     H155100   3.198   8.914   1.274
18286WAT     H255101   3.200   8.753   1.243
18287WAT      O55102   1.022   2.832   5.981
18287WAT     H155103   1.004   2.781   6.064
18287WAT     H255104   1.097   2.896   5.996
18288WAT      O55105   6.034   2.450   5.638
18288WAT     H155106   6.123   2.489   5.616
18288WAT     H255107   5.963   2.519   5.624
18289WAT      O55108   9.677   1.285   6.620
18289WAT     H155109   9.736   1.321   6.693
18289WAT     H255110   9.679   1.347   6.542
18290WAT      O55111   2.420   0.008   5.228
18290WAT     H155112   2.519  -0.004   5.222
18290WAT     H255113   2.398   0.105   5.228
18291WAT      O55114   4.749   6.431   7.235
18291WAT     H155115   4.772   6.511   7.180
18291WAT     H255116   4.696   6.367   7.181
18292WAT      O55117   4.914   7.941   0.642
18292WAT     H155118   4.856   8.021   0.645
18292WAT     H255119   4.876   7.870   0.703
18293WAT      O55120   3.151   5.406   5.063
18293WAT     H155121   3.233   5.350   5.076
18293WAT     H255122   3.110   5.426   5.152
18294WAT      O55123   6.963   4.801   6.552
18294WAT     H155124   6.965   4.896   6.581
18294WAT     H255125   6.880   4.784   6.498
18295WAT      O55126   1.772   6.875   2.379
18295WAT     H155127   1.848   6.920   2.332
18295WAT     H255128   1.707   6.944   2.412
18296WAT      O55129   8.254   4.175   4.520
18296WAT     H155130   8.351   4.172   4.492
18296WAT     H255131   8.227   4.084   4.553
18297WAT      O55132   0.710   9.376   4.315
18297WAT     H155133   0.782   9.424   4.365
18297WAT     H255134   0.736   9.280   4.302
18298WAT      O55135   3.062   1.197   3.261
18298WAT     H155136   2.984   1.187   3.324
18298WAT     H255137   3.141   1.230   3.312
18299WAT      O55138   6.677   2.679   0.108
18299WAT     H155139   6.739   2.693   0.031
18299WAT     H255140   6.622   2.761   0.122
18300WAT      O55141   3.611   6.999   4.732
18300WAT     H155142   3.615   7.099   4.728
18300WAT     H255143   3.689   6.964   4.783
18301WAT      O55144   0.346   9.251   6.464
18301WAT     H155145   0.257   9.222   6.499
18301WAT     H255146   0.352   9.229   6.366
18302WAT      O55147   0.090   1.643   1.701
18302WAT     H155148   0.039   1.654   1.786
18302WAT     H255149   0.049   1.568   1.648
18303WAT      O55150   3.125   9.375   4.178
18303WAT     H155151   3.143   9.355   4.274
18303WAT     H255152   3.203   9.346   4.123
18304WAT      O55153   8.613   2.131   1.066
18304WAT     H155154   8.634   2.094   1.157
18304WAT     H255155   8.620   2.231   1.069
18305WAT      O55156   1.761   2.420   8.997
18305WAT     H155157   1.801   2.497   9.048
18305WAT     H255158   1.829   2.384   8.933
18306WAT      O55159   8.234   8.193   9.583
18306WAT     H155160   8.215   8.209   9.680
18306WAT     H255161   8.272   8.276   9.542
18307WAT      O55162   3.046   5.504   0.429
18307WAT     H155163   3.136   5.467   0.450
18307WAT     H255164   3.048   5.548   0.339
18308WAT      O55165   5.797   4.828   1.515
18308WAT     H155166   5.747   4.799   1.433
18308WAT     H255167   5.892   4.797   1.509
18309WAT      O55168   9.118   8.222   9.186
18309WAT     H155169   9.161   8.256   9.270
18309WAT     H255170   9.034   8.273   9.168
18310WAT      O55171   7.484   5.828   9.386
18310WAT     H155172   7.512   5.849   9.480
18310WAT     H255173   7.558   5.778   9.340
18311WAT      O55174   7.402   2.648   1.538
18311WAT     H155175   7.462   2.721   1.570
18311WAT     H255176   7.308   2.665   1.569
18312WAT      O55177   8.134   5.273   9.599
18312WAT     H155178   8.182   5.347   9.551
18312WAT     H255179   8.071   5.227   9.536
18313WAT      O55180   7.113   3.668   6.443
18313WAT     H155181   7.109   3.632   6.536
18313WAT     H255182   7.118   3.592   6.378
18314WAT      O55183   1.186   2.915   7.566
18314WAT     H155184   1.232   2.971   7.635
18314WAT     H255185   1.119   2.970   7.516
18315WAT      O55186   5.003   3.670   9.058
18315WAT     H155187   4.971   3.673   8.963
18315WAT     H255188   5.089   3.718   9.066
18316WAT      O55189   8.424   6.917   3.094
18316WAT     H155190   8.437   6.819   3.081
18316WAT     H255191   8.430   6.964   3.005
18317WAT      O55192   9.473   9.431   6.966
18317WAT     H155193   9.479   9.332   6.950
18317WAT     H255194   9.535   9.478   6.903
18318WAT      O55195   2.175   9.587   6.147
18318WAT     H155196   2.272   9.602   6.165
18318WAT     H255197   2.135   9.533   6.222
18319WAT      O55198   2.411   7.185   4.543
18319WAT     H155199   2.491   7.152   4.592
18319WAT     H255200   2.424   7.171   4.445
18320WAT      O55201   8.302   3.740   5.074
18320WAT     H155202   8.367   3.807   5.107
18320WAT     H255203   8.318   3.652   5.120
18321WAT      O55204   0.529   0.362   4.631
18321WAT     H155205   0.625   0.390   4.625
18321WAT     H255206   0.473   0.442   4.656
18322WAT      O55207   0.498   4.110   3.037
18322WAT     H155208   0.513   4.188   2.976
18322WAT     H255209   0.502   4.025   2.984
18323WAT      O55210   2.696   8.123   9.084
18323WAT     H155211   2.721   8.027   9.068
18323WAT     H255212   2.689   8.170   8.996
18324WAT      O55213   5.750   4.720   4.018
18324WAT     H155214   5.764   4.795   3.953
18324WAT     H255215   5.801   4.640   3.989
18325WAT      O55216   8.267   2.934   9.439
18325WAT     H155217   8.294   3.015   9.491
18325WAT     H255218   8.170   2.942   9.414
18326WAT      O55219   7.183   9.145   1.174
18326WAT     H155220   7.221   9.217   1.232
18326WAT     H255221   7.201   9.167   1.078
18327WAT      O55222   7.707   1.983   3.013
18327WAT     H155223   7.711   2.054   2.942
18327WAT     H255224   7.799   1.970   3.052
18328WAT      O55225   8.387   6.959   5.021
18328WAT     H155226   8.486   6.958   5.031
18328WAT     H255227   8.350   6.870   5.049
18329WAT      O55228   8.034   8.656   0.660
18329WAT     H155229   7.945   8.689   0.629
18329WAT     H255230   8.058   8.572   0.611
18330WAT      O55231   5.352   7.054   2.996
18330WAT     H155232   5.399   6.967   2.979
18330WAT     H255233   5.409   7.130   2.965
18331WAT      O55234   5.664   6.092   8.181
18331WAT     H155235   5.671   6.100   8.082
18331WAT     H255236   5.742   6.042   8.217
18332WAT      O55237   9.302   3.438   3.398
18332WAT     H155238   9.236   3.379   3.446
18332WAT     H255239   9.253   3.496   3.333
18333WAT      O55240   8.326   8.100   7.648
18333WAT     H155241   8.227   8.109   7.656
18333WAT     H255242   8.349   8.009   7.613
18334WAT      O55243   0.470   9.153   7.029
18334WAT     H155244   0.548   9.204   6.993
18334WAT     H255245   0.449   9.185   7.121
18335WAT      O55246   8.091   8.773   5.950
18335WAT     H155247   8.124   8.835   5.879
18335WAT     H255248   8.160   8.762   6.021
18336WAT      O55249   1.000   3.161   1.815
18336WAT     H155250   0.952   3.074   1.823
18336WAT     H255251   0.954   3.219   1.748
18337WAT      O55252   7.906   6.334   8.444
18337WAT     H155253   7.966   6.390   8.501
18337WAT     H255254   7.812   6.367   8.452
18338WAT      O55255   7.044   2.180   9.585
18338WAT     H155256   7.016   2.118   9.512
18338WAT     H255257   7.042   2.132   9.672
18339WAT      O55258   6.732   7.623   3.403
18339WAT     H155259   6.814   7.592   3.452
18339WAT     H255260   6.651   7.576   3.440
18340WAT      O55261   2.630   5.440   6.190
18340WAT     H155262   2.565   5.516   6.181
18340WAT     H255263   2.581   5.358   6.217
18341WAT      O55264   2.996   4.648   7.661
18341WAT     H155265   2.986   4.743   7.693
18341WAT     H255266   3.087   4.615   7.684
18342WAT      O55267   2.266   0.753   4.385
18342WAT     H155268   2.251   0.808   4.303
18342WAT     H255269   2.302   0.812   4.458
18343WAT      O55270   6.774   7.048   3.321
18343WAT     H155271   6.691   7.059   3.377
18343WAT     H255272   6.841   6.994   3.371
18344WAT      O55273   6.298   0.625   0.698
18344WAT     H155274   6.387   0.670   0.709
18344WAT     H255275   6.249   0.626   0.786
18345WAT      O55276   6.576   0.638   5.159
18345WAT     H155277   6.587   0.725   5.111
18345WAT     H255278   6.665   0.594   5.167
18346WAT      O55279   2.609   5.296   9.232
18346WAT     H155280   2.528   5.353   9.244
18346WAT     H255281   2.586   5.201   9.252
18347WAT      O55282   7.304   1.079   4.745
18347WAT     H155283   7.345   1.143   4.811
18347WAT     H255284   7.210   1.105   4.728
18348WAT      O55285   7.326   8.017   3.590
18348WAT     H155286   7.270   8.074   3.531
18348WAT     H255287   7.422   8.043   3.579
18349WAT      O55288   4.102   0.359   2.984
18349WAT     H155289   4.168   0.314   2.924
18349WAT     H255290   4.145   0.374   3.074
18350WAT      O55291   7.771   7.728   3.004
18350WAT     H155292   7.774   7.718   2.905
18350WAT     H255293   7.853   7.688   3.045
18351WAT      O55294   4.605   2.007   4.675
18351WAT     H155295   4.589   2.100   4.643
18351WAT     H255296   4.703   1.988   4.674
18352WAT      O55297   4.650   7.358   1.583
18352WAT     H155298   4.730   7.400   1.626
18352WAT     H255299   4.669   7.263   1.561
18353WAT      O55300   9.880   4.384   2.851
18353WAT     H155301   9.834   4.297   2.869
18353WAT     H255302   9.897   4.394   2.753
18354WAT      O55303   3.727   0.231   9.461
18354WAT     H155304   3.650   0.219   9.398
18354WAT     H255305   3.808   0.186   9.423
18355WAT      O55306   9.297   5.302   6.141
18355WAT     H155307   9.395   5.313   6.158
18355WAT     H255308   9.280   5.214   6.096
18356WAT      O55309   9.396   5.231   3.319
18356WAT     H155310   9.322   5.276   3.268
18356WAT     H255311   9.379   5.240   3.417
18357WAT      O55312   9.619   8.996   3.585
18357WAT     H155313   9.665   8.967   3.501
18357WAT     H255314   9.595   9.093   3.578
18358WAT      O55315   2.768   4.987   1.700
18358WAT     H155316   2.716   4.985   1.785
18358WAT     H255317   2.714   5.033   1.629
18359WAT      O55318   1.817   4.933   0.356
18359WAT     H155319   1.900   4.887   0.325
18359WAT     H255320   1.745   4.923   0.288
18360WAT      O55321   0.209   2.121   4.579
18360WAT     H155322   0.255   2.062   4.645
18360WAT     H255323   0.165   2.064   4.509
18361WAT      O55324   1.400   6.705   9.057
18361WAT     H155325   1.328   6.639   9.078
18361WAT     H255326   1.373   6.761   8.978
18362WAT      O55327   4.447   1.780   3.150
18362WAT     H155328   4.543   1.800   3.128
18362WAT     H255329   4.424   1.689   3.114
18363WAT      O55330   3.357   7.481   1.326
18363WAT     H155331   3.273   7.490   1.379
18363WAT     H255332   3.401   7.394   1.349
18364WAT      O55333   7.479   6.497   4.269
18364WAT     H155334   7.485   6.585   4.222
18364WAT     H255335   7.556   6.488   4.333
18365WAT      O55336   1.751   7.024   3.729
18365WAT     H155337   1.797   6.954   3.783
18365WAT     H255338   1.769   7.115   3.768
18366WAT      O55339   7.274   8.743   2.889
18366WAT     H155340   7.252   8.735   2.792
18366WAT     H255341   7.308   8.835   2.908
18367WAT      O55342   7.240   7.532   5.303
18367WAT     H155343   7.275   7.558   5.213
18367WAT     H255344   7.165   7.593   5.328
18368WAT      O55345   7.661   4.948   4.831
18368WAT     H155346   7.745   5.003   4.838
18368WAT     H255347   7.675   4.861   4.880
18369WAT      O55348   7.290   2.155   1.023
18369WAT     H155349   7.192   2.173   1.027
18369WAT     H255350   7.340   2.241   1.020
18370WAT      O55351   9.800   1.399   8.341
18370WAT     H155352   9.880   1.434   8.291
18370WAT     H255353   9.772   1.311   8.301
18371WAT      O55354   3.508   6.012   5.350
18371WAT     H155355   3.566   5.999   5.430
18371WAT     H255356   3.521   6.104   5.314
18372WAT      O55357   5.512   6.522   8.406
18372WAT     H155358   5.528   6.425   8.388
18372WAT     H255359   5.557   6.548   8.491
18373WAT      O55360   9.635   3.919   9.396
18373WAT     H155361   9.683   3.896   9.311
18373WAT     H255362   9.687   3.884   9.474
18374WAT      O55363   9.373   2.903   9.145
18374WAT     H155364   9.447   2.930   9.082
18374WAT     H255365   9.286   2.935   9.108
18375WAT      O55366   4.407   3.028   4.153
18375WAT     H155367   4.433   3.057   4.061
18375WAT     H255368   4.398   2.928   4.156
18376WAT      O55369   8.058   9.254   4.847
18376WAT     H155370   8.101   9.206   4.770
18376WAT     H255371   8.075   9.352   4.839
18377WAT      O55372   4.175   7.553   0.506
18377WAT     H155373   4.268   7.530   0.535
18377WAT     H255374   4.114   7.476   0.527
18378WAT      O55375   7.468   6.747   9.505
18378WAT     H155376   7.409   6.762   9.584
18378WAT     H255377   7.452   6.820   9.438
18379WAT      O55378   4.678   7.532   5.442
18379WAT     H155379   4.686   7.438   5.408
18379WAT     H255380   4.676   7.595   5.365
18380WAT      O55381   3.460   8.204   0.547
18380WAT     H155382   3.545   8.177   0.593
18380WAT     H255383   3.396   8.127   0.547
18381WAT      O55384   4.262   7.854   8.115
18381WAT     H155385   4.360   7.871   8.105
18381WAT     H255386   4.232   7.789   8.045
18382WAT      O55387   8.191   9.725   5.365
18382WAT     H155388   8.127   9.801   5.350
18382WAT     H255389   8.251   9.716   5.285
18383WAT      O55390   8.615   0.321   1.573
18383WAT     H155391   8.574   0.406   1.539
18383WAT     H255392   8.662   0.274   1.498
18384WAT      O55393   5.187   1.951   4.890
18384WAT     H155394   5.243   2.021   4.847
18384WAT     H255395   5.246   1.890   4.943
18385WAT      O55396   6.299   3.324   2.609
18385WAT     H155397   6.233   3.269   2.659
18385WAT     H255398   6.381   3.269   2.591
18386WAT      O55399   4.306   4.025   2.003
18386WAT     H155400   4.301   4.076   2.089
18386WAT     H255401   4.288   3.928   2.021
18387WAT      O55402   6.685   6.748   5.109
18387WAT     H155403   6.600   6.765   5.059
18387WAT     H255404   6.753   6.711   5.046
18388WAT      O55405   8.299   1.798   5.002
18388WAT     H155406   8.301   1.834   4.908
18388WAT     H255407   8.392   1.797   5.038
18389WAT      O55408   0.911   8.787   1.322
18389WAT     H155409   0.829   8.752   1.278
18389WAT     H255410   0.984   8.719   1.317
18390WAT      O55411   1.173   2.089   3.881
18390WAT     H155412   1.225   2.004   3.870
18390WAT     H255413   1.236   2.164   3.901
18391WAT      O55414   9.400   0.992   2.098
18391WAT     H155415   9.319   0.994   2.156
18391WAT     H255416   9.434   0.898   2.093
18392WAT      O55417   1.151   5.264   7.500
18392WAT     H155418   1.107   5.339   7.450
18392WAT     H255419   1.242   5.293   7.530
18393WAT      O55420   7.866   3.053   4.316
18393WAT     H155421   7.854   3.140   4.364
18393WAT     H255422   7.916   2.990   4.375
18394WAT      O55423   0.392   1.877   4.357
18394WAT     H155424   0.407   1.851   4.262
18394WAT     H255425   0.304   1.840   4.388
18395WAT      O55426   1.988   6.431   4.712
18395WAT     H155427   1.916   6.496   4.686
18395WAT     H255428   2.077   6.475   4.702
18396WAT      O55429   8.034   3.036   4.095
18396WAT     H155430   7.973   3.055   4.172
18396WAT     H255431   8.039   3.116   4.035
18397WAT      O55432   5.366   7.534   3.273
18397WAT     H155433   5.364   7.439   3.304
18397WAT     H255434   5.455   7.575   3.293
18398WAT      O55435   9.006   5.696   2.483
18398WAT     H155436   9.102   5.681   2.505
18398WAT     H255437   8.950   5.629   2.531
18399WAT      O55438   6.915   3.439   6.692
18399WAT     H155439   6.976   3.514   6.718
18399WAT     H255440   6.935   3.409   6.600
18400WAT      O55441   3.664   5.998   6.355
18400WAT     H155442   3.712   5.948   6.283
18400WAT     H255443   3.712   6.083   6.374
18401WAT      O55444   6.093   8.948   0.132
18401WAT     H155445   6.107   9.046   0.125
18401WAT     H255446   6.134   8.914   0.217
18402WAT      O55447   2.293   6.323   2.909
18402WAT     H155448   2.253   6.365   2.827
18402WAT     H255449   2.296   6.224   2.897
18403WAT      O55450   9.315   4.139   4.287
18403WAT     H155451   9.254   4.213   4.257
18403WAT     H255452   9.398   4.178   4.327
18404WAT      O55453   8.163   1.790   8.206
18404WAT     H155454   8.180   1.697   8.176
18404WAT     H255455   8.185   1.854   8.132
18405WAT      O55456   9.520   6.197   1.166
18405WAT     H155457   9.509   6.153   1.077
18405WAT     H255458   9.600   6.257   1.164
18406WAT      O55459   1.321   8.873   5.258
18406WAT     H155460   1.382   8.922   5.197
18406WAT     H255461   1.312   8.778   5.228
18407WAT      O55462   4.777   5.310   6.796
18407WAT     H155463   4.682   5.293   6.771
18407WAT     H255464   4.819   5.372   6.730
18408WAT      O55465   5.234   0.993   5.092
18408WAT     H155466   5.315   0.940   5.116
18408WAT     H255467   5.154   0.956   5.139
18409WAT      O55468   7.636   0.011   9.479
18409WAT     H155469   7.673  -0.076   9.511
18409WAT     H255470   7.687   0.042   9.399
18410WAT      O55471   2.856   4.987   6.179
18410WAT     H155472   2.903   4.899   6.167
18410WAT     H255473   2.823   4.994   6.273
18411WAT      O55474   8.782   0.514   0.525
18411WAT     H155475   8.784   0.549   0.432
18411WAT     H255476   8.865   0.461   0.543
18412WAT      O55477   9.811   2.015   2.698
18412WAT     H155478   9.849   1.950   2.632
18412WAT     H255479   9.885   2.071   2.736
18413WAT      O55480   0.152   5.032   0.232
18413WAT     H155481   0.124   5.121   0.196
18413WAT     H255482   0.093   5.007   0.309
18414WAT      O55483   7.272   3.841   4.151
18414WAT     H155484   7.241   3.932   4.179
18414WAT     H255485   7.333   3.849   4.073
18415WAT      O55486   0.334   8.620   6.161
18415WAT     H155487   0.373   8.669   6.083
18415WAT     H255488   0.287   8.538   6.128
18416WAT      O55489   6.181   7.534   6.547
18416WAT     H155490   6.107   7.541   6.480
18416WAT     H255491   6.147   7.557   6.638
18417WAT      O55492   5.599   0.591   9.534
18417WAT     H155493   5.524   0.651   9.507
18417WAT     H255494   5.681   0.614   9.480
18418WAT      O55495   2.924   6.801   4.130
18418WAT     H155496   2.978   6.837   4.206
18418WAT     H255497   2.979   6.805   4.046
18419WAT      O55498   8.640   2.267   7.942
18419WAT     H155499   8.608   2.248   8.035
18419WAT     H255500   8.692   2.353   7.942
18420WAT      O55501   8.667   3.244   8.058
18420WAT     H155502   8.613   3.327   8.045
18420WAT     H255503   8.618   3.182   8.120
18421WAT      O55504   4.628   2.142   2.784
18421WAT     H155505   4.675   2.185   2.707
18421WAT     H255506   4.562   2.075   2.749
18422WAT      O55507   5.416   1.030   4.806
18422WAT     H155508   5.331   1.084   4.814
18422WAT     H255509   5.493   1.084   4.840
18423WAT      O55510   8.562   8.513   1.430
18423WAT     H155511   8.599   8.539   1.341
18423WAT     H255512   8.621   8.444   1.472
18424WAT      O55513   1.218   8.845   3.790
18424WAT     H155514   1.294   8.813   3.734
18424WAT     H255515   1.254   8.881   3.877
18425WAT      O55516   3.543   3.298   7.957
18425WAT     H155517   3.619   3.259   7.905
18425WAT     H255518   3.460   3.295   7.902
18426WAT      O55519   2.355   2.042   8.454
18426WAT     H155520   2.313   2.123   8.415
18426WAT     H255521   2.436   2.017   8.401
18427WAT      O55522   8.420   4.969   6.129
18427WAT     H155523   8.475   4.892   6.095
18427WAT     H255524   8.346   4.934   6.186
18428WAT      O55525   5.593   6.438   5.742
18428WAT     H155526   5.566   6.376   5.668
18428WAT     H255527   5.629   6.523   5.702
18429WAT      O55528   2.350   4.203   4.181
18429WAT     H155529   2.311   4.293   4.198
18429WAT     H255530   2.278   4.134   4.188
18430WAT      O55531   6.172   0.651   9.597
18430WAT     H155532   6.254   0.603   9.565
18430WAT     H255533   6.195   0.707   9.676
18431WAT      O55534   6.032   1.012   3.945
18431WAT     H155535   6.049   1.108   3.920
18431WAT     H255536   6.052   0.954   3.866
18432WAT      O55537   6.285   3.368   2.924
18432WAT     H155538   6.199   3.332   2.888
18432WAT     H255539   6.314   3.446   2.869
18433WAT      O55540   4.903   0.019   1.792
18433WAT     H155541   4.882   0.061   1.704
18433WAT     H255542   4.889   0.086   1.865
18434WAT      O55543   0.093   4.928   0.756
18434WAT     H155544   0.019   4.863   0.740
18434WAT     H255545   0.061   5.000   0.818
18435WAT      O55546   0.461   0.182   3.216
18435WAT     H155547   0.481   0.259   3.155
18435WAT     H255548   0.513   0.102   3.187
18436WAT      O55549   5.753   1.990   7.064
18436WAT     H155550   5.805   1.988   6.979
18436WAT     H255551   5.808   2.034   7.135
18437WAT      O55552   9.653   0.400   3.128
18437WAT     H155553   9.683   0.478   3.183
18437WAT     H255554   9.716   0.324   3.141
18438WAT      O55555   5.453   6.256   8.623
18438WAT     H155556   5.417   6.269   8.531
18438WAT     H255557   5.435   6.339   8.677
18439WAT      O55558   9.592   2.465   1.122
18439WAT     H155559   9.607   2.557   1.087
18439WAT     H255560   9.670   2.438   1.179
18440WAT      O55561   5.292   1.900   1.903
18440WAT     H155562   5.349   1.922   1.823
18440WAT     H255563   5.216   1.964   1.909
18441WAT      O55564   7.585   8.633   1.096
18441WAT     H155565   7.651   8.606   1.167
18441WAT     H255566   7.508   8.680   1.139
18442WAT      O55567   8.250   9.433   5.040
18442WAT     H155568   8.210   9.386   5.119
18442WAT     H255569   8.220   9.529   5.039
18443WAT      O55570   5.462   1.584   3.321
18443WAT     H155571   5.433   1.553   3.412
18443WAT     H255572   5.446   1.511   3.255
18444WAT      O55573   1.238   7.245   4.128
18444WAT     H155574   1.303   7.201   4.066
18444WAT     H255575   1.148   7.202   4.118
18445WAT      O55576   8.830   0.553   3.576
18445WAT     H155577   8.739   0.577   3.543
18445WAT     H255578   8.838   0.576   3.673
18446WAT      O55579   6.382   4.052   0.212
18446WAT     H155580   6.473   4.028   0.179
18446WAT     H255581   6.383   4.147   0.244
18447WAT      O55582   1.912   7.997   6.379
18447WAT     H155583   1.996   8.044   6.353
18447WAT     H255584   1.851   7.992   6.300
18448WAT      O55585   1.671   1.699   4.199
18448WAT     H155586   1.615   1.647   4.264
18448WAT     H255587   1.659   1.661   4.107
18449WAT      O55588   3.104   4.388   4.544
18449WAT     H155589   3.166   4.326   4.592
18449WAT     H255590   3.015   4.343   4.533
18450WAT      O55591   9.709   3.136   8.925
18450WAT     H155592   9.661   3.049   8.923
18450WAT     H255593   9.684   3.186   9.008
18451WAT      O55594   1.830   6.572   7.281
18451WAT     H155595   1.744   6.591   7.235
18451WAT     H255596   1.863   6.654   7.327
18452WAT      O55597   7.069   2.255   6.420
18452WAT     H155598   7.039   2.270   6.514
18452WAT     H255599   6.989   2.247   6.361
18453WAT      O55600   6.802   3.728   4.697
18453WAT     H155601   6.780   3.640   4.655
18453WAT     H255602   6.852   3.712   4.782
18454WAT      O55603   7.134   0.227   8.360
18454WAT     H155604   7.087   0.311   8.332
18454WAT     H255605   7.077   0.148   8.339
18455WAT      O55606   2.201   2.247   3.902
18455WAT     H155607   2.119   2.267   3.956
18455WAT     H255608   2.282   2.256   3.961
18456WAT      O55609   2.600   5.592   6.696
18456WAT     H155610   2.687   5.573   6.742
18456WAT     H255611   2.616   5.650   6.617
18457WAT      O55612   9.739   6.994   3.381
18457WAT     H155613   9.789   7.067   3.335
18457WAT     H255614   9.730   6.916   3.318
18458WAT      O55615   2.224   0.192   5.844
18458WAT     H155616   2.303   0.204   5.784
18458WAT     H255617   2.255   0.164   5.934
18459WAT      O55618   7.383   2.304   5.144
18459WAT     H155619   7.292   2.281   5.179
18459WAT     H255620   7.391   2.403   5.135
18460WAT      O55621   3.799   8.607   4.476
18460WAT     H155622   3.762   8.562   4.395
18460WAT     H255623   3.748   8.579   4.557
18461WAT      O55624   9.625   7.767   7.670
18461WAT     H155625   9.598   7.671   7.673
18461WAT     H255626   9.582   7.817   7.746
18462WAT      O55627   1.139   2.488   9.138
18462WAT     H155628   1.189   2.573   9.119
18462WAT     H255629   1.205   2.415   9.155
18463WAT      O55630   8.028   1.044   9.738
18463WAT     H155631   8.066   1.130   9.703
18463WAT     H255632   8.102   0.979   9.754
18464WAT      O55633   2.861   7.139   6.184
18464WAT     H155634   2.960   7.152   6.185
18464WAT     H255635   2.819   7.206   6.122
18465WAT      O55636   1.486   0.103   0.868
18465WAT     H155637   1.460   0.086   0.772
18465WAT     H255638   1.575   0.147   0.871
18466WAT      O55639   1.227   3.620   1.668
18466WAT     H155640   1.241   3.709   1.625
18466WAT     H255641   1.299   3.557   1.638
18467WAT      O55642   7.453   1.552   3.823
18467WAT     H155643   7.539   1.520   3.864
18467WAT     H255644   7.377   1.528   3.883
18468WAT      O55645   0.614   0.544   7.648
18468WAT     H155646   0.564   0.524   7.733
18468WAT     H255647   0.554   0.529   7.570
18469WAT      O55648   9.017   2.297   9.831
18469WAT     H155649   9.052   2.247   9.752
18469WAT     H255650   8.961   2.374   9.799
18470WAT      O55651   1.721   5.767   6.914
18470WAT     H155652   1.740   5.710   6.994
18470WAT     H255653   1.679   5.853   6.943
18471WAT      O55654   5.772   6.151   3.443
18471WAT     H155655   5.797   6.091   3.366
18471WAT     H255656   5.799   6.108   3.529
18472WAT      O55657   0.826   2.969   7.777
18472WAT     H155658   0.890   3.032   7.731
18472WAT     H255659   0.770   3.020   7.842
18473WAT      O55660   1.560   7.160   6.851
18473WAT     H155661   1.497   7.085   6.832
18473WAT     H255662   1.608   7.185   6.766
18474WAT      O55663   0.457   5.629   6.073
18474WAT     H155664   0.501   5.700   6.127
18474WAT     H255665   0.504   5.620   5.985
18475WAT      O55666   3.686   2.491   2.883
18475WAT     H155667   3.760   2.424   2.888
18475WAT     H255668   3.696   2.545   2.799
18476WAT      O55669   8.592   7.455   0.060
18476WAT     H155670   8.558   7.383  -0.000
18476WAT     H255671   8.647   7.519   0.006
18477WAT      O55672   2.082   6.126   0.463
18477WAT     H155673   2.011   6.097   0.398
18477WAT     H255674   2.110   6.220   0.441
18478WAT      O55675   2.921   3.069   8.867
18478WAT     H155676   2.938   3.165   8.892
18478WAT     H255677   2.823   3.053   8.864
18479WAT      O55678   3.443   3.794   5.639
18479WAT     H155679   3.410   3.734   5.567
18479WAT     H255680   3.532   3.761   5.673
18480WAT      O55681   8.674   4.153   1.860
18480WAT     H155682   8.716   4.084   1.802
18480WAT     H255683   8.659   4.115   1.951
18481WAT      O55684   0.757   2.559   4.690
18481WAT     H155685   0.678   2.615   4.717
18481WAT     H255686   0.793   2.592   4.603
18482WAT      O55687   4.267   5.688   9.429
18482WAT     H155688   4.266   5.741   9.514
18482WAT     H255689   4.361   5.679   9.396
18483WAT      O55690   6.807   6.247   6.011
18483WAT     H155691   6.767   6.296   6.089
18483WAT     H255692   6.734   6.215   5.951
18484WAT      O55693   1.096   3.160   6.036
18484WAT     H155694   1.059   3.145   5.944
18484WAT     H255695   1.133   3.074   6.071
18485WAT      O55696   0.795   6.450   2.405
18485WAT     H155697   0.836   6.541   2.400
18485WAT     H255698   0.810   6.401   2.319
18486WAT      O55699   4.137   3.295   4.368
18486WAT     H155700   4.219   3.349   4.387
18486WAT     H255701   4.058   3.337   4.413
18487WAT      O55702   5.079   6.052   0.963
18487WAT     H155703   4.980   6.042   0.947
18487WAT     H255704   5.125   6.063   0.875
18488WAT      O55705   1.259   2.131   5.739
18488WAT     H155706   1.334   2.185   5.699
18488WAT     H255707   1.286   2.034   5.741
18489WAT      O55708   3.629   4.073   1.335
18489WAT     H155709   3.574   4.121   1.266
18489WAT     H255710   3.626   3.975   1.317
18490WAT      O55711   5.064   3.362   6.326
18490WAT     H155712   5.015   3.397   6.246
18490WAT     H255713   5.159   3.392   6.323
18491WAT      O55714   4.781   0.398   4.062
18491WAT     H155715   4.850   0.359   4.122
18491WAT     H255716   4.819   0.474   4.010
18492WAT      O55717   6.709   2.576   1.075
18492WAT     H155718   6.662   2.540   1.156
18492WAT     H255719   6.651   2.563   0.995
18493WAT      O55720   0.089   1.695   2.803
18493WAT     H155721   0.114   1.599   2.788
18493WAT     H255722   0.071   1.739   2.716
18494WAT      O55723   0.969   0.414   6.848
18494WAT     H155724   0.890   0.355   6.830
18494WAT     H255725   0.995   0.462   6.764
18495WAT      O55726   3.403   2.683   0.236
18495WAT     H155727   3.479   2.744   0.258
18495WAT     H255728   3.323   2.738   0.213
18496WAT      O55729   2.336   0.613   9.284
18496WAT     H155730   2.303   0.539   9.225
18496WAT     H255731   2.341   0.581   9.378
18497WAT      O55732   0.216   1.786   5.630
18497WAT     H155733   0.273   1.844   5.571
18497WAT     H255734   0.192   1.837   5.713
18498WAT      O55735   1.720   3.848   7.026
18498WAT     H155736   1.752   3.761   6.989
18498WAT     H255737   1.732   3.848   7.125
18499WAT      O55738   1.790   0.325   5.547
18499WAT     H155739   1.745   0.306   5.634
18499WAT     H255740   1.786   0.245   5.488
18500WAT      O55741   0.608   8.528   4.193
18500WAT     H155742   0.612   8.504   4.290
18500WAT     H255743   0.640   8.451   4.138
18501WAT      O55744   4.181   9.493   6.206
18501WAT     H155745   4.217   9.401   6.225
18501WAT     H255746   4.207   9.521   6.114
18502WAT      O55747   5.627   3.806   2.385
18502WAT     H155748   5.609   3.750   2.305
18502WAT     H255749   5.726   3.814   2.399
18503WAT      O55750   5.421   6.978   2.188
18503WAT     H155751   5.513   7.014   2.173
18503WAT     H255752   5.393   6.997   2.282
18504WAT      O55753   5.188   1.604   8.115
18504WAT     H155754   5.101   1.596   8.066
18504WAT     H255755   5.189   1.689   8.167
18505WAT      O55756   1.136   6.326   3.070
18505WAT     H155757   1.151   6.420   3.041
18505WAT     H255758   1.129   6.267   2.989
18506WAT      O55759   5.803   2.757   8.158
18506WAT     H155760   5.817   2.762   8.059
18506WAT     H255761   5.870   2.694   8.197
18507WAT      O55762   8.476   8.665   7.119
18507WAT     H155763   8.407   8.718   7.168
18507WAT     H255764   8.519   8.722   7.049
18508WAT      O55765   6.190   3.611   3.920
18508WAT     H155766   6.260   3.674   3.954
18508WAT     H255767   6.118   3.601   3.990
18509WAT      O55768   7.135   8.397   7.338
18509WAT     H155769   7.154   8.322   7.275
18509WAT     H255770   7.179   8.481   7.305
18510WAT      O55771   0.463   0.433   6.623
18510WAT     H155772   0.540   0.385   6.579
18510WAT     H255773   0.382   0.426   6.564
18511WAT      O55774   9.401   5.123   5.024
18511WAT     H155775   9.321   5.179   5.001
18511WAT     H255776   9.402   5.042   4.965
18512WAT      O55777   9.570   8.582   8.820
18512WAT     H155778   9.663   8.618   8.808
18512WAT     H255779   9.544   8.530   8.739
18513WAT      O55780   5.402   8.095   1.997
18513WAT     H155781   5.447   8.007   1.982
18513WAT     H255782   5.380   8.106   2.094
18514WAT      O55783   9.307   6.677   5.431
18514WAT     H155784   9.304   6.603   5.364
18514WAT     H255785   9.214   6.703   5.457
18515WAT      O55786   1.917   4.939   6.483
18515WAT     H155787   1.902   5.014   6.549
18515WAT     H255788   1.844   4.939   6.415
18516WAT      O55789   1.370   7.462   6.764
18516WAT     H155790   1.408   7.530   6.827
18516WAT     H255791   1.336   7.384   6.816
18517WAT      O55792   5.611   8.478   6.384
18517WAT     H155793   5.644   8.418   6.311
18517WAT     H255794   5.660   8.566   6.380
18518WAT      O55795   7.205   0.066   3.840
18518WAT     H155796   7.294   0.073   3.885
18518WAT     H255797   7.143   0.134   3.879
18519WAT      O55798   7.065   7.387   1.856
18519WAT     H155799   7.046   7.469   1.911
18519WAT     H255800   7.112   7.319   1.913
18520WAT      O55801   0.533   5.560   5.831
18520WAT     H155802   0.459   5.545   5.766
18520WAT     H255803   0.618   5.576   5.781
18521WAT      O55804   1.296   5.935   9.631
18521WAT     H155805   1.274   5.843   9.597
18521WAT     H255806   1.220   5.997   9.611
18522WAT      O55807   4.554   0.387   6.578
18522WAT     H155808   4.570   0.297   6.538
18522WAT     H255809   4.631   0.412   6.637
18523WAT      O55810   9.731   1.453   0.950
18523WAT     H155811   9.661   1.422   1.013
18523WAT     H255812   9.695   1.526   0.892
18524WAT      O55813   9.857   9.409   7.877
18524WAT     H155814   9.941   9.421   7.930
18524WAT     H255815   9.879   9.415   7.780
18525WAT      O55816   2.919   4.580   5.869
18525WAT     H155817   3.002   4.587   5.924
18525WAT     H255818   2.930   4.635   5.786
18526WAT      O55819   2.272   7.740   2.929
18526WAT     H155820   2.280   7.674   2.854
18526WAT     H255821   2.253   7.691   3.014
18527WAT      O55822   0.409   3.872   9.718
18527WAT     H155823   0.381   3.851   9.812
18527WAT     H255824   0.359   3.952   9.685
18528WAT      O55825   2.636   3.775   6.087
18528WAT     H155826   2.718   3.750   6.138
18528WAT     H255827   2.622   3.874   6.092
18529WAT      O55828   2.143   1.663   8.788
18529WAT     H155829   2.124   1.666   8.690
18529WAT     H255830   2.201   1.585   8.809
18530WAT      O55831   6.564   4.915   6.497
18530WAT     H155832   6.585   5.009   6.525
18530WAT     H255833   6.514   4.869   6.570
18531WAT      O55834   5.665   9.696   1.097
18531WAT     H155835   5.647   9.671   1.192
18531WAT     H255836   5.755   9.663   1.071
18532WAT      O55837   4.866   6.867   5.964
18532WAT     H155838   4.902   6.778   5.992
18532WAT     H255839   4.795   6.855   5.895
18533WAT      O55840   6.136   1.530   2.176
18533WAT     H155841   6.052   1.477   2.190
18533WAT     H255842   6.186   1.494   2.097
18534WAT      O55843   9.318   3.329   9.254
18534WAT     H155844   9.359   3.283   9.176
18534WAT     H255845   9.259   3.266   9.304
18535WAT      O55846   4.659   7.725   9.587
18535WAT     H155847   4.709   7.648   9.626
18535WAT     H255848   4.707   7.810   9.607
18536WAT      O55849   5.850   6.518   6.738
18536WAT     H155850   5.845   6.508   6.837
18536WAT     H255851   5.836   6.614   6.713
18537WAT      O55852   4.776   5.703   0.763
18537WAT     H155853   4.870   5.669   0.772
18537WAT     H255854   4.778   5.801   0.745
18538WAT      O55855   9.066   9.631   4.326
18538WAT     H155856   9.057   9.599   4.232
18538WAT     H255857   9.046   9.729   4.330
18539WAT      O55858   4.399   3.096   5.148
18539WAT     H155859   4.452   3.015   5.124
18539WAT     H255860   4.458   3.163   5.191
18540WAT      O55861   8.413   2.519   2.153
18540WAT     H155862   8.510   2.498   2.164
18540WAT     H255863   8.400   2.568   2.067
18541WAT      O55864   0.903   5.169   4.468
18541WAT     H155865   0.972   5.221   4.418
18541WAT     H255866   0.949   5.097   4.521
18542WAT      O55867   6.984   4.185   2.416
18542WAT     H155868   7.055   4.142   2.473
18542WAT     H255869   7.002   4.283   2.409
18543WAT      O55870   4.268   8.194   3.873
18543WAT     H155871   4.205   8.150   3.809
18543WAT     H255872   4.361   8.184   3.840
18544WAT      O55873   9.577   7.095   5.711
18544WAT     H155874   9.669   7.058   5.706
18544WAT     H255875   9.514   7.025   5.743
18545WAT      O55876   9.463   7.016   3.321
18545WAT     H155877   9.413   6.939   3.283
18545WAT     H255878   9.554   6.986   3.350
18546WAT      O55879   3.911   8.702   1.479
18546WAT     H155880   3.989   8.760   1.500
18546WAT     H255881   3.828   8.744   1.515
18547WAT      O55882   4.759   6.763   3.319
18547WAT     H155883   4.827   6.765   3.393
18547WAT     H255884   4.668   6.754   3.358
18548WAT      O55885   6.390   6.730   2.401
18548WAT     H155886   6.327   6.750   2.475
18548WAT     H255887   6.358   6.774   2.317
18549WAT      O55888   5.889   9.516   1.877
18549WAT     H155889   5.891   9.579   1.799
18549WAT     H255890   5.868   9.568   1.960
18550WAT      O55891   3.459   7.669   7.787
18550WAT     H155892   3.499   7.585   7.751
18550WAT     H255893   3.462   7.666   7.887
18551WAT      O55894   8.651   6.316   7.310
18551WAT     H155895   8.743   6.286   7.286
18551WAT     H255896   8.645   6.415   7.300
18552WAT      O55897   3.526   7.671   9.648
18552WAT     H155898   3.448   7.612   9.670
18552WAT     H255899   3.601   7.615   9.612
18553WAT      O55900   7.655   9.353   4.596
18553WAT     H155901   7.691   9.271   4.553
18553WAT     H255902   7.693   9.361   4.689
18554WAT      O55903   0.464   6.254   2.215
18554WAT     H155904   0.365   6.268   2.225
18554WAT     H255905   0.485   6.241   2.118
18555WAT      O55906   4.279   4.092   5.584
18555WAT     H155907   4.284   4.168   5.648
18555WAT     H255908   4.188   4.050   5.589
18556WAT      O55909   8.046   4.109   8.608
18556WAT     H155910   8.006   4.157   8.685
18556WAT     H255911   8.145   4.126   8.605
18557WAT      O55912   1.190   8.965   2.222
18557WAT     H155913   1.205   8.881   2.276
18557WAT     H255914   1.155   9.037   2.282
18558WAT      O55915   7.767   5.398   3.893
18558WAT     H155916   7.679   5.404   3.847
18558WAT     H255917   7.795   5.489   3.924
18559WAT      O55918   2.660   7.519   6.624
18559WAT     H155919   2.728   7.584   6.659
18559WAT     H255920   2.704   7.457   6.559
18560WAT      O55921   3.408   8.187   8.616
18560WAT     H155922   3.387   8.178   8.519
18560WAT     H255923   3.391   8.282   8.645
18561WAT      O55924   4.359   3.804   5.862
18561WAT     H155925   4.297   3.879   5.882
18561WAT     H255926   4.307   3.720   5.846
18562WAT      O55927   8.201   6.012   0.360
18562WAT     H155928   8.280   5.954   0.335
18562WAT     H255929   8.117   5.960   0.348
18563WAT      O55930   2.447   5.887   3.534
18563WAT     H155931   2.515   5.883   3.607
18563WAT     H255932   2.357   5.861   3.571
18564WAT      O55933   8.363   2.673   1.949
18564WAT     H155934   8.374   2.761   1.996
18564WAT     H255935   8.330   2.689   1.856
18565WAT      O55936   8.739   3.223   0.772
18565WAT     H155937   8.701   3.250   0.684
18565WAT     H255938   8.783   3.133   0.763
18566WAT      O55939   8.646   6.187   7.019
18566WAT     H155940   8.632   6.286   7.012
18566WAT     H255941   8.593   6.151   7.096
18567WAT      O55942   6.833   3.996   9.053
18567WAT     H155943   6.863   4.071   9.111
18567WAT     H255944   6.912   3.950   9.012
18568WAT      O55945   2.563   7.208   2.854
18568WAT     H155946   2.655   7.239   2.876
18568WAT     H255947   2.504   7.219   2.935
18569WAT      O55948   5.996   0.871   7.599
18569WAT     H155949   5.934   0.818   7.658
18569WAT     H255950   5.943   0.913   7.525
18570WAT      O55951   5.206   2.032   4.265
18570WAT     H155952   5.179   1.947   4.309
18570WAT     H255953   5.235   2.013   4.171
18571WAT      O55954   7.090   8.657   9.519
18571WAT     H155955   7.005   8.660   9.571
18571WAT     H255956   7.140   8.573   9.542
18572WAT      O55957   8.090   5.541   3.015
18572WAT     H155958   8.014   5.476   3.016
18572WAT     H255959   8.055   5.634   3.024
18573WAT      O55960   1.923   9.108   5.055
18573WAT     H155961   1.949   9.204   5.050
18573WAT     H255962   1.852   9.096   5.125
18574WAT      O55963   4.788   6.463   4.498
18574WAT     H155964   4.705   6.428   4.455
18574WAT     H255965   4.827   6.393   4.558
18575WAT      O55966   1.280   4.592   2.937
18575WAT     H155967   1.302   4.496   2.916
18575WAT     H255968   1.289   4.607   3.035
18576WAT      O55969   7.480   2.579   6.127
18576WAT     H155970   7.439   2.490   6.148
18576WAT     H255971   7.569   2.565   6.083
18577WAT      O55972   9.288   8.509   5.767
18577WAT     H155973   9.293   8.409   5.775
18577WAT     H255974   9.192   8.538   5.773
18578WAT      O55975   1.198   9.699   2.612
18578WAT     H155976   1.222   9.790   2.645
18578WAT     H255977   1.248   9.630   2.665
18579WAT      O55978   8.567   3.364   3.548
18579WAT     H155979   8.643   3.383   3.485
18579WAT     H255980   8.484   3.407   3.513
18580WAT      O55981   9.448   3.851   9.154
18580WAT     H155982   9.460   3.950   9.139
18580WAT     H255983   9.485   3.801   9.076
18581WAT      O55984   6.852   8.690   8.045
18581WAT     H155985   6.919   8.649   8.107
18581WAT     H255986   6.804   8.617   7.996
18582WAT      O55987   9.741   1.631   4.142
18582WAT     H155988   9.783   1.540   4.143
18582WAT     H255989   9.656   1.628   4.195
18583WAT      O55990   1.989   8.927   2.718
18583WAT     H155991   1.978   8.859   2.646
18583WAT     H255992   1.905   8.933   2.772
18584WAT      O55993   1.971   9.691   4.971
18584WAT     H155994   1.946   9.594   4.963
18584WAT     H255995   2.070   9.699   4.986
18585WAT      O55996   0.824   0.605   5.091
18585WAT     H155997   0.871   0.614   5.179
18585WAT     H255998   0.818   0.696   5.049
18586WAT      O55999   3.696   3.703   7.671
18586WAT     H156000   3.688   3.773   7.742
18586WAT     H256001   3.625   3.715   7.602
18587WAT      O56002   8.740   4.836   0.188
18587WAT     H156003   8.757   4.746   0.150
18587WAT     H256004   8.827   4.880   0.210
18588WAT      O56005   7.318   3.850   6.401
18588WAT     H156006   7.227   3.808   6.408
18588WAT     H256007   7.366   3.810   6.323
18589WAT      O56008   5.399   8.660   2.412
18589WAT     H156009   5.339   8.634   2.487
18589WAT     H256010   5.383   8.599   2.334
18590WAT      O56011   9.462   2.566   1.712
18590WAT     H156012   9.499   2.565   1.619
18590WAT     H256013   9.453   2.472   1.745
18591WAT      O56014   6.437   4.390   5.441
18591WAT     H156015   6.381   4.308   5.454
18591WAT     H256016   6.378   4.466   5.415
18592WAT      O56017   9.770   4.986   9.815
18592WAT     H156018   9.745   5.083   9.814
18592WAT     H256019   9.703   4.934   9.762
18593WAT      O56020   0.840   2.777   0.350
18593WAT     H156021   0.886   2.850   0.401
18593WAT     H256022   0.798   2.816   0.268
18594WAT      O56023   4.598   4.494   0.733
18594WAT     H156024   4.583   4.412   0.677
18594WAT     H256025   4.600   4.468   0.830
18595WAT      O56026   0.127   1.085   9.697
18595WAT     H156027   0.223   1.111   9.710
18595WAT     H256028   0.119   1.027   9.616
18596WAT      O56029   4.710   1.798   9.227
18596WAT     H156030   4.677   1.863   9.296
18596WAT     H256031   4.638   1.732   9.206
18597WAT      O56032   5.628   8.298   4.747
18597WAT     H156033   5.646   8.374   4.685
18597WAT     H256034   5.712   8.274   4.796
18598WAT      O56035   7.377   5.638   7.000
18598WAT     H156036   7.288   5.611   6.963
18598WAT     H256037   7.427   5.692   6.933
18599WAT      O56038   0.105   9.583   3.119
18599WAT     H156039   0.097   9.506   3.055
18599WAT     H256040   0.197   9.622   3.112
18600WAT      O56041   5.521   3.138   5.837
18600WAT     H156042   5.510   3.187   5.923
18600WAT     H256043   5.588   3.065   5.847
18601WAT      O56044   7.333   1.390   9.461
18601WAT     H156045   7.332   1.482   9.422
18601WAT     H256046   7.239   1.359   9.477
18602WAT      O56047   4.848   6.813   7.744
18602WAT     H156048   4.852   6.798   7.645
18602WAT     H256049   4.904   6.745   7.791
18603WAT      O56050   2.918   6.471   4.976
18603WAT     H156051   2.902   6.424   4.889
18603WAT     H256052   2.993   6.536   4.965
18604WAT      O56053   9.032   2.621   7.144
18604WAT     H156054   8.993   2.687   7.208
18604WAT     H256055   9.064   2.669   7.062
18605WAT      O56056   2.518   9.675   3.388
18605WAT     H156057   2.617   9.673   3.379
18605WAT     H256058   2.485   9.770   3.382
18606WAT      O56059   1.971   7.208   1.659
18606WAT     H156060   1.921   7.287   1.625
18606WAT     H256061   1.927   7.175   1.743
18607WAT      O56062   4.710   2.721   3.754
18607WAT     H156063   4.806   2.744   3.769
18607WAT     H256064   4.680   2.655   3.822
18608WAT      O56065   4.494   0.992   2.430
18608WAT     H156066   4.422   1.042   2.382
18608WAT     H256067   4.499   0.899   2.395
18609WAT      O56068   9.384   5.066   2.297
18609WAT     H156069   9.335   5.153   2.302
18609WAT     H256070   9.355   5.016   2.215
18610WAT      O56071   8.944   4.474   2.859
18610WAT     H156072   8.943   4.402   2.790
18610WAT     H256073   9.039   4.502   2.876
18611WAT      O56074   3.033   0.301   8.174
18611WAT     H156075   2.968   0.376   8.166
18611WAT     H256076   3.098   0.321   8.248
18612WAT      O56077   3.820   1.567   0.201
18612WAT     H156078   3.813   1.490   0.265
18612WAT     H256079   3.857   1.534   0.114
18613WAT      O56080   6.081   1.024   3.384
18613WAT     H156081   6.085   0.940   3.439
18613WAT     H256082   6.165   1.035   3.332
18614WAT      O56083   7.039   4.085   1.768
18614WAT     H156084   7.023   4.088   1.866
18614WAT     H256085   7.028   3.991   1.736
18615WAT      O56086   5.506   9.044   1.953
18615WAT     H156087   5.487   9.075   1.860
18615WAT     H256088   5.468   9.109   2.018
18616WAT      O56089   2.121   7.159   4.487
18616WAT     H156090   2.208   7.158   4.536
18616WAT     H256091   2.093   7.066   4.467
18617WAT      O56092   0.115   0.392   4.617
18617WAT     H156093   0.029   0.429   4.651
18617WAT     H256094   0.102   0.296   4.593
18618WAT      O56095   4.619   1.579   7.094
18618WAT     H156096   4.583   1.503   7.039
18618WAT     H256097   4.702   1.615   7.050
18619WAT      O56098   6.260   9.495   5.813
18619WAT     H156099   6.311   9.448   5.742
18619WAT     H256100   6.163   9.498   5.788
18620WAT      O56101   0.832   5.206   0.481
18620WAT     H156102   0.816   5.113   0.514
18620WAT     H256103   0.764   5.267   0.521
18621WAT      O56104   2.087   3.559   6.464
18621WAT     H156105   2.155   3.612   6.514
18621WAT     H256106   2.122   3.536   6.374
18622WAT      O56107   0.993   7.594   2.793
18622WAT     H156108   1.045   7.604   2.878
18622WAT     H256109   1.039   7.526   2.735
18623WAT      O56110   5.862   2.083   1.142
18623WAT     H156111   5.866   2.033   1.055
18623WAT     H256112   5.928   2.043   1.206
18624WAT      O56113   6.095   2.356   6.728
18624WAT     H156114   6.173   2.322   6.780
18624WAT     H256115   6.121   2.367   6.632
18625WAT      O56116   7.930   5.020   5.404
18625WAT     H156117   7.868   4.957   5.451
18625WAT     H256118   7.968   5.085   5.470
18626WAT      O56119   4.135   1.911   1.104
18626WAT     H156120   4.052   1.856   1.115
18626WAT     H256121   4.193   1.870   1.034
18627WAT      O56122   3.741   1.396   3.670
18627WAT     H156123   3.693   1.314   3.640
18627WAT     H256124   3.787   1.439   3.593
18628WAT      O56125   1.985   1.327   8.126
18628WAT     H156126   1.937   1.282   8.202
18628WAT     H256127   1.928   1.324   8.044
18629WAT      O56128   8.696   6.791   3.441
18629WAT     H156129   8.635   6.861   3.404
18629WAT     H256130   8.668   6.771   3.535
18630WAT      O56131   5.673   3.657   0.911
18630WAT     H156132   5.703   3.752   0.908
18630WAT     H256133   5.682   3.616   0.820
18631WAT      O56134   2.928   1.178   4.770
18631WAT     H156135   3.022   1.212   4.772
18631WAT     H256136   2.877   1.226   4.699
18632WAT      O56137   5.089   1.889   3.250
18632WAT     H156138   5.087   1.988   3.240
18632WAT     H256139   5.183   1.857   3.259
18633WAT      O56140   8.018   3.121   7.607
18633WAT     H156141   7.963   3.111   7.525
18633WAT     H256142   8.021   3.217   7.634
18634WAT      O56143   6.384   2.662   1.550
18634WAT     H156144   6.299   2.713   1.544
18634WAT     H256145   6.448   2.696   1.481
18635WAT      O56146   0.497   6.106   9.888
18635WAT     H156147   0.533   6.191   9.850
18635WAT     H256148   0.468   6.122   9.983
18636WAT      O56149   1.355   5.154   4.169
18636WAT     H156150   1.327   5.084   4.104
18636WAT     H256151   1.390   5.234   4.118
18637WAT      O56152   6.389   5.135   5.457
18637WAT     H156153   6.314   5.125   5.522
18637WAT     H256154   6.372   5.214   5.398
18638WAT      O56155   6.839   8.196   6.210
18638WAT     H156156   6.908   8.131   6.177
18638WAT     H256157   6.800   8.163   6.296
18639WAT      O56158   4.598   7.334   3.909
18639WAT     H156159   4.543   7.261   3.949
18639WAT     H256160   4.581   7.338   3.810
18640WAT      O56161   4.220   5.354   5.515
18640WAT     H156162   4.268   5.327   5.598
18640WAT     H256163   4.124   5.370   5.536
18641WAT      O56164   6.509   7.612   2.272
18641WAT     H156165   6.432   7.558   2.305
18641WAT     H256166   6.524   7.592   2.175
18642WAT      O56167   2.057   0.171   3.992
18642WAT     H156168   2.148   0.156   3.954
18642WAT     H256169   2.050   0.124   4.080
18643WAT      O56170   7.535   7.227   6.483
18643WAT     H156171   7.446   7.222   6.529
18643WAT     H256172   7.565   7.135   6.458
18644WAT      O56173   8.727   5.560   9.713
18644WAT     H156174   8.639   5.512   9.709
18644WAT     H256175   8.712   5.656   9.735
18645WAT      O56176   7.047   9.324   0.663
18645WAT     H156177   7.017   9.230   0.680
18645WAT     H256178   6.977   9.372   0.609
18646WAT      O56179   7.604   7.111   4.752
18646WAT     H156180   7.685   7.123   4.694
18646WAT     H256181   7.617   7.161   4.838
18647WAT      O56182   8.689   3.909   3.712
18647WAT     H156183   8.694   4.008   3.726
18647WAT     H256184   8.773   3.877   3.669
18648WAT      O56185   3.124   0.516   9.417
18648WAT     H156186   3.218   0.482   9.408
18648WAT     H256187   3.079   0.467   9.492
18649WAT      O56188   4.503   6.547   3.783
18649WAT     H156189   4.600   6.561   3.802
18649WAT     H256190   4.461   6.498   3.860
18650WAT      O56191   9.022   2.394   7.311
18650WAT     H156192   9.027   2.446   7.226
18650WAT     H256193   9.107   2.342   7.324
18651WAT      O56194   0.551   3.808   2.185
18651WAT     H156195   0.462   3.770   2.162
18651WAT     H256196   0.542   3.874   2.259
18652WAT      O56197   7.432   5.845   0.669
18652WAT     H156198   7.415   5.841   0.571
18652WAT     H256199   7.356   5.803   0.718
18653WAT      O56200   2.096   0.140   1.777
18653WAT     H156201   2.128   0.049   1.750
18653WAT     H256202   2.011   0.132   1.829
18654WAT      O56203   6.090   1.992   1.316
18654WAT     H156204   6.177   1.964   1.274
18654WAT     H256205   6.046   1.913   1.359
18655WAT      O56206   0.633   8.755   2.450
18655WAT     H156207   0.573   8.717   2.379
18655WAT     H256208   0.667   8.681   2.508
18656WAT      O56209   9.335   7.073   3.654
18656WAT     H156210   9.435   7.078   3.646
18656WAT     H256211   9.295   7.160   3.627
18657WAT      O56212   4.736   0.789   6.616
18657WAT     H156213   4.803   0.810   6.687
18657WAT     H256214   4.649   0.762   6.659
18658WAT      O56215   0.565   8.527   7.959
18658WAT     H156216   0.601   8.472   7.883
18658WAT     H256217   0.602   8.492   8.045
18659WAT      O56218   5.767   3.697   3.769
18659WAT     H156219   5.747   3.625   3.835
18659WAT     H256220   5.687   3.756   3.759
18660WAT      O56221   4.851   4.671   6.912
18660WAT     H156222   4.791   4.599   6.879
18660WAT     H256223   4.876   4.652   7.008
18661WAT      O56224   8.816   4.661   2.190
18661WAT     H156225   8.735   4.694   2.141
18661WAT     H256226   8.893   4.654   2.127
18662WAT      O56227   7.443   0.630   9.410
18662WAT     H156228   7.514   0.654   9.343
18662WAT     H256229   7.377   0.705   9.417
18663WAT      O56230   3.024   6.801   7.213
18663WAT     H156231   3.009   6.737   7.289
18663WAT     H256232   2.976   6.886   7.230
18664WAT      O56233   0.845   6.211   2.631
18664WAT     H156234   0.759   6.256   2.610
18664WAT     H256235   0.870   6.148   2.558
18665WAT      O56236   7.041   7.811   8.671
18665WAT     H156237   7.126   7.763   8.694
18665WAT     H256238   6.966   7.745   8.662
18666WAT      O56239   8.744   8.019   0.732
18666WAT     H156240   8.777   8.034   0.639
18666WAT     H256241   8.657   7.969   0.729
18667WAT      O56242   7.893   2.587   7.998
18667WAT     H156243   7.807   2.633   8.022
18667WAT     H256244   7.895   2.570   7.900
18668WAT      O56245   6.599   4.734   9.332
18668WAT     H156246   6.624   4.681   9.412
18668WAT     H256247   6.562   4.674   9.261
18669WAT      O56248   2.853   2.027   3.378
18669WAT     H156249   2.861   2.124   3.402
18669WAT     H256250   2.909   2.008   3.298
18670WAT      O56251   9.487   9.589   2.505
18670WAT     H156252   9.546   9.631   2.573
18670WAT     H256253   9.536   9.516   2.457
18671WAT      O56254   2.177   8.535   2.802
18671WAT     H156255   2.202   8.632   2.805
18671WAT     H256256   2.177   8.503   2.707
18672WAT      O56257   2.500   9.499   3.920
18672WAT     H156258   2.525   9.474   4.014
18672WAT     H256259   2.499   9.417   3.863
18673WAT      O56260   1.358   3.661   1.912
18673WAT     H156261   1.372   3.760   1.913
18673WAT     H256262   1.272   3.641   1.865
18674WAT      O56263   1.236   0.198   5.779
18674WAT     H156264   1.169   0.194   5.704
18674WAT     H256265   1.257   0.294   5.799
18675WAT      O56266   2.102   7.027   7.565
18675WAT     H156267   2.102   7.062   7.658
18675WAT     H256268   2.096   6.927   7.567
18676WAT      O56269   8.043   0.676   4.808
18676WAT     H156270   7.998   0.760   4.779
18676WAT     H256271   8.134   0.670   4.765
18677WAT      O56272   1.742   0.566   7.996
18677WAT     H156273   1.726   0.567   8.095
18677WAT     H256274   1.657   0.588   7.948
18678WAT      O56275   2.922   7.219   2.243
18678WAT     H156276   2.907   7.316   2.227
18678WAT     H256277   2.857   7.166   2.189
18679WAT      O56278   9.528   0.488   8.826
18679WAT     H156279   9.429   0.494   8.815
18679WAT     H256280   9.573   0.520   8.743
18680WAT      O56281   4.695   5.241   7.286
18680WAT     H156282   4.625   5.200   7.229
18680WAT     H256283   4.776   5.262   7.230
18681WAT      O56284   5.121   0.853   7.625
18681WAT     H156285   5.158   0.764   7.652
18681WAT     H256286   5.173   0.925   7.671
18682WAT      O56287   8.529   8.759   4.873
18682WAT     H156288   8.576   8.829   4.928
18682WAT     H256289   8.531   8.672   4.921
18683WAT      O56290   0.484   7.441   8.792
18683WAT     H156291   0.467   7.444   8.693
18683WAT     H256292   0.397   7.428   8.840
18684WAT      O56293   2.065   1.403   0.556
18684WAT     H156294   2.120   1.483   0.533
18684WAT     H256295   1.983   1.432   0.605
18685WAT      O56296   7.959   2.546   5.110
18685WAT     H156297   8.023   2.509   5.178
18685WAT     H256298   7.886   2.595   5.158
18686WAT      O56299   1.817   6.379   8.237
18686WAT     H156300   1.856   6.466   8.207
18686WAT     H256301   1.860   6.305   8.185
18687WAT      O56302   7.935   9.451   5.894
18687WAT     H156303   8.018   9.395   5.884
18687WAT     H256304   7.866   9.399   5.945
18688WAT      O56305   6.352   5.510   4.589
18688WAT     H156306   6.303   5.541   4.508
18688WAT     H256307   6.437   5.561   4.598
18689WAT      O56308   8.862   7.898   8.823
18689WAT     H156309   8.763   7.914   8.833
18689WAT     H256310   8.903   7.890   8.914
18690WAT      O56311   1.112   7.066   8.782
18690WAT     H156312   1.100   6.994   8.850
18690WAT     H256313   1.168   7.139   8.820
18691WAT      O56314   3.121   5.915   8.404
18691WAT     H156315   3.042   5.968   8.373
18691WAT     H256316   3.165   5.872   8.325
18692WAT      O56317   0.607   8.440   6.081
18692WAT     H156318   0.606   8.540   6.093
18692WAT     H256319   0.526   8.413   6.029
18693WAT      O56320   9.666   5.306   3.535
18693WAT     H156321   9.667   5.237   3.607
18693WAT     H256322   9.571   5.326   3.509
18694WAT      O56323   4.108   2.257   5.662
18694WAT     H156324   4.056   2.191   5.608
18694WAT     H256325   4.205   2.249   5.639
18695WAT      O56326   5.234   4.640   4.144
18695WAT     H156327   5.330   4.661   4.161
18695WAT     H256328   5.177   4.688   4.211
18696WAT      O56329   2.880   3.381   1.650
18696WAT     H156330   2.958   3.428   1.690
18696WAT     H256331   2.845   3.434   1.572
18697WAT      O56332   7.841   5.330   0.238
18697WAT     H156333   7.782   5.291   0.309
18697WAT     H256334   7.790   5.337   0.153
18698WAT      O56335   7.702   4.550   0.425
18698WAT     H156336   7.662   4.511   0.342
18698WAT     H256337   7.647   4.525   0.504
18699WAT      O56338   7.282   7.305   6.575
18699WAT     H156339   7.264   7.260   6.663
18699WAT     H256340   7.224   7.265   6.504
18700WAT      O56341   4.138   9.167   7.745
18700WAT     H156342   4.099   9.186   7.835
18700WAT     H256343   4.155   9.068   7.736
18701WAT      O56344   5.159   9.388   4.288
18701WAT     H156345   5.087   9.446   4.327
18701WAT     H256346   5.233   9.446   4.252
18702WAT      O56347   6.904   2.963   2.104
18702WAT     H156348   6.945   2.872   2.112
18702WAT     H256349   6.843   2.964   2.025
18703WAT      O56350   1.022   8.596   4.304
18703WAT     H156351   1.121   8.611   4.307
18703WAT     H256352   0.991   8.559   4.391
18704WAT      O56353   0.803   2.976   5.382
18704WAT     H156354   0.726   2.971   5.318
18704WAT     H256355   0.834   3.070   5.390
18705WAT      O56356   2.096   6.346   6.060
18705WAT     H156357   2.127   6.297   5.978
18705WAT     H256358   2.120   6.443   6.052
18706WAT      O56359   2.388   8.358   3.511
18706WAT     H156360   2.349   8.314   3.592
18706WAT     H256361   2.481   8.323   3.495
18707WAT      O56362   9.816   2.748   9.614
18707WAT     H156363   9.786   2.785   9.526
18707WAT     H256364   9.877   2.813   9.659
18708WAT      O56365   1.172   7.453   2.300
18708WAT     H156366   1.095   7.426   2.358
18708WAT     H256367   1.164   7.407   2.211
18709WAT      O56368   5.966   1.480   6.364
18709WAT     H156369   5.881   1.519   6.399
18709WAT     H256370   6.038   1.548   6.367
18710WAT      O56371   4.672   5.924   1.191
18710WAT     H156372   4.588   5.952   1.146
18710WAT     H256373   4.749   5.979   1.156
18711WAT      O56374   7.824   3.388   3.338
18711WAT     H156375   7.892   3.387   3.265
18711WAT     H256376   7.799   3.294   3.362
18712WAT      O56377   4.534   8.737   8.749
18712WAT     H156378   4.565   8.642   8.761
18712WAT     H256379   4.539   8.785   8.836
18713WAT      O56380   2.829   8.804   5.813
18713WAT     H156381   2.839   8.862   5.894
18713WAT     H256382   2.914   8.806   5.760
18714WAT      O56383   6.550   4.738   8.577
18714WAT     H156384   6.613   4.660   8.576
18714WAT     H256385   6.459   4.706   8.602
18715WAT      O56386   8.207   7.828   9.156
18715WAT     H156387   8.171   7.920   9.174
18715WAT     H256388   8.279   7.807   9.222
18716WAT      O56389   7.908   3.518   9.014
18716WAT     H156390   7.812   3.492   9.018
18716WAT     H256391   7.950   3.503   9.104
18717WAT      O56392   6.681   3.541   6.323
18717WAT     H156393   6.587   3.574   6.327
18717WAT     H256394   6.743   3.613   6.353
18718WAT      O56395   8.248   7.538   7.253
18718WAT     H156396   8.197   7.536   7.167
18718WAT     H256397   8.183   7.538   7.330
18719WAT      O56398   9.826   0.526   0.830
18719WAT     H156399   9.730   0.508   0.806
18719WAT     H256400   9.882   0.525   0.747
18720WAT      O56401   6.059   1.180   1.347
18720WAT     H156402   6.050   1.268   1.300
18720WAT     H256403   6.057   1.106   1.281
18721WAT      O56404   4.721   6.581   0.108
18721WAT     H156405   4.772   6.496   0.096
18721WAT     H256406   4.653   6.590   0.034
18722WAT      O56407   3.703   0.365   3.683
18722WAT     H156408   3.721   0.382   3.780
18722WAT     H256409   3.609   0.391   3.661
18723WAT      O56410   6.626   3.406   7.101
18723WAT     H156411   6.680   3.363   7.029
18723WAT     H256412   6.591   3.494   7.068
18724WAT      O56413   7.967   0.700   7.644
18724WAT     H156414   7.873   0.675   7.619
18724WAT     H256415   7.972   0.798   7.660
18725WAT      O56416   8.656   3.074   3.218
18725WAT     H156417   8.596   3.019   3.159
18725WAT     H256418   8.604   3.108   3.296
18726WAT      O56419   7.352   5.654   6.636
18726WAT     H156420   7.435   5.609   6.667
18726WAT     H256421   7.275   5.590   6.639
18727WAT      O56422   9.607   3.783   4.929
18727WAT     H156423   9.588   3.881   4.933
18727WAT     H256424   9.546   3.740   4.863
18728WAT      O56425   9.206   5.265   4.919
18728WAT     H156426   9.185   5.360   4.894
18728WAT     H256427   9.124   5.209   4.911
18729WAT      O56428   5.093   2.337   7.282
18729WAT     H156429   5.116   2.264   7.217
18729WAT     H256430   5.160   2.336   7.357
18730WAT      O56431   9.877   2.511   9.739
18730WAT     H156432   9.862   2.592   9.681
18730WAT     H256433   9.796   2.452   9.736
18731WAT      O56434   3.304   6.017   5.005
18731WAT     H156435   3.264   6.078   5.073
18731WAT     H256436   3.364   6.069   4.945
18732WAT      O56437   8.830   7.068   4.358
18732WAT     H156438   8.887   6.986   4.353
18732WAT     H256439   8.818   7.093   4.454
18733WAT      O56440   0.173   8.175   5.470
18733WAT     H156441   0.228   8.187   5.553
18733WAT     H256442   0.205   8.239   5.400
18734WAT      O56443   6.269   2.615   8.362
18734WAT     H156444   6.305   2.690   8.418
18734WAT     H256445   6.288   2.528   8.406
18735WAT      O56446   1.463   8.195   0.724
18735WAT     H156447   1.424   8.149   0.644
18735WAT     H256448   1.435   8.145   0.807
18736WAT      O56449   5.964   1.152   9.168
18736WAT     H156450   5.936   1.089   9.095
18736WAT     H256451   6.060   1.136   9.190
18737WAT      O56452   7.461   8.591   7.531
18737WAT     H156453   7.440   8.521   7.599
18737WAT     H256454   7.501   8.671   7.576
18738WAT      O56455   6.353   1.919   9.437
18738WAT     H156456   6.405   1.989   9.387
18738WAT     H256457   6.404   1.892   9.519
18739WAT      O56458   9.610   9.530   7.807
18739WAT     H156459   9.688   9.504   7.863
18739WAT     H256460   9.559   9.604   7.851
18740WAT      O56461   5.763   5.571   5.971
18740WAT     H156462   5.777   5.659   6.017
18740WAT     H256463   5.670   5.539   5.989
18741WAT      O56464   5.177   2.159   1.968
18741WAT     H156465   5.256   2.186   2.023
18741WAT     H256466   5.194   2.181   1.872
18742WAT      O56467   5.097   4.194   6.687
18742WAT     H156468   5.110   4.116   6.625
18742WAT     H256469   5.002   4.223   6.684
18743WAT      O56470   5.504   4.479   3.510
18743WAT     H156471   5.478   4.438   3.422
18743WAT     H256472   5.547   4.410   3.568
18744WAT      O56473   0.221   5.453   8.147
18744WAT     H156474   0.223   5.507   8.231
18744WAT     H256475   0.284   5.375   8.156
18745WAT      O56476   8.489   0.371   4.211
18745WAT     H156477   8.433   0.394   4.291
18745WAT     H256478   8.450   0.416   4.130
18746WAT      O56479   5.204   2.924   9.499
18746WAT     H156480   5.160   2.952   9.414
18746WAT     H256481   5.222   2.826   9.496
18747WAT      O56482   6.294   2.249   4.659
18747WAT     H156483   6.343   2.288   4.737
18747WAT     H256484   6.350   2.260   4.577
18748WAT      O56485   3.959   0.534   0.037
18748WAT     H156486   4.025   0.571   0.103
18748WAT     H256487   3.874   0.585   0.043
18749WAT      O56488   4.315   9.283   0.686
18749WAT     H156489   4.342   9.188   0.701
18749WAT     H256490   4.281   9.293   0.592
18750WAT      O56491   8.374   9.533   8.386
18750WAT     H156492   8.472   9.526   8.368
18750WAT     H256493   8.336   9.442   8.400
18751WAT      O56494   8.091   5.180   0.085
18751WAT     H156495   8.152   5.158   0.162
18751WAT     H256496   8.007   5.220   0.120
18752WAT      O56497   7.590   0.571   3.775
18752WAT     H156498   7.689   0.580   3.769
18752WAT     H256499   7.548   0.662   3.768
18753WAT      O56500   9.761   5.563   6.686
18753WAT     H156501   9.846   5.516   6.660
18753WAT     H256502   9.686   5.531   6.628
18754WAT      O56503   1.549   9.397   9.655
18754WAT     H156504   1.632   9.368   9.606
18754WAT     H256505   1.570   9.409   9.752
18755WAT      O56506   9.038   1.786   7.894
18755WAT     H156507   8.957   1.801   7.951
18755WAT     H256508   9.109   1.742   7.949
18756WAT      O56509   4.981   3.267   1.240
18756WAT     H156510   4.893   3.222   1.224
18756WAT     H256511   5.042   3.205   1.289
18757WAT      O56512   3.986   5.909   7.163
18757WAT     H156513   4.063   5.853   7.192
18757WAT     H256514   4.016   5.974   7.093
18758WAT      O56515   7.338   2.775   3.216
18758WAT     H156516   7.402   2.699   3.206
18758WAT     H256517   7.266   2.767   3.147
18759WAT      O56518   4.890   5.503   6.606
18759WAT     H156519   4.842   5.582   6.644
18759WAT     H256520   4.933   5.529   6.519
18760WAT      O56521   0.709   8.700   1.186
18760WAT     H156522   0.741   8.617   1.140
18760WAT     H256523   0.720   8.779   1.126
18761WAT      O56524   1.537   8.710   3.230
18761WAT     H156525   1.465   8.645   3.253
18761WAT     H256526   1.614   8.662   3.189
18762WAT      O56527   5.951   6.809   3.093
18762WAT     H156528   5.943   6.752   3.012
18762WAT     H256529   5.889   6.774   3.164
18763WAT      O56530   8.427   2.160   5.587
18763WAT     H156531   8.368   2.241   5.597
18763WAT     H256532   8.501   2.166   5.654
18764WAT      O56533   7.729   0.707   7.140
18764WAT     H156534   7.750   0.762   7.221
18764WAT     H256535   7.653   0.748   7.091
18765WAT      O56536   5.327   0.355   5.348
18765WAT     H156537   5.298   0.292   5.420
18765WAT     H256538   5.376   0.432   5.388
18766WAT      O56539   7.107   3.811   8.182
18766WAT     H156540   7.138   3.906   8.176
18766WAT     H256541   7.049   3.799   8.262
18767WAT      O56542   6.416   9.132   5.804
18767WAT     H156543   6.499   9.155   5.856
18767WAT     H256544   6.396   9.205   5.740
18768WAT      O56545   5.680   9.535   4.914
18768WAT     H156546   5.752   9.478   4.956
18768WAT     H256547   5.600   9.479   4.896
18769WAT      O56548   9.753   3.804   8.348
18769WAT     H156549   9.824   3.822   8.279
18769WAT     H256550   9.698   3.887   8.361
18770WAT      O56551   8.989   8.219   2.688
18770WAT     H156552   9.033   8.147   2.634
18770WAT     H256553   8.918   8.178   2.746
18771WAT      O56554   7.192   3.316   0.849
18771WAT     H156555   7.215   3.357   0.761
18771WAT     H256556   7.127   3.375   0.897
18772WAT      O56557   6.017   4.195   5.415
18772WAT     H156558   6.033   4.108   5.367
18772WAT     H256559   5.933   4.188   5.469
18773WAT      O56560   8.063   6.160   5.884
18773WAT     H156561   8.067   6.145   5.983
18773WAT     H256562   8.115   6.243   5.862
18774WAT      O56563   6.897   2.010   8.813
18774WAT     H156564   6.975   1.948   8.800
18774WAT     H256565   6.912   2.093   8.760
18775WAT      O56566   8.108   5.568   3.836
18775WAT     H156567   8.021   5.587   3.881
18775WAT     H256568   8.095   5.569   3.736
18776WAT      O56569   7.262   3.295   6.021
18776WAT     H156570   7.282   3.393   6.030
18776WAT     H256571   7.174   3.283   5.976
18777WAT      O56572   0.369   7.614   5.867
18777WAT     H156573   0.341   7.544   5.933
18777WAT     H256574   0.431   7.573   5.800
18778WAT      O56575   6.118   5.011   9.249
18778WAT     H156576   6.122   5.082   9.320
18778WAT     H256577   6.207   4.967   9.241
18779WAT      O56578   7.768   3.199   9.509
18779WAT     H156579   7.775   3.283   9.454
18779WAT     H256580   7.845   3.193   9.572
18780WAT      O56581   3.868   7.527   6.702
18780WAT     H156582   3.934   7.589   6.660
18780WAT     H256583   3.913   7.440   6.723
18781WAT      O56584   0.158   2.801   9.746
18781WAT     H156585   0.190   2.742   9.821
18781WAT     H256586   0.234   2.820   9.684
18782WAT      O56587   0.872   3.934   6.187
18782WAT     H156588   0.879   3.875   6.267
18782WAT     H256589   0.775   3.953   6.169
18783WAT      O56590   9.545   1.093   5.703
18783WAT     H156591   9.499   1.009   5.732
18783WAT     H256592   9.561   1.090   5.604
18784WAT      O56593   3.569   6.626   9.819
18784WAT     H156594   3.475   6.658   9.817
18784WAT     H256595   3.606   6.626   9.726
18785WAT      O56596   1.820   8.484   5.373
18785WAT     H156597   1.770   8.403   5.344
18785WAT     H256598   1.769   8.566   5.349
18786WAT      O56599   9.799   2.353   5.744
18786WAT     H156600   9.895   2.355   5.718
18786WAT     H256601   9.742   2.375   5.665
18787WAT      O56602   5.193   2.576   7.173
18787WAT     H156603   5.174   2.494   7.227
18787WAT     H256604   5.114   2.597   7.115
18788WAT      O56605   2.396   5.972   4.479
18788WAT     H156606   2.376   6.016   4.566
18788WAT     H256607   2.421   5.877   4.494
18789WAT      O56608   4.902   9.384   1.589
18789WAT     H156609   4.838   9.377   1.665
18789WAT     H256610   4.993   9.352   1.618
18790WAT      O56611   1.081   2.458   7.824
18790WAT     H156612   1.150   2.455   7.896
18790WAT     H256613   1.116   2.510   7.747
18791WAT      O56614   8.743   4.655   2.793
18791WAT     H156615   8.820   4.594   2.811
18791WAT     H256616   8.670   4.635   2.858
18792WAT      O56617   0.675   5.773   8.463
18792WAT     H156618   0.756   5.832   8.465
18792WAT     H256619   0.692   5.690   8.515
18793WAT      O56620   9.473   1.451   0.667
18793WAT     H156621   9.435   1.498   0.587
18793WAT     H256622   9.566   1.422   0.647
18794WAT      O56623   4.407   9.021   1.791
18794WAT     H156624   4.454   9.098   1.832
18794WAT     H256625   4.406   9.032   1.691
18795WAT      O56626   7.798   0.144   3.192
18795WAT     H156627   7.881   0.130   3.138
18795WAT     H256628   7.723   0.092   3.151
18796WAT      O56629   2.041   9.369   3.226
18796WAT     H156630   1.969   9.344   3.290
18796WAT     H256631   2.058   9.468   3.232
18797WAT      O56632   7.313   5.010   1.536
18797WAT     H156633   7.388   5.050   1.483
18797WAT     H256634   7.343   4.923   1.575
18798WAT      O56635   1.810   8.016   0.307
18798WAT     H156636   1.850   7.986   0.220
18798WAT     H256637   1.772   7.938   0.355
18799WAT      O56638   4.690   7.525   5.113
18799WAT     H156639   4.678   7.615   5.155
18799WAT     H256640   4.674   7.454   5.181
18800WAT      O56641   4.751   7.502   3.252
18800WAT     H156642   4.657   7.472   3.236
18800WAT     H256643   4.757   7.550   3.339
18801WAT      O56644   9.541   2.240   9.241
18801WAT     H156645   9.629   2.256   9.197
18801WAT     H256646   9.479   2.195   9.177
18802WAT      O56647   3.369   0.095   2.831
18802WAT     H156648   3.269   0.097   2.834
18802WAT     H256649   3.405   0.079   2.923
18803WAT      O56650   8.409   9.545   1.339
18803WAT     H156651   8.429   9.450   1.316
18803WAT     H256652   8.456   9.606   1.275
18804WAT      O56653   3.773   1.450   6.626
18804WAT     H156654   3.786   1.404   6.538
18804WAT     H256655   3.825   1.402   6.697
18805WAT      O56656   6.306   1.429   2.843
18805WAT     H156657   6.308   1.366   2.765
18805WAT     H256658   6.393   1.423   2.893
18806WAT      O56659   8.942   6.159   1.858
18806WAT     H156660   8.912   6.237   1.912
18806WAT     H256661   8.973   6.086   1.919
18807WAT      O56662   5.661   4.663   0.862
18807WAT     H156663   5.709   4.609   0.793
18807WAT     H256664   5.719   4.672   0.943
18808WAT      O56665   9.840   1.009   4.118
18808WAT     H156666   9.850   1.016   4.019
18808WAT     H256667   9.928   1.031   4.161
18809WAT      O56668   3.686   5.532   4.604
18809WAT     H156669   3.751   5.566   4.537
18809WAT     H256670   3.734   5.506   4.688
18810WAT      O56671   5.464   1.641   4.030
18810WAT     H156672   5.423   1.608   4.115
18810WAT     H256673   5.513   1.566   3.985
18811WAT      O56674   9.647   5.023   1.126
18811WAT     H156675   9.674   4.931   1.156
18811WAT     H256676   9.550   5.036   1.145
18812WAT      O56677   4.806   2.719   7.633
18812WAT     H156678   4.719   2.677   7.610
18812WAT     H256679   4.857   2.739   7.549
18813WAT      O56680   5.052   6.412   6.202
18813WAT     H156681   5.073   6.322   6.164
18813WAT     H256682   5.134   6.452   6.242
18814WAT      O56683   5.128   9.736   1.545
18814WAT     H156684   5.064   9.673   1.502
18814WAT     H256685   5.139   9.817   1.488
18815WAT      O56686   5.086   2.247   6.674
18815WAT     H156687   5.116   2.152   6.682
18815WAT     H256688   5.008   2.262   6.734
18816WAT      O56689   8.329   5.333   4.632
18816WAT     H156690   8.349   5.425   4.597
18816WAT     H256691   8.361   5.265   4.567
18817WAT      O56692   3.217   3.094   3.545
18817WAT     H156693   3.260   3.020   3.493
18817WAT     H256694   3.142   3.133   3.492
18818WAT      O56695   8.305   4.149   8.646
18818WAT     H156696   8.365   4.078   8.682
18818WAT     H256697   8.293   4.221   8.714
18819WAT      O56698   6.151   6.254   7.962
18819WAT     H156699   6.232   6.267   8.020
18819WAT     H256700   6.175   6.194   7.886
18820WAT      O56701   4.932   3.096   7.853
18820WAT     H156702   4.998   3.159   7.812
18820WAT     H256703   4.866   3.148   7.907
18821WAT      O56704   4.538   3.523   2.175
18821WAT     H156705   4.482   3.572   2.242
18821WAT     H256706   4.573   3.439   2.215
18822WAT      O56707   3.909   9.155   9.357
18822WAT     H156708   3.821   9.186   9.323
18822WAT     H256709   3.938   9.214   9.433
18823WAT      O56710   2.327   5.673   4.782
18823WAT     H156711   2.264   5.637   4.713
18823WAT     H256712   2.359   5.599   4.840
18824WAT      O56713   3.738   3.967   0.282
18824WAT     H156714   3.654   4.009   0.315
18824WAT     H256715   3.745   3.981   0.183
18825WAT      O56716   1.045   6.147   8.890
18825WAT     H156717   1.056   6.158   8.989
18825WAT     H256718   0.985   6.219   8.855
18826WAT      O56719   1.488   2.612   3.581
18826WAT     H156720   1.456   2.608   3.486
18826WAT     H256721   1.484   2.521   3.621
18827WAT      O56722   4.933   6.359   1.630
18827WAT     H156723   4.956   6.457   1.626
18827WAT     H256724   4.876   6.334   1.552
18828WAT      O56725   5.922   3.286   6.014
18828WAT     H156726   5.959   3.362   5.961
18828WAT     H256727   5.942   3.200   5.968
18829WAT      O56728   7.952   0.775   5.385
18829WAT     H156729   7.988   0.823   5.465
18829WAT     H256730   8.027   0.757   5.321
18830WAT      O56731   8.058   1.100   2.296
18830WAT     H156732   8.056   1.000   2.291
18830WAT     H256733   7.990   1.132   2.362
18831WAT      O56734   3.265   0.098   8.950
18831WAT     H156735   3.239   0.186   8.990
18831WAT     H256736   3.200   0.073   8.879
18832WAT      O56737   5.185   8.600   3.906
18832WAT     H156738   5.270   8.651   3.890
18832WAT     H256739   5.161   8.604   4.003
18833WAT      O56740   9.206   7.613   2.889
18833WAT     H156741   9.221   7.547   2.963
18833WAT     H256742   9.118   7.658   2.901
18834WAT      O56743   0.215   6.337   0.206
18834WAT     H156744   0.119   6.321   0.228
18834WAT     H256745   0.241   6.429   0.237
18835WAT      O56746   6.045   5.168   0.771
18835WAT     H156747   6.124   5.145   0.715
18835WAT     H256748   5.961   5.139   0.724
18836WAT      O56749   5.132   0.188   3.030
18836WAT     H156750   5.192   0.109   3.040
18836WAT     H256751   5.046   0.171   3.079
18837WAT      O56752   8.656   8.896   6.319
18837WAT     H156753   8.676   8.992   6.336
18837WAT     H256754   8.726   8.857   6.259
18838WAT      O56755   4.919   4.050   4.338
18838WAT     H156756   4.887   4.145   4.342
18838WAT     H256757   4.959   4.033   4.248
18839WAT      O56758   3.805   2.153   7.319
18839WAT     H156759   3.707   2.136   7.319
18839WAT     H256760   3.825   2.236   7.266
18840WAT      O56761   6.420   7.265   1.240
18840WAT     H156762   6.509   7.285   1.280
18840WAT     H256763   6.415   7.302   1.147
18841WAT      O56764   3.728   7.464   4.443
18841WAT     H156765   3.808   7.523   4.454
18841WAT     H256766   3.709   7.451   4.346
18842WAT      O56767   7.432   2.135   8.811
18842WAT     H156768   7.531   2.144   8.797
18842WAT     H256769   7.415   2.064   8.880
18843WAT      O56770   8.709   7.550   3.650
18843WAT     H156771   8.702   7.461   3.605
18843WAT     H256772   8.639   7.611   3.613
18844WAT      O56773   8.259   4.409   4.677
18844WAT     H156774   8.199   4.385   4.754
18844WAT     H256775   8.275   4.328   4.621
18845WAT      O56776   4.711   2.380   9.154
18845WAT     H156777   4.624   2.396   9.109
18845WAT     H256778   4.779   2.445   9.120
18846WAT      O56779   3.463   8.943   3.870
18846WAT     H156780   3.369   8.948   3.904
18846WAT     H256781   3.500   9.035   3.861
18847WAT      O56782   2.738   0.265   2.195
18847WAT     H156783   2.789   0.183   2.170
18847WAT     H256784   2.717   0.318   2.113
18848WAT      O56785   4.895   7.385   7.423
18848WAT     H156786   4.828   7.444   7.469
18848WAT     H256787   4.894   7.404   7.325
18849WAT      O56788   9.282   2.651   8.414
18849WAT     H156789   9.360   2.628   8.473
18849WAT     H256790   9.235   2.731   8.451
18850WAT      O56791   8.306   6.432   5.159
18850WAT     H156792   8.394   6.391   5.185
18850WAT     H256793   8.248   6.440   5.240
18851WAT      O56794   5.807   0.841   0.480
18851WAT     H156795   5.842   0.763   0.428
18851WAT     H256796   5.708   0.848   0.467
18852WAT      O56797   5.097   5.496   1.229
18852WAT     H156798   5.134   5.582   1.265
18852WAT     H256799   4.998   5.497   1.234
18853WAT      O56800   3.675   3.341   4.441
18853WAT     H156801   3.585   3.379   4.421
18853WAT     H256802   3.675   3.302   4.533
18854WAT      O56803   2.487   0.098   6.987
18854WAT     H156804   2.459   0.009   6.951
18854WAT     H256805   2.414   0.136   7.044
18855WAT      O56806   5.999   1.476   4.023
18855WAT     H156807   5.949   1.390   4.032
18855WAT     H256808   5.949   1.549   4.069
18856WAT      O56809   3.910   9.777   0.502
18856WAT     H156810   3.964   9.860   0.518
18856WAT     H256811   3.883   9.738   0.590
18857WAT      O56812   5.774   7.872   7.443
18857WAT     H156813   5.866   7.833   7.451
18857WAT     H256814   5.710   7.801   7.412
18858WAT      O56815   6.823   7.667   4.113
18858WAT     H156816   6.773   7.585   4.084
18858WAT     H256817   6.765   7.747   4.096
18859WAT      O56818   1.912   4.003   6.837
18859WAT     H156819   1.821   4.025   6.802
18859WAT     H256820   1.909   3.990   6.936
18860WAT      O56821   5.154   3.944   2.205
18860WAT     H156822   5.060   3.921   2.182
18860WAT     H256823   5.214   3.923   2.128
18861WAT      O56824   1.201   7.774   9.492
18861WAT     H156825   1.213   7.677   9.470
18861WAT     H256826   1.182   7.825   9.408
18862WAT      O56827   4.191   4.510   7.439
18862WAT     H156828   4.266   4.449   7.463
18862WAT     H256829   4.224   4.604   7.431
18863WAT      O56830   3.742   9.760   0.023
18863WAT     H156831   3.655   9.721   0.053
18863WAT     H256832   3.802   9.687  -0.009
18864WAT      O56833   3.732   4.549   8.051
18864WAT     H156834   3.729   4.648   8.038
18864WAT     H256835   3.822   4.523   8.087
18865WAT      O56836   3.625   1.602   5.370
18865WAT     H156837   3.632   1.693   5.413
18865WAT     H256838   3.682   1.537   5.421
18866WAT      O56839   9.718   7.670   2.547
18866WAT     H156840   9.679   7.583   2.518
18866WAT     H256841   9.817   7.670   2.528
18867WAT      O56842   3.322   0.462   2.028
18867WAT     H156843   3.229   0.467   2.065
18867WAT     H256844   3.382   0.418   2.094
18868WAT      O56845   8.605   7.655   5.637
18868WAT     H156846   8.590   7.557   5.622
18868WAT     H256847   8.520   7.697   5.671
18869WAT      O56848   0.229   9.696   0.791
18869WAT     H156849   0.282   9.682   0.707
18869WAT     H256850   0.131   9.695   0.768
18870WAT      O56851   0.071   2.347   4.889
18870WAT     H156852   0.095   2.444   4.891
18870WAT     H256853   0.148   2.295   4.853
18871WAT      O56854   7.582   2.204   5.899
18871WAT     H156855   7.583   2.216   5.800
18871WAT     H256856   7.488   2.190   5.929
18872WAT      O56857   0.781   6.558   2.998
18872WAT     H156858   0.700   6.618   2.996
18872WAT     H256859   0.788   6.514   3.087
18873WAT      O56860   0.318   9.548   3.812
18873WAT     H156861   0.393   9.591   3.862
18873WAT     H256862   0.280   9.613   3.746
18874WAT      O56863   0.103   2.957   1.416
18874WAT     H156864   0.148   2.908   1.341
18874WAT     H256865   0.023   3.005   1.380
18875WAT      O56866   1.443   1.224   9.842
18875WAT     H156867   1.425   1.227   9.744
18875WAT     H256868   1.366   1.179   9.888
18876WAT      O56869   9.234   5.441   3.946
18876WAT     H156870   9.171   5.389   3.888
18876WAT     H256871   9.256   5.528   3.903
18877WAT      O56872   2.573   0.565   7.307
18877WAT     H156873   2.500   0.549   7.240
18877WAT     H256874   2.545   0.531   7.396
18878WAT      O56875   4.012   0.198   1.861
18878WAT     H156876   4.006   0.210   1.960
18878WAT     H256877   3.986   0.283   1.815
18879WAT      O56878   0.459   7.223   1.090
18879WAT     H156879   0.417   7.285   1.023
18879WAT     H256880   0.506   7.149   1.041
18880WAT      O56881   0.237   7.454   8.923
18880WAT     H156882   0.167   7.386   8.900
18880WAT     H256883   0.258   7.449   9.020
18881WAT      O56884   1.741   6.540   4.642
18881WAT     H156885   1.657   6.486   4.632
18881WAT     H256886   1.736   6.595   4.725
18882WAT      O56887   7.198   6.547   4.023
18882WAT     H156888   7.264   6.590   3.961
18882WAT     H256889   7.207   6.586   4.114
18883WAT      O56890   5.535   5.706   7.834
18883WAT     H156891   5.585   5.690   7.919
18883WAT     H256892   5.563   5.793   7.794
18884WAT      O56893   2.708   9.186   3.680
18884WAT     H156894   2.746   9.130   3.754
18884WAT     H256895   2.729   9.282   3.697
18885WAT      O56896   5.578   3.528   7.975
18885WAT     H156897   5.613   3.502   8.065
18885WAT     H256898   5.617   3.468   7.905
18886WAT      O56899   5.851   1.396   3.538
18886WAT     H156900   5.871   1.305   3.575
18886WAT     H256901   5.913   1.416   3.462
18887WAT      O56902   1.852   1.492   2.630
18887WAT     H156903   1.841   1.407   2.681
18887WAT     H256904   1.881   1.472   2.537
18888WAT      O56905   4.216   2.566   2.875
18888WAT     H156906   4.123   2.599   2.890
18888WAT     H256907   4.217   2.466   2.880
18889WAT      O56908   9.523   0.534   0.778
18889WAT     H156909   9.538   0.454   0.720
18889WAT     H256910   9.457   0.595   0.735
18890WAT      O56911   3.366   8.670   3.151
18890WAT     H156912   3.363   8.766   3.178
18890WAT     H256913   3.444   8.625   3.194
18891WAT      O56914   2.727   6.640   4.551
18891WAT     H156915   2.728   6.545   4.581
18891WAT     H256916   2.651   6.688   4.595
18892WAT      O56917   5.218   2.915   2.975
18892WAT     H156918   5.139   2.856   2.964
18892WAT     H256919   5.217   2.987   2.905
18893WAT      O56920   2.455   0.073   1.017
18893WAT     H156921   2.402  -0.011   1.006
18893WAT     H256922   2.545   0.052   1.054
18894WAT      O56923   5.171   9.567   2.308
18894WAT     H156924   5.155   9.469   2.324
18894WAT     H256925   5.233   9.602   2.378
18895WAT      O56926   1.385   2.422   2.900
18895WAT     H156927   1.454   2.481   2.859
18895WAT     H256928   1.411   2.326   2.886
18896WAT      O56929   1.011   6.965   7.822
18896WAT     H156930   1.105   6.937   7.805
18896WAT     H256931   1.010   7.048   7.877
18897WAT      O56932   2.817   2.495   1.911
18897WAT     H156933   2.762   2.430   1.963
18897WAT     H256934   2.769   2.583   1.908
18898WAT      O56935   7.287   6.501   1.628
18898WAT     H156936   7.198   6.531   1.593
18898WAT     H256937   7.354   6.505   1.554
18899WAT      O56938   1.086   3.696   2.688
18899WAT     H156939   0.999   3.740   2.665
18899WAT     H256940   1.082   3.599   2.664
18900WAT      O56941   8.677   0.065  -0.001
18900WAT     H156942   8.718   0.059   0.090
18900WAT     H256943   8.620  -0.015  -0.018
18901WAT      O56944   0.781   6.945   5.744
18901WAT     H156945   0.779   6.981   5.651
18901WAT     H256946   0.718   6.997   5.802
18902WAT      O56947   0.563   2.718   4.796
18902WAT     H156948   0.481   2.767   4.766
18902WAT     H256949   0.628   2.783   4.836
18903WAT      O56950   3.249   3.456   1.999
18903WAT     H156951   3.314   3.509   1.945
18903WAT     H256952   3.287   3.365   2.016
18904WAT      O56953   3.583   9.569   1.549
18904WAT     H156954   3.519   9.645   1.556
18904WAT     H256955   3.631   9.574   1.461
18905WAT      O56956   0.382   6.809   7.453
18905WAT     H156957   0.473   6.770   7.472
18905WAT     H256958   0.325   6.800   7.535
18906WAT      O56959   2.306   8.592   4.275
18906WAT     H156960   2.318   8.675   4.329
18906WAT     H256961   2.230   8.538   4.313
18907WAT      O56962   5.370   8.325   3.298
18907WAT     H156963   5.332   8.238   3.267
18907WAT     H256964   5.380   8.323   3.398
18908WAT      O56965   3.351   2.427   7.655
18908WAT     H156966   3.333   2.523   7.678
18908WAT     H256967   3.300   2.367   7.717
18909WAT      O56968   9.705   0.386   2.826
18909WAT     H156969   9.692   0.374   2.925
18909WAT     H256970   9.668   0.475   2.798
18910WAT      O56971   8.670   8.045   7.565
18910WAT     H156972   8.737   8.096   7.511
18910WAT     H256973   8.626   8.106   7.631
18911WAT      O56974   9.881   8.346   9.690
18911WAT     H156975   9.887   8.436   9.733
18911WAT     H256976   9.865   8.357   9.592
18912WAT      O56977   2.711   6.905   8.800
18912WAT     H156978   2.692   6.885   8.896
18912WAT     H256979   2.792   6.854   8.771
18913WAT      O56980   0.572   8.136   6.323
18913WAT     H156981   0.542   8.128   6.228
18913WAT     H256982   0.492   8.139   6.383
18914WAT      O56983   1.178   4.086   9.780
18914WAT     H156984   1.169   4.142   9.698
18914WAT     H256985   1.266   4.039   9.778
18915WAT      O56986   0.618   3.193   7.830
18915WAT     H156987   0.568   3.187   7.917
18915WAT     H256988   0.664   3.282   7.825
18916WAT      O56989   8.762   8.922   4.228
18916WAT     H156990   8.810   8.915   4.316
18916WAT     H256991   8.675   8.874   4.234
18917WAT      O56992   2.490   8.956   4.259
18917WAT     H156993   2.487   8.982   4.162
18917WAT     H256994   2.410   8.995   4.306
18918WAT      O56995   9.032   0.889   4.831
18918WAT     H156996   8.980   0.907   4.747
18918WAT     H256997   9.079   0.802   4.823
18919WAT      O56998   8.699   3.068   6.594
18919WAT     H156999   8.760   3.010   6.540
18919WAT     H257000   8.622   3.097   6.537
18920WAT      O57001   9.551   0.183   7.372
18920WAT     H157002   9.484   0.110   7.386
18920WAT     H257003   9.579   0.185   7.276
18921WAT      O57004   3.061   5.898   4.321
18921WAT     H157005   3.040   5.800   4.320
18921WAT     H257006   2.982   5.948   4.356
18922WAT      O57007   7.182   6.881   4.821
18922WAT     H157008   7.159   6.882   4.723
18922WAT     H257009   7.254   6.814   4.837
18923WAT      O57010   8.530   1.198   0.623
18923WAT     H157011   8.616   1.148   0.634
18923WAT     H257012   8.546   1.281   0.570
18924WAT      O57013   5.305   4.524   4.743
18924WAT     H157014   5.320   4.611   4.696
18924WAT     H257015   5.296   4.451   4.676
18925WAT      O57016   9.791   9.825   5.206
18925WAT     H157017   9.863   9.872   5.155
18925WAT     H257018   9.806   9.837   5.304
18926WAT      O57019   3.845   9.839   5.547
18926WAT     H157020   3.817   9.927   5.509
18926WAT     H257021   3.803   9.765   5.495
18927WAT      O57022   8.211   2.704   5.441
18927WAT     H157023   8.183   2.789   5.397
18927WAT     H257024   8.181   2.626   5.385
18928WAT      O57025   5.178   7.422   8.399
18928WAT     H157026   5.173   7.521   8.413
18928WAT     H257027   5.152   7.401   8.305
18929WAT      O57028   3.803   1.924   4.668
18929WAT     H157029   3.809   2.021   4.691
18929WAT     H257030   3.884   1.877   4.702
18930WAT      O57031   6.073   6.981   9.132
18930WAT     H157032   6.102   7.063   9.082
18930WAT     H257033   6.140   6.960   9.203
18931WAT      O57034   3.556   1.766   2.145
18931WAT     H157035   3.509   1.682   2.118
18931WAT     H257036   3.647   1.743   2.181
18932WAT      O57037   7.565   5.195   6.327
18932WAT     H157038   7.504   5.266   6.363
18932WAT     H257039   7.570   5.120   6.392
18933WAT      O57040   7.928   6.881   6.592
18933WAT     H157041   7.865   6.952   6.625
18933WAT     H257042   8.016   6.889   6.639
18934WAT      O57043   2.313   0.281   1.870
18934WAT     H157044   2.243   0.221   1.833
18934WAT     H257045   2.401   0.261   1.827
18935WAT      O57046   4.064   1.912   4.954
18935WAT     H157047   4.153   1.953   4.971
18935WAT     H257048   3.999   1.943   5.023
18936WAT      O57049   1.057   2.095   1.871
18936WAT     H157050   1.034   2.034   1.947
18936WAT     H257051   1.041   2.190   1.898
18937WAT      O57052   2.668   3.024   3.114
18937WAT     H157053   2.690   2.932   3.080
18937WAT     H257054   2.670   3.023   3.214
18938WAT      O57055   6.559   9.487   1.438
18938WAT     H157056   6.600   9.398   1.421
18938WAT     H257057   6.629   9.550   1.472
18939WAT      O57058   6.354   8.054   6.369
18939WAT     H157059   6.391   8.124   6.430
18939WAT     H257060   6.350   7.967   6.418
18940WAT      O57061   3.745   3.735   0.403
18940WAT     H157062   3.772   3.813   0.346
18940WAT     H257063   3.746   3.763   0.499
18941WAT      O57064   3.395   9.383   3.010
18941WAT     H157065   3.423   9.308   2.949
18941WAT     H257066   3.334   9.445   2.961
18942WAT      O57067   9.001   1.498   8.853
18942WAT     H157068   9.048   1.584   8.874
18942WAT     H257069   8.998   1.441   8.934
18943WAT      O57070   2.791   0.520   8.467
18943WAT     H157071   2.888   0.530   8.488
18943WAT     H257072   2.780   0.487   8.374
18944WAT      O57073   9.668   5.819   1.785
18944WAT     H157074   9.747   5.776   1.829
18944WAT     H257075   9.697   5.862   1.699
18945WAT      O57076   2.205   5.863   4.943
18945WAT     H157077   2.218   5.778   4.892
18945WAT     H257078   2.149   5.845   5.023
18946WAT      O57079   5.331   0.936   0.048
18946WAT     H157080   5.309   1.013  -0.012
18946WAT     H257081   5.422   0.949   0.086
18947WAT      O57082   1.741   1.351   6.839
18947WAT     H157083   1.668   1.400   6.887
18947WAT     H257084   1.811   1.416   6.809
18948WAT      O57085   1.159   9.515   6.682
18948WAT     H157086   1.117   9.598   6.719
18948WAT     H257087   1.116   9.435   6.723
18949WAT      O57088   1.091   8.717   0.565
18949WAT     H157089   1.147   8.795   0.593
18949WAT     H257090   1.134   8.670   0.489
18950WAT      O57091   8.535   8.629   2.664
18950WAT     H157092   8.500   8.557   2.604
18950WAT     H257093   8.467   8.701   2.673
18951WAT      O57094   3.232   3.232   7.571
18951WAT     H157095   3.157   3.278   7.523
18951WAT     H257096   3.319   3.253   7.527
18952WAT      O57097   9.511   4.268   0.813
18952WAT     H157098   9.476   4.263   0.720
18952WAT     H257099   9.435   4.266   0.878
18953WAT      O57100   0.374   1.280   0.164
18953WAT     H157101   0.296   1.227   0.132
18953WAT     H257102   0.357   1.377   0.148
18954WAT      O57103   3.695   4.188   7.561
18954WAT     H157104   3.769   4.140   7.608
18954WAT     H257105   3.616   4.195   7.622
18955WAT      O57106   8.932   2.800   5.765
18955WAT     H157107   8.887   2.889   5.764
18955WAT     H257108   8.863   2.729   5.781
18956WAT      O57109   3.080   0.537   7.292
18956WAT     H157110   3.118   0.458   7.244
18956WAT     H257111   2.983   0.520   7.312
18957WAT      O57112   1.563   6.516   3.955
18957WAT     H157113   1.522   6.502   4.045
18957WAT     H257114   1.615   6.601   3.955
18958WAT      O57115   3.962   8.413   3.256
18958WAT     H157116   4.030   8.477   3.292
18958WAT     H257117   3.900   8.462   3.195
18959WAT      O57118   3.446   1.790   7.982
18959WAT     H157119   3.411   1.724   7.916
18959WAT     H257120   3.371   1.832   8.033
18960WAT      O57121   2.388   2.570   1.289
18960WAT     H157122   2.462   2.568   1.357
18960WAT     H257123   2.355   2.477   1.272
18961WAT      O57124   7.064   2.564   2.327
18961WAT     H157125   7.135   2.623   2.367
18961WAT     H257126   6.991   2.552   2.394
18962WAT      O57127   1.902   1.478   6.509
18962WAT     H157128   1.951   1.431   6.583
18962WAT     H257129   1.808   1.443   6.504
18963WAT      O57130   8.785   0.681   1.588
18963WAT     H157131   8.813   0.751   1.523
18963WAT     H257132   8.692   0.701   1.621
18964WAT      O57133   3.602   6.061   1.681
18964WAT     H157134   3.591   6.146   1.630
18964WAT     H257135   3.698   6.051   1.707
18965WAT      O57136   0.160   0.686   0.896
18965WAT     H157137   0.081   0.625   0.899
18965WAT     H257138   0.242   0.637   0.926
18966WAT      O57139   5.146   1.668   2.322
18966WAT     H157140   5.198   1.700   2.401
18966WAT     H257141   5.201   1.676   2.240
18967WAT      O57142   3.489   3.288   1.678
18967WAT     H157143   3.527   3.210   1.728
18967WAT     H257144   3.535   3.297   1.590
18968WAT      O57145   5.080   9.130   3.500
18968WAT     H157146   5.030   9.056   3.545
18968WAT     H257147   5.064   9.125   3.402
18969WAT      O57148   5.034   8.070   4.053
18969WAT     H157149   4.976   8.013   4.112
18969WAT     H257150   4.977   8.120   3.989
18970WAT      O57151   2.286   4.752   3.416
18970WAT     H157152   2.224   4.818   3.374
18970WAT     H257153   2.370   4.798   3.445
18971WAT      O57154   5.885   2.692   5.276
18971WAT     H157155   5.802   2.743   5.301
18971WAT     H257156   5.913   2.718   5.183
18972WAT      O57157   1.276   6.281   0.137
18972WAT     H157158   1.274   6.248   0.232
18972WAT     H257159   1.223   6.219   0.079
18973WAT      O57160   2.104   4.495   5.216
18973WAT     H157161   2.089   4.397   5.207
18973WAT     H257162   2.026   4.538   5.261
18974WAT      O57163   2.156   7.953   7.718
18974WAT     H157164   2.171   7.855   7.702
18974WAT     H257165   2.075   7.982   7.666
18975WAT      O57166   5.471   6.963   1.166
18975WAT     H157167   5.466   7.063   1.167
18975WAT     H257168   5.562   6.934   1.197
18976WAT      O57169   4.756   6.709   7.051
18976WAT     H157170   4.675   6.652   7.038
18976WAT     H257171   4.729   6.795   7.095
18977WAT      O57172   1.704   6.661   6.908
18977WAT     H157173   1.640   6.692   6.838
18977WAT     H257174   1.658   6.659   6.997
18978WAT      O57175   4.986   7.047   7.137
18978WAT     H157176   5.029   6.961   7.111
18978WAT     H257177   4.970   7.048   7.236
18979WAT      O57178   7.081   6.358   6.328
18979WAT     H157179   7.174   6.331   6.352
18979WAT     H257180   7.028   6.278   6.303
18980WAT      O57181   3.215   1.584   7.212
18980WAT     H157182   3.227   1.682   7.193
18980WAT     H257183   3.187   1.572   7.308
18981WAT      O57184   4.164   9.421   1.746
18981WAT     H157185   4.158   9.382   1.655
18981WAT     H257186   4.127   9.514   1.745
18982WAT      O57187   4.813   5.696   5.880
18982WAT     H157188   4.897   5.644   5.891
18982WAT     H257189   4.751   5.648   5.818
18983WAT      O57190   7.303   1.745   8.901
18983WAT     H157191   7.283   1.824   8.842
18983WAT     H257192   7.280   1.661   8.852
18984WAT      O57193   2.172   5.166   8.133
18984WAT     H157194   2.134   5.170   8.226
18984WAT     H257195   2.097   5.157   8.067
18985WAT      O57196   9.562   7.767   0.495
18985WAT     H157197   9.661   7.768   0.511
18985WAT     H257198   9.542   7.718   0.411
18986WAT      O57199   7.465   8.912   3.157
18986WAT     H157200   7.524   8.985   3.191
18986WAT     H257201   7.521   8.835   3.126
18987WAT      O57202   1.924   5.775   7.387
18987WAT     H157203   1.833   5.773   7.430
18987WAT     H257204   1.979   5.699   7.420
18988WAT      O57205   3.134   9.190   1.307
18988WAT     H157206   3.179   9.279   1.309
18988WAT     H257207   3.102   9.171   1.214
18989WAT      O57208   4.686   8.742   6.706
18989WAT     H157209   4.745   8.766   6.784
18989WAT     H257210   4.691   8.814   6.637
18990WAT      O57211   4.894   2.080   8.636
18990WAT     H157212   4.861   2.112   8.725
18990WAT     H257213   4.977   2.129   8.611
18991WAT      O57214   4.035   2.596   3.514
18991WAT     H157215   4.017   2.500   3.496
18991WAT     H257216   3.979   2.653   3.455
18992WAT      O57217   7.920   7.154   0.979
18992WAT     H157218   7.983   7.105   1.039
18992WAT     H257219   7.933   7.253   0.990
18993WAT      O57220   5.604   6.553   3.939
18993WAT     H157221   5.612   6.555   4.039
18993WAT     H257222   5.530   6.614   3.910
18994WAT      O57223   7.991   9.583   1.543
18994WAT     H157224   8.085   9.616   1.551
18994WAT     H257225   7.940   9.607   1.626
18995WAT      O57226   8.349   5.191   3.231
18995WAT     H157227   8.429   5.155   3.281
18995WAT     H257228   8.266   5.153   3.271
18996WAT      O57229   7.777   8.680   1.913
18996WAT     H157230   7.711   8.687   1.837
18996WAT     H257231   7.824   8.767   1.924
18997WAT      O57232   4.527   7.411   0.293
18997WAT     H157233   4.577   7.365   0.219
18997WAT     H257234   4.482   7.342   0.351
18998WAT      O57235   5.908   4.585   9.129
18998WAT     H157236   5.929   4.594   9.032
18998WAT     H257237   5.902   4.676   9.170
18999WAT      O57238   6.141   3.249   5.192
18999WAT     H157239   6.044   3.225   5.184
18999WAT     H257240   6.194   3.167   5.212
19000WAT      O57241   2.266   6.912   2.010
19000WAT     H157242   2.193   6.979   2.017
19000WAT     H257243   2.309   6.918   1.920
19001WAT      O57244   4.855   5.897   6.517
19001WAT     H157245   4.850   5.990   6.552
19001WAT     H257246   4.950   5.874   6.497
19002WAT      O57247   6.069   7.614   9.362
19002WAT     H157248   6.015   7.535   9.391
19002WAT     H257249   6.054   7.630   9.264
19003WAT      O57250   3.484   0.850   3.253
19003WAT     H157251   3.564   0.868   3.311
19003WAT     H257252   3.439   0.937   3.231
19004WAT      O57253   4.243   9.694   0.697
19004WAT     H157254   4.180   9.765   0.727
19004WAT     H257255   4.318   9.685   0.762
19005WAT      O57256   9.872   7.505   0.632
19005WAT     H157257   9.791   7.467   0.587
19005WAT     H257258   9.868   7.484   0.730
19006WAT      O57259   5.476   7.436   5.963
19006WAT     H157260   5.485   7.468   5.869
19006WAT     H257261   5.551   7.374   5.985
19007WAT      O57262   7.983   1.097   3.507
19007WAT     H157263   7.929   1.109   3.424
19007WAT     H257264   7.990   1.000   3.529
19008WAT      O57265   3.598   7.590   9.274
19008WAT     H157266   3.696   7.569   9.267
19008WAT     H257267   3.553   7.571   9.186
19009WAT      O57268   1.418   4.749   2.762
19009WAT     H157269   1.371   4.689   2.826
19009WAT     H257270   1.373   4.838   2.760
19010WAT      O57271   1.344   1.166   0.776
19010WAT     H157272   1.263   1.109   0.765
19010WAT     H257273   1.365   1.177   0.874
19011WAT      O57274   6.055   6.150   7.418
19011WAT     H157275   6.041   6.051   7.422
19011WAT     H257276   5.970   6.195   7.391
19012WAT      O57277   7.244   1.023   9.851
19012WAT     H157278   7.287   0.984   9.932
19012WAT     H257279   7.303   1.094   9.813
19013WAT      O57280   6.140   9.000   4.748
19013WAT     H157281   6.117   9.058   4.670
19013WAT     H257282   6.215   8.939   4.724
19014WAT      O57283   0.254   4.577   4.000
19014WAT     H157284   0.162   4.564   3.962
19014WAT     H257285   0.321   4.577   3.926
19015WAT      O57286   5.827   4.697   8.319
19015WAT     H157287   5.805   4.723   8.413
19015WAT     H257288   5.744   4.666   8.272
19016WAT      O57289   4.577   9.770   2.597
19016WAT     H157290   4.560   9.750   2.694
19016WAT     H257291   4.675   9.790   2.585
19017WAT      O57292   5.545   6.966   1.745
19017WAT     H157293   5.547   6.914   1.660
19017WAT     H257294   5.456   7.011   1.754
19018WAT      O57295   1.511   4.947   2.322
19018WAT     H157296   1.589   5.010   2.323
19018WAT     H257297   1.535   4.865   2.271
19019WAT      O57298   7.907   8.352   2.838
19019WAT     H157299   7.972   8.419   2.873
19019WAT     H257300   7.894   8.365   2.740
19020WAT      O57301   4.145   5.256   0.384
19020WAT     H157302   4.101   5.314   0.315
19020WAT     H257303   4.234   5.295   0.408
19021WAT      O57304   4.984   2.619   7.016
19021WAT     H157305   4.977   2.625   6.917
19021WAT     H257306   4.987   2.711   7.055
19022WAT      O57307   6.065   5.430   9.647
19022WAT     H157308   6.027   5.522   9.649
19022WAT     H257309   6.157   5.431   9.686
19023WAT      O57310   9.261   7.470   7.476
19023WAT     H157311   9.192   7.536   7.509
19023WAT     H257312   9.268   7.476   7.377
19024WAT      O57313   2.348   8.365   7.268
19024WAT     H157314   2.272   8.301   7.262
19024WAT     H257315   2.416   8.342   7.197
19025WAT      O57316   9.440   5.276   8.693
19025WAT     H157317   9.439   5.193   8.750
19025WAT     H257318   9.383   5.261   8.612
19026WAT      O57319   4.702   7.395   4.869
19026WAT     H157320   4.620   7.418   4.817
19026WAT     H257321   4.697   7.436   4.960
19027WAT      O57322   9.602   0.465   1.048
19027WAT     H157323   9.699   0.480   1.064
19027WAT     H257324   9.580   0.486   0.952
19028WAT      O57325   7.422   7.119   4.315
19028WAT     H157326   7.475   7.204   4.319
19028WAT     H257327   7.423   7.075   4.405
19029WAT      O57328   1.568   8.544   5.145
19029WAT     H157329   1.542   8.603   5.069
19029WAT     H257330   1.578   8.600   5.228
19030WAT      O57331   5.679   5.784   8.965
19030WAT     H157332   5.598   5.814   9.015
19030WAT     H257333   5.652   5.737   8.881
19031WAT      O57334   4.154   4.641   0.840
19031WAT     H157335   4.194   4.568   0.784
19031WAT     H257336   4.164   4.619   0.936
19032WAT      O57337   2.428   0.363   8.580
19032WAT     H157338   2.330   0.362   8.598
19032WAT     H257339   2.451   0.292   8.513
19033WAT      O57340   5.963   2.334   0.840
19033WAT     H157341   6.017   2.301   0.917
19033WAT     H257342   6.023   2.348   0.761
19034WAT      O57343   0.960   9.109   2.376
19034WAT     H157344   0.893   9.150   2.314
19034WAT     H257345   0.982   9.174   2.449
19035WAT      O57346   6.002   5.873   8.907
19035WAT     H157347   5.920   5.818   8.918
19035WAT     H257348   6.041   5.893   8.997
19036WAT      O57349   1.525   6.135   6.194
19036WAT     H157350   1.459   6.184   6.137
19036WAT     H257351   1.476   6.075   6.257
19037WAT      O57352   1.184   7.145   5.698
19037WAT     H157353   1.140   7.071   5.648
19037WAT     H257354   1.233   7.107   5.777
19038WAT      O57355   5.279   1.136   1.374
19038WAT     H157356   5.250   1.221   1.419
19038WAT     H257357   5.292   1.065   1.443
19039WAT      O57358   9.214   6.257   8.564
19039WAT     H157359   9.248   6.165   8.582
19039WAT     H257360   9.289   6.314   8.528
19040WAT      O57361   4.461   8.219   1.615
19040WAT     H157362   4.527   8.149   1.641
19040WAT     H257363   4.466   8.235   1.517
19041WAT      O57364   1.051   8.113   7.185
19041WAT     H157365   0.996   8.188   7.147
19041WAT     H257366   1.093   8.062   7.110
19042WAT      O57367   0.582   9.068   9.658
19042WAT     H157368   0.543   9.094   9.569
19042WAT     H257369   0.681   9.080   9.655
19043WAT      O57370   5.493   0.721   3.366
19043WAT     H157371   5.554   0.798   3.381
19043WAT     H257372   5.527   0.641   3.415
19044WAT      O57373   4.845   9.363   8.126
19044WAT     H157374   4.869   9.266   8.137
19044WAT     H257375   4.756   9.370   8.080
19045WAT      O57376   6.277   8.571   8.646
19045WAT     H157377   6.260   8.654   8.699
19045WAT     H257378   6.258   8.491   8.703
19046WAT      O57379   9.281   7.167   2.729
19046WAT     H157380   9.274   7.133   2.823
19046WAT     H257381   9.346   7.110   2.678
19047WAT      O57382   9.384   7.616   1.922
19047WAT     H157383   9.363   7.528   1.880
19047WAT     H257384   9.304   7.675   1.917
19048WAT      O57385   9.052   7.508   2.020
19048WAT     H157386   8.997   7.481   1.941
19048WAT     H257387   9.094   7.597   2.001
19049WAT      O57388   6.986   9.608   4.873
19049WAT     H157389   6.901   9.652   4.899
19049WAT     H257390   6.975   9.564   4.784
19050WAT      O57391   0.500   4.518   9.754
19050WAT     H157392   0.531   4.439   9.701
19050WAT     H257393   0.571   4.543   9.821
19051WAT      O57394   8.834   4.250   0.420
19051WAT     H157395   8.924   4.261   0.378
19051WAT     H257396   8.830   4.161   0.465
19052WAT      O57397   8.814   1.416   8.678
19052WAT     H157398   8.877   1.462   8.741
19052WAT     H257399   8.867   1.354   8.619
19053WAT      O57400   9.698   0.680   6.649
19053WAT     H157401   9.723   0.732   6.568
19053WAT     H257402   9.610   0.712   6.684
19054WAT      O57403   7.847   5.492   8.578
19054WAT     H157404   7.755   5.524   8.556
19054WAT     H257405   7.848   5.455   8.671
19055WAT      O57406   5.734   1.235   4.271
19055WAT     H157407   5.656   1.235   4.208
19055WAT     H257408   5.754   1.329   4.299
19056WAT      O57409   5.493   6.123   4.369
19056WAT     H157410   5.443   6.122   4.455
19056WAT     H257411   5.490   6.215   4.330
19057WAT      O57412   4.089   4.100   2.395
19057WAT     H157413   4.073   4.157   2.476
19057WAT     H257414   4.001   4.070   2.358
19058WAT      O57415   6.686   7.462   5.671
19058WAT     H157416   6.775   7.419   5.684
19058WAT     H257417   6.663   7.463   5.573
19059WAT      O57418   5.637   4.426   7.801
19059WAT     H157419   5.552   4.411   7.852
19059WAT     H257420   5.620   4.492   7.728
19060WAT      O57421   9.340   3.317   0.375
19060WAT     H157422   9.281   3.380   0.425
19060WAT     H257423   9.408   3.279   0.438
19061WAT      O57424   6.082   2.821   7.519
19061WAT     H157425   5.988   2.789   7.527
19061WAT     H257426   6.105   2.837   7.423
19062WAT      O57427   5.248   1.502   4.733
19062WAT     H157428   5.290   1.514   4.823
19062WAT     H257429   5.276   1.577   4.674
19063WAT      O57430   3.802   3.719   3.030
19063WAT     H157431   3.899   3.692   3.033
19063WAT     H257432   3.776   3.737   2.935
19064WAT      O57433   5.829   2.136   4.708
19064WAT     H157434   5.916   2.090   4.689
19064WAT     H257435   5.836   2.232   4.683
19065WAT      O57436   4.093   0.671   6.979
19065WAT     H157437   4.086   0.740   6.907
19065WAT     H257438   4.189   0.657   7.002
19066WAT      O57439   4.918   2.395   4.002
19066WAT     H157440   4.835   2.427   4.046
19066WAT     H257441   4.943   2.305   4.039
19067WAT      O57442   9.085   6.469   8.668
19067WAT     H157443   9.129   6.380   8.652
19067WAT     H257444   9.024   6.490   8.591
19068WAT      O57445   0.438   4.630   7.594
19068WAT     H157446   0.375   4.553   7.586
19068WAT     H257447   0.386   4.714   7.609
19069WAT      O57448   3.335   4.650   3.237
19069WAT     H157449   3.276   4.570   3.238
19069WAT     H257450   3.332   4.694   3.327
19070WAT      O57451   7.343   9.192   7.507
19070WAT     H157452   7.379   9.176   7.599
19070WAT     H257453   7.335   9.105   7.458
19071WAT      O57454   9.132   3.678   1.729
19071WAT     H157455   9.205   3.626   1.685
19071WAT     H257456   9.171   3.735   1.802
19072WAT      O57457   8.542   4.730   6.423
19072WAT     H157458   8.488   4.670   6.364
19072WAT     H257459   8.502   4.822   6.423
19073WAT      O57460   7.440   8.217   9.437
19073WAT     H157461   7.343   8.242   9.434
19073WAT     H257462   7.450   8.128   9.480
19074WAT      O57463   0.462   3.605   2.810
19074WAT     H157464   0.558   3.578   2.820
19074WAT     H257465   0.408   3.567   2.884
19075WAT      O57466   2.184   1.025   4.601
19075WAT     H157467   2.112   1.070   4.548
19075WAT     H257468   2.268   1.022   4.548
19076WAT      O57469   6.444   5.789   6.900
19076WAT     H157470   6.468   5.738   6.983
19076WAT     H257471   6.520   5.784   6.835
19077WAT      O57472   7.714   6.351   2.753
19077WAT     H157473   7.623   6.387   2.774
19077WAT     H257474   7.713   6.251   2.760
19078WAT      O57475   8.726   8.792   5.650
19078WAT     H157476   8.807   8.740   5.625
19078WAT     H257477   8.749   8.857   5.722
19079WAT      O57478   4.834   4.580   0.536
19079WAT     H157479   4.787   4.632   0.464
19079WAT     H257480   4.769   4.558   0.609
19080WAT      O57481   3.147   4.984   7.068
19080WAT     H157482   3.060   4.953   7.032
19080WAT     H257483   3.181   4.919   7.136
19081WAT      O57484   6.731   0.350   8.779
19081WAT     H157485   6.760   0.270   8.831
19081WAT     H257486   6.754   0.433   8.829
19082WAT      O57487   0.491   0.545   2.600
19082WAT     H157488   0.446   0.517   2.515
19082WAT     H257489   0.470   0.479   2.672
19083WAT      O57490   8.169   0.886   3.266
19083WAT     H157491   8.164   0.837   3.179
19083WAT     H257492   8.105   0.844   3.331
19084WAT      O57493   8.398   5.319   5.192
19084WAT     H157494   8.311   5.336   5.145
19084WAT     H257495   8.418   5.395   5.254
19085WAT      O57496   8.042   1.252   4.871
19085WAT     H157497   8.118   1.188   4.873
19085WAT     H257498   8.075   1.344   4.848
19086WAT      O57499   1.894   2.897   7.251
19086WAT     H157500   1.945   2.927   7.332
19086WAT     H257501   1.883   2.973   7.188
19087WAT      O57502   3.363   3.446   3.492
19087WAT     H157503   3.264   3.453   3.486
19087WAT     H257504   3.401   3.429   3.401
19088WAT      O57505   6.756   3.853   5.962
19088WAT     H157506   6.762   3.768   5.911
19088WAT     H257507   6.818   3.849   6.040
19089WAT      O57508   5.024   1.203   5.368
19089WAT     H157509   5.064   1.267   5.302
19089WAT     H257510   4.940   1.242   5.404
19090WAT      O57511   2.424   4.068   9.339
19090WAT     H157512   2.367   4.045   9.418
19090WAT     H257513   2.457   3.984   9.296
19091WAT      O57514   6.812   0.967   5.395
19091WAT     H157515   6.747   0.900   5.431
19091WAT     H257516   6.769   1.058   5.393
19092WAT      O57517   8.450   1.183   1.715
19092WAT     H157518   8.448   1.251   1.789
19092WAT     H257519   8.519   1.210   1.647
19093WAT      O57520   4.319   5.548   5.356
19093WAT     H157521   4.277   5.469   5.401
19093WAT     H257522   4.331   5.528   5.258
19094WAT      O57523   8.276   2.309   3.987
19094WAT     H157524   8.236   2.387   3.938
19094WAT     H257525   8.288   2.332   4.083
19095WAT      O57526   1.335   4.212   8.163
19095WAT     H157527   1.404   4.263   8.111
19095WAT     H257528   1.253   4.268   8.173
19096WAT      O57529   8.394   9.668   9.395
19096WAT     H157530   8.417   9.572   9.381
19096WAT     H257531   8.379   9.684   9.493
19097WAT      O57532   4.355   8.660   0.079
19097WAT     H157533   4.286   8.726   0.109
19097WAT     H257534   4.310   8.573   0.056
19098WAT      O57535   8.996   9.799   3.706
19098WAT     H157536   9.072   9.776   3.767
19098WAT     H257537   8.909   9.789   3.755
19099WAT      O57538   0.937   2.100   4.799
19099WAT     H157539   0.928   2.001   4.788
19099WAT     H257540   0.906   2.146   4.716
19100WAT      O57541   1.207   0.862   3.414
19100WAT     H157542   1.239   0.819   3.498
19100WAT     H257543   1.107   0.868   3.416
19101WAT      O57544   5.592   6.372   7.767
19101WAT     H157545   5.575   6.283   7.726
19101WAT     H257546   5.660   6.421   7.712
19102WAT      O57547   6.044   3.142   3.715
19102WAT     H157548   6.139   3.153   3.744
19102WAT     H257549   6.014   3.224   3.667
19103WAT      O57550   8.222   5.347   3.935
19103WAT     H157551   8.197   5.439   3.905
19103WAT     H257552   8.302   5.352   3.996
19104WAT      O57553   5.288   0.817   7.316
19104WAT     H157554   5.210   0.755   7.331
19104WAT     H257555   5.273   0.901   7.367
19105WAT      O57556   7.027   6.346   9.160
19105WAT     H157557   7.108   6.403   9.169
19105WAT     H257558   7.033   6.268   9.223
19106WAT      O57559   1.497   6.570   4.314
19106WAT     H157560   1.403   6.576   4.281
19106WAT     H257561   1.530   6.662   4.338
19107WAT      O57562   8.348   5.975   9.527
19107WAT     H157563   8.258   5.998   9.565
19107WAT     H257564   8.419   6.005   9.591
19108WAT      O57565   0.338   8.539   1.817
19108WAT     H157566   0.370   8.444   1.811
19108WAT     H257567   0.257   8.551   1.760
19109WAT      O57568   8.890   4.186   6.275
19109WAT     H157569   8.846   4.195   6.364
19109WAT     H257570   8.926   4.275   6.246
19110WAT      O57571   3.542   3.138   9.245
19110WAT     H157572   3.470   3.081   9.285
19110WAT     H257573   3.606   3.080   9.195
19111WAT      O57574   9.593   3.437   9.288
19111WAT     H157575   9.587   3.516   9.349
19111WAT     H257576   9.501   3.406   9.264
19112WAT      O57577   1.920   6.803   1.775
19112WAT     H157578   1.986   6.860   1.726
19112WAT     H257579   1.827   6.837   1.756
19113WAT      O57580   8.086   8.253   1.038
19113WAT     H157581   8.021   8.224   1.109
19113WAT     H257582   8.108   8.350   1.051
19114WAT      O57583   4.159   9.315   1.494
19114WAT     H157584   4.145   9.220   1.521
19114WAT     H257585   4.255   9.329   1.469
19115WAT      O57586   0.462   5.806   4.086
19115WAT     H157587   0.532   5.840   4.149
19115WAT     H257588   0.465   5.858   4.001
19116WAT      O57589   6.920   1.826   2.669
19116WAT     H157590   6.831   1.788   2.694
19116WAT     H257591   6.910   1.923   2.648
19117WAT      O57592   3.760   0.058   8.165
19117WAT     H157593   3.834   0.062   8.098
19117WAT     H257594   3.686   0.000   8.131
19118WAT      O57595   7.338   4.629   3.108
19118WAT     H157596   7.380   4.544   3.075
19118WAT     H257597   7.305   4.683   3.030
19119WAT      O57598   5.356   1.843   3.271
19119WAT     H157599   5.409   1.770   3.314
19119WAT     H257600   5.417   1.900   3.215
19120WAT      O57601   8.146   7.199   4.392
19120WAT     H157602   8.245   7.196   4.376
19120WAT     H257603   8.101   7.131   4.333
19121WAT      O57604   4.498   1.491   4.275
19121WAT     H157605   4.537   1.491   4.367
19121WAT     H257606   4.479   1.585   4.247
19122WAT      O57607   2.376   7.901   1.480
19122WAT     H157608   2.469   7.926   1.455
19122WAT     H257609   2.330   7.861   1.401
19123WAT      O57610   1.977   5.996   8.725
19123WAT     H157611   1.996   5.936   8.803
19123WAT     H257612   1.959   6.089   8.758
19124WAT      O57613   5.442   9.184   2.387
19124WAT     H157614   5.429   9.212   2.292
19124WAT     H257615   5.367   9.220   2.443
19125WAT      O57616   6.841   7.491   8.310
19125WAT     H157617   6.757   7.532   8.274
19125WAT     H257618   6.920   7.529   8.262
19126WAT      O57619   2.622   0.452   0.851
19126WAT     H157620   2.650   0.545   0.877
19126WAT     H257621   2.606   0.449   0.752
19127WAT      O57622   2.001   7.535   4.534
19127WAT     H157623   2.086   7.511   4.581
19127WAT     H257624   2.013   7.623   4.488
19128WAT      O57625   9.342   2.579   2.613
19128WAT     H157626   9.337   2.664   2.562
19128WAT     H257627   9.437   2.560   2.638
19129WAT      O57628   5.099   8.235   0.009
19129WAT     H157629   5.152   8.157   0.043
19129WAT     H257630   5.160   8.313  -0.004
19130WAT      O57631   9.594   2.339   3.739
19130WAT     H157632   9.524   2.272   3.714
19130WAT     H257633   9.659   2.296   3.802
19131WAT      O57634   7.287   3.562   9.213
19131WAT     H157635   7.189   3.548   9.223
19131WAT     H257636   7.311   3.656   9.239
19132WAT      O57637   4.707   3.544   3.552
19132WAT     H157638   4.643   3.469   3.568
19132WAT     H257639   4.658   3.631   3.551
19133WAT      O57640   3.547   1.395   8.684
19133WAT     H157641   3.603   1.313   8.674
19133WAT     H257642   3.604   1.476   8.670
19134WAT      O57643   9.708   8.037   6.646
19134WAT     H157644   9.609   8.043   6.634
19134WAT     H257645   9.729   8.013   6.741
19135WAT      O57646   9.120   7.462   9.774
19135WAT     H157647   9.185   7.512   9.717
19135WAT     H257648   9.040   7.436   9.718
19136WAT      O57649   1.225   5.933   4.006
19136WAT     H157650   1.307   5.876   4.018
19136WAT     H257651   1.247   6.012   3.950
19137WAT      O57652   6.672   7.775   2.972
19137WAT     H157653   6.720   7.854   3.010
19137WAT     H257654   6.699   7.692   3.022
19138WAT      O57655   6.091   1.468   8.685
19138WAT     H157656   6.158   1.522   8.634
19138WAT     H257657   6.066   1.515   8.770
19139WAT      O57658   6.990   4.098   4.955
19139WAT     H157659   7.061   4.069   5.019
19139WAT     H257660   7.023   4.087   4.861
19140WAT      O57661   3.346   4.422   6.024
19140WAT     H157662   3.281   4.348   6.036
19140WAT     H257663   3.422   4.410   6.088
19141WAT      O57664   4.945   2.512   8.756
19141WAT     H157665   4.875   2.441   8.747
19141WAT     H257666   4.976   2.541   8.666
19142WAT      O57667   5.384   7.687   4.639
19142WAT     H157668   5.451   7.759   4.619
19142WAT     H257669   5.309   7.692   4.573
19143WAT      O57670   8.960   8.268   3.185
19143WAT     H157671   9.000   8.325   3.257
19143WAT     H257672   8.960   8.172   3.215
19144WAT      O57673   7.657   8.700   3.968
19144WAT     H157674   7.686   8.796   3.961
19144WAT     H257675   7.626   8.668   3.878
19145WAT      O57676   5.015   5.472   7.753
19145WAT     H157677   5.051   5.560   7.723
19145WAT     H257678   5.061   5.399   7.703
19146WAT      O57679   8.095   6.623   4.328
19146WAT     H157680   8.117   6.567   4.408
19146WAT     H257681   8.047   6.568   4.260
19147WAT      O57682   4.499   7.018   1.806
19147WAT     H157683   4.578   7.062   1.765
19147WAT     H257684   4.493   7.041   1.903
19148WAT      O57685   0.915   8.890   0.153
19148WAT     H157686   0.931   8.923   0.060
19148WAT     H257687   1.002   8.887   0.203
19149WAT      O57688   3.940   3.786   3.600
19149WAT     H157689   3.980   3.742   3.520
19149WAT     H257690   3.842   3.765   3.604
19150WAT      O57691   9.535   0.866   7.950
19150WAT     H157692   9.533   0.837   8.045
19150WAT     H257693   9.457   0.827   7.901
19151WAT      O57694   0.808   3.379   9.427
19151WAT     H157695   0.900   3.348   9.449
19151WAT     H257696   0.776   3.332   9.345
19152WAT      O57697   7.961   9.223   5.427
19152WAT     H157698   7.983   9.139   5.477
19152WAT     H257699   7.939   9.296   5.492
19153WAT      O57700   9.556   7.788   2.738
19153WAT     H157701   9.640   7.750   2.698
19153WAT     H257702   9.579   7.843   2.818
19154WAT      O57703   4.063   9.741   8.699
19154WAT     H157704   3.971   9.779   8.704
19154WAT     H257705   4.062   9.647   8.734
19155WAT      O57706   3.633   4.404   2.305
19155WAT     H157707   3.545   4.383   2.346
19155WAT     H257708   3.632   4.498   2.270
19156WAT      O57709   7.495   1.264   0.196
19156WAT     H157710   7.560   1.189   0.178
19156WAT     H257711   7.511   1.338   0.130
19157WAT      O57712   6.863   2.463   4.400
19157WAT     H157713   6.939   2.398   4.387
19157WAT     H257714   6.823   2.451   4.490
19158WAT      O57715   4.298   1.001   0.897
19158WAT     H157716   4.265   0.940   0.969
19158WAT     H257717   4.388   1.036   0.922
19159WAT      O57718   9.156   4.357   0.557
19159WAT     H157719   9.129   4.446   0.594
19159WAT     H257720   9.145   4.358   0.457
19160WAT      O57721   6.989   4.070   2.059
19160WAT     H157722   6.932   4.095   2.138
19160WAT     H257723   7.059   4.005   2.089
19161WAT      O57724   5.977   9.557   2.210
19161WAT     H157725   6.043   9.623   2.175
19161WAT     H257726   6.012   9.464   2.198
19162WAT      O57727   9.341   7.303   0.747
19162WAT     H157728   9.265   7.243   0.721
19162WAT     H257729   9.372   7.354   0.667
19163WAT      O57730   8.200   1.486   0.610
19163WAT     H157731   8.208   1.567   0.668
19163WAT     H257732   8.289   1.466   0.569
19164WAT      O57733   1.050   1.560   8.153
19164WAT     H157734   1.113   1.488   8.183
19164WAT     H257735   0.976   1.518   8.100
19165WAT      O57736   0.898   1.428   6.296
19165WAT     H157737   0.977   1.488   6.280
19165WAT     H257738   0.929   1.334   6.310
19166WAT      O57739   0.208   6.155   6.921
19166WAT     H157740   0.110   6.172   6.936
19166WAT     H257741   0.235   6.192   6.832
19167WAT      O57742   9.596   1.314   7.162
19167WAT     H157743   9.575   1.386   7.228
19167WAT     H257744   9.528   1.317   7.088
19168WAT      O57745   0.450   8.255   3.987
19168WAT     H157746   0.468   8.337   3.933
19168WAT     H257747   0.356   8.257   4.020
19169WAT      O57748   8.903   0.521   3.881
19169WAT     H157749   8.901   0.621   3.886
19169WAT     H257750   8.992   0.488   3.914
19170WAT      O57751   3.183   9.329   3.568
19170WAT     H157752   3.177   9.236   3.605
19170WAT     H257753   3.188   9.325   3.468
19171WAT      O57754   5.030   9.638   8.544
19171WAT     H157755   5.065   9.584   8.620
19171WAT     H257756   4.946   9.595   8.510
19172WAT      O57757   1.499   6.380   8.861
19172WAT     H157758   1.559   6.460   8.852
19172WAT     H257759   1.517   6.334   8.948
19173WAT      O57760   9.812   5.022   6.240
19173WAT     H157761   9.738   4.975   6.288
19173WAT     H257762   9.792   5.024   6.142
19174WAT      O57763   4.613   3.144   4.313
19174WAT     H157764   4.537   3.090   4.275
19174WAT     H257765   4.576   3.220   4.366
19175WAT      O57766   1.210   4.363   4.434
19175WAT     H157767   1.285   4.352   4.368
19175WAT     H257768   1.169   4.274   4.453
19176WAT      O57769   2.402   6.889   9.598
19176WAT     H157770   2.409   6.879   9.499
19176WAT     H257771   2.366   6.980   9.619
19177WAT      O57772   5.802   0.030   3.037
19177WAT     H157773   5.840   0.074   3.118
19177WAT     H257774   5.841   0.072   2.955
19178WAT      O57775   6.391   2.396   6.124
19178WAT     H157776   6.390   2.496   6.122
19178WAT     H257777   6.326   2.361   6.056
19179WAT      O57778   1.550   7.695   0.125
19179WAT     H157779   1.484   7.628   0.091
19179WAT     H257780   1.513   7.739   0.206
19180WAT      O57781   5.898   7.731   9.701
19180WAT     H157782   5.902   7.831   9.705
19180WAT     H257783   5.806   7.702   9.675
19181WAT      O57784   2.266   4.281   9.346
19181WAT     H157785   2.337   4.211   9.354
19181WAT     H257786   2.176   4.239   9.356
19182WAT      O57787   5.750   9.031   1.649
19182WAT     H157788   5.785   9.100   1.712
19182WAT     H257789   5.650   9.037   1.645
19183WAT      O57790   1.061   3.616   5.586
19183WAT     H157791   1.108   3.702   5.563
19183WAT     H257792   1.128   3.547   5.613
19184WAT      O57793   7.814   4.341   7.125
19184WAT     H157794   7.870   4.411   7.168
19184WAT     H257795   7.866   4.295   7.053
19185WAT      O57796   8.119   1.827   6.547
19185WAT     H157797   8.084   1.777   6.626
19185WAT     H257798   8.205   1.787   6.517
19186WAT      O57799   1.809   1.171   8.833
19186WAT     H157800   1.757   1.230   8.894
19186WAT     H257801   1.888   1.134   8.881
19187WAT      O57802   1.661   2.712   2.038
19187WAT     H157803   1.587   2.728   1.972
19187WAT     H257804   1.635   2.639   2.100
19188WAT      O57805   8.856   2.616   9.576
19188WAT     H157806   8.821   2.693   9.524
19188WAT     H257807   8.797   2.599   9.655
19189WAT      O57808   5.391   4.522   2.547
19189WAT     H157809   5.429   4.615   2.543
19189WAT     H257810   5.323   4.517   2.620
19190WAT      O57811   7.380   6.020   3.571
19190WAT     H157812   7.439   6.101   3.561
19190WAT     H257813   7.381   5.968   3.486
19191WAT      O57814   6.785   8.639   6.100
19191WAT     H157815   6.850   8.626   6.175
19191WAT     H257816   6.824   8.605   6.015
19192WAT      O57817   1.581   3.194   9.336
19192WAT     H157818   1.568   3.287   9.372
19192WAT     H257819   1.627   3.138   9.405
19193WAT      O57820   2.845   1.687   5.795
19193WAT     H157821   2.884   1.779   5.786
19193WAT     H257822   2.750   1.687   5.765
19194WAT      O57823   5.948   1.869   9.536
19194WAT     H157824   5.864   1.816   9.542
19194WAT     H257825   6.025   1.808   9.517
19195WAT      O57826   7.942   6.191   4.135
19195WAT     H157827   7.863   6.130   4.127
19195WAT     H257828   8.006   6.154   4.203
19196WAT      O57829   2.800   5.402   7.316
19196WAT     H157830   2.779   5.307   7.292
19196WAT     H257831   2.855   5.404   7.399
19197WAT      O57832   8.713   1.912   4.450
19197WAT     H157833   8.810   1.887   4.456
19197WAT     H257834   8.676   1.921   4.543
19198WAT      O57835   2.476   2.784   4.542
19198WAT     H157836   2.566   2.766   4.502
19198WAT     H257837   2.406   2.783   4.471
19199WAT      O57838   1.720   5.275   7.069
19199WAT     H157839   1.714   5.285   6.969
19199WAT     H257840   1.709   5.178   7.093
19200WAT      O57841   4.523   4.771   2.306
19200WAT     H157842   4.551   4.737   2.216
19200WAT     H257843   4.456   4.845   2.294
19201WAT      O57844   0.977   1.365   5.482
19201WAT     H157845   0.980   1.312   5.567
19201WAT     H257846   1.003   1.306   5.405
19202WAT      O57847   6.252   9.459   4.534
19202WAT     H157848   6.189   9.536   4.525
19202WAT     H257849   6.305   9.468   4.618
19203WAT      O57850   3.763   0.841   4.251
19203WAT     H157851   3.842   0.801   4.204
19203WAT     H257852   3.795   0.890   4.332
19204WAT      O57853   2.324   3.955   4.980
19204WAT     H157854   2.371   3.910   4.904
19204WAT     H257855   2.245   4.005   4.944
19205WAT      O57856   7.596   4.598   1.199
19205WAT     H157857   7.694   4.582   1.192
19205WAT     H257858   7.565   4.574   1.291
19206WAT      O57859   6.915   2.429   7.136
19206WAT     H157860   6.934   2.487   7.215
19206WAT     H257861   6.992   2.433   7.072
19207WAT      O57862   2.399   4.162   2.863
19207WAT     H157863   2.463   4.239   2.858
19207WAT     H257864   2.370   4.149   2.958
19208WAT      O57865   6.629   9.227   3.709
19208WAT     H157866   6.713   9.274   3.738
19208WAT     H257867   6.607   9.156   3.775
19209WAT      O57868   4.657   8.789   3.471
19209WAT     H157869   4.741   8.737   3.485
19209WAT     H257870   4.665   8.879   3.516
19210WAT      O57871   9.823   1.268   1.220
19210WAT     H157872   9.723   1.270   1.213
19210WAT     H257873   9.859   1.361   1.213
19211WAT      O57874   1.140   1.861   3.380
19211WAT     H157875   1.123   1.817   3.468
19211WAT     H257876   1.229   1.832   3.344
19212WAT      O57877   9.585   8.532   2.741
19212WAT     H157878   9.619   8.567   2.653
19212WAT     H257879   9.647   8.559   2.814
19213WAT      O57880   1.842   1.082   1.866
19213WAT     H157881   1.818   1.062   1.961
19213WAT     H257882   1.901   1.008   1.831
19214WAT      O57883   9.373   2.021   4.262
19214WAT     H157884   9.296   2.082   4.281
19214WAT     H257885   9.448   2.073   4.221
19215WAT      O57886   2.659   7.556   9.885
19215WAT     H157887   2.611   7.606   9.813
19215WAT     H257888   2.756   7.582   9.885
19216WAT      O57889   5.654   0.289   0.947
19216WAT     H157890   5.731   0.323   1.002
19216WAT     H257891   5.624   0.361   0.884
19217WAT      O57892   9.509   1.993   3.865
19217WAT     H157893   9.505   1.893   3.870
19217WAT     H257894   9.599   2.024   3.895
19218WAT      O57895   1.519   8.823   6.215
19218WAT     H157896   1.483   8.848   6.305
19218WAT     H257897   1.619   8.824   6.218
19219WAT      O57898   5.621   6.939   5.832
19219WAT     H157899   5.667   6.947   5.920
19219WAT     H257900   5.665   6.999   5.765
19220WAT      O57901   7.272   6.087   4.071
19220WAT     H157902   7.284   6.128   3.980
19220WAT     H257903   7.284   5.988   4.064
19221WAT      O57904   0.593   2.637   8.178
19221WAT     H157905   0.591   2.734   8.204
19221WAT     H257906   0.684   2.614   8.144
19222WAT      O57907   1.096   2.277   3.597
19222WAT     H157908   1.117   2.225   3.680
19222WAT     H257909   1.084   2.215   3.520
19223WAT      O57910   1.977   6.573   3.706
19223WAT     H157911   2.077   6.584   3.709
19223WAT     H257912   1.945   6.534   3.792
19224WAT      O57913   0.039   2.843   5.871
19224WAT     H157914  -0.018   2.761   5.860
19224WAT     H257915   0.087   2.861   5.786
19225WAT      O57916   0.008   1.771   3.265
19225WAT     H157917   0.039   1.802   3.175
19225WAT     H257918  -0.083   1.732   3.257
19226WAT      O57919   1.938   7.271   9.468
19226WAT     H157920   1.991   7.198   9.425
19226WAT     H257921   1.899   7.330   9.398
19227WAT      O57922   7.766   0.950   2.147
19227WAT     H157923   7.783   1.040   2.107
19227WAT     H257924   7.674   0.948   2.186
19228WAT      O57925   8.683   0.167   6.321
19228WAT     H157926   8.759   0.193   6.262
19228WAT     H257927   8.690   0.070   6.345
19229WAT      O57928   1.460   0.182   6.425
19229WAT     H157929   1.440   0.089   6.396
19229WAT     H257930   1.489   0.236   6.346
19230WAT      O57931   6.225   5.843   3.995
19230WAT     H157932   6.309   5.794   3.971
19230WAT     H257933   6.232   5.875   4.090
19231WAT      O57934   8.279   8.903   9.509
19231WAT     H157935   8.214   8.878   9.437
19231WAT     H257936   8.263   8.847   9.590
19232WAT      O57937   0.546   1.616   4.061
19232WAT     H157938   0.528   1.610   3.962
19232WAT     H257939   0.484   1.682   4.102
19233WAT      O57940   9.652   2.109   1.610
19233WAT     H157941   9.706   2.173   1.665
19233WAT     H257942   9.617   2.156   1.529
19234WAT      O57943   7.432   8.115   9.036
19234WAT     H157944   7.462   8.161   9.119
19234WAT     H257945   7.432   8.179   8.960
19235WAT      O57946   6.357   5.543   8.084
19235WAT     H157947   6.293   5.546   8.161
19235WAT     H257948   6.445   5.581   8.112
19236WAT      O57949   4.851   5.274   7.057
19236WAT     H157950   4.939   5.227   7.054
19236WAT     H257951   4.808   5.270   6.966
19237WAT      O57952   8.344   3.678   4.638
19237WAT     H157953   8.403   3.646   4.712
19237WAT     H257954   8.395   3.676   4.552
19238WAT      O57955   2.148   8.167   1.323
19238WAT     H157956   2.237   8.208   1.300
19238WAT     H257957   2.139   8.162   1.422
19239WAT      O57958   0.117   8.304   5.791
19239WAT     H157959   0.211   8.269   5.785
19239WAT     H257960   0.097   8.327   5.886
19240WAT      O57961   9.259   7.656   9.628
19240WAT     H157962   9.222   7.742   9.592
19240WAT     H257963   9.359   7.657   9.621
19241WAT      O57964   2.393   1.417   1.524
19241WAT     H157965   2.392   1.408   1.424
19241WAT     H257966   2.471   1.365   1.560
19242WAT      O57967   1.417   8.278   8.501
19242WAT     H157968   1.472   8.356   8.473
19242WAT     H257969   1.439   8.199   8.443
19243WAT      O57970   2.455   0.544   5.446
19243WAT     H157971   2.485   0.636   5.419
19243WAT     H257972   2.531   0.480   5.437
19244WAT      O57973   6.216   1.340   1.521
19244WAT     H157974   6.283   1.296   1.581
19244WAT     H257975   6.216   1.295   1.432
19245WAT      O57976   2.942   4.221   0.946
19245WAT     H157977   3.029   4.175   0.931
19245WAT     H257978   2.882   4.163   1.002
19246WAT      O57979   0.334   9.039   1.296
19246WAT     H157980   0.432   9.019   1.303
19246WAT     H257981   0.297   9.055   1.388
19247WAT      O57982   7.467   2.769   6.869
19247WAT     H157983   7.399   2.698   6.885
19247WAT     H257984   7.528   2.741   6.795
19248WAT      O57985   5.350   0.106   0.500
19248WAT     H157986   5.342   0.205   0.487
19248WAT     H257987   5.306   0.080   0.586
19249WAT      O57988   1.434   5.579   9.859
19249WAT     H157989   1.510   5.519   9.835
19249WAT     H257990   1.359   5.565   9.794
19250WAT      O57991   6.617   7.148   5.795
19250WAT     H157992   6.689   7.174   5.730
19250WAT     H257993   6.636   7.189   5.884
19251WAT      O57994   6.195   1.164   1.019
19251WAT     H157995   6.191   1.066   1.039
19251WAT     H257996   6.107   1.206   1.040
19252WAT      O57997   8.217   0.786   0.284
19252WAT     H157998   8.244   0.758   0.192
19252WAT     H257999   8.117   0.778   0.293
19253WAT      O58000   1.587   9.197   6.469
19253WAT     H158001   1.592   9.116   6.527
19253WAT     H258002   1.575   9.278   6.527
19254WAT      O58003   7.774   6.962   9.546
19254WAT     H158004   7.866   6.998   9.559
19254WAT     H258005   7.753   6.896   9.618
19255WAT      O58006   2.732   1.718   8.044
19255WAT     H158007   2.712   1.620   8.046
19255WAT     H258008   2.723   1.756   8.136
19256WAT      O58009   5.305   0.076   3.428
19256WAT     H158010   5.300   0.175   3.415
19256WAT     H258011   5.387   0.053   3.481
19257WAT      O58012   0.861   8.187   3.278
19257WAT     H158013   0.961   8.189   3.287
19257WAT     H258014   0.826   8.102   3.317
19258WAT      O58015   7.429   7.852   6.549
19258WAT     H158016   7.413   7.754   6.548
19258WAT     H258017   7.489   7.877   6.473
19259WAT      O58018   1.109   3.200   3.738
19259WAT     H158019   1.010   3.198   3.724
19259WAT     H258020   1.131   3.269   3.807
19260WAT      O58021   8.420   5.315   4.877
19260WAT     H158022   8.494   5.379   4.895
19260WAT     H258023   8.385   5.329   4.785
19261WAT      O58024   3.575   0.101   5.792
19261WAT     H158025   3.626   0.136   5.871
19261WAT     H258026   3.511   0.171   5.761
19262WAT      O58027   4.261   1.905   3.342
19262WAT     H158028   4.337   1.898   3.278
19262WAT     H258029   4.280   1.849   3.423
19263WAT      O58030   4.845   1.631   4.918
19263WAT     H158031   4.853   1.537   4.886
19263WAT     H258032   4.749   1.654   4.932
19264WAT      O58033   8.845   4.952   2.246
19264WAT     H158034   8.910   5.002   2.189
19264WAT     H258035   8.842   4.856   2.217
19265WAT      O58036   5.541   1.002   7.819
19265WAT     H158037   5.587   0.915   7.837
19265WAT     H258038   5.569   1.069   7.888
19266WAT      O58039   1.018   7.908   4.678
19266WAT     H158040   0.962   7.982   4.638
19266WAT     H258041   1.057   7.939   4.765
19267WAT      O58042   3.460   3.905   9.829
19267WAT     H158043   3.468   3.970   9.905
19267WAT     H258044   3.442   3.814   9.865
19268WAT      O58045   1.063   4.308   5.114
19268WAT     H158046   1.098   4.316   5.020
19268WAT     H258047   1.028   4.216   5.129
19269WAT      O58048   4.260   2.004   6.893
19269WAT     H158049   4.206   2.009   6.977
19269WAT     H258050   4.330   1.933   6.903
19270WAT      O58051   7.289   5.328   9.003
19270WAT     H158052   7.375   5.372   9.030
19270WAT     H258053   7.226   5.328   9.081
19271WAT      O58054   9.217   7.779   9.335
19271WAT     H158055   9.220   7.705   9.268
19271WAT     H258056   9.143   7.842   9.311
19272WAT      O58057   0.496   0.874   8.186
19272WAT     H158058   0.563   0.865   8.112
19272WAT     H258059   0.423   0.808   8.173
19273WAT      O58060   8.491   4.707   6.042
19273WAT     H158061   8.435   4.667   6.115
19273WAT     H258062   8.480   4.653   5.958
19274WAT      O58063   2.412   1.795   0.637
19274WAT     H158064   2.483   1.847   0.589
19274WAT     H258065   2.454   1.747   0.714
19275WAT      O58066   8.554   5.340   9.714
19275WAT     H158067   8.456   5.341   9.736
19275WAT     H258068   8.589   5.247   9.722
19276WAT      O58069   7.603   4.119   0.632
19276WAT     H158070   7.576   4.089   0.723
19276WAT     H258071   7.554   4.204   0.609
19277WAT      O58072   7.904   9.710   5.428
19277WAT     H158073   7.877   9.799   5.392
19277WAT     H258074   7.936   9.720   5.522
19278WAT      O58075   0.617   1.084   2.407
19278WAT     H158076   0.638   1.156   2.341
19278WAT     H258077   0.539   1.112   2.463
19279WAT      O58078   5.161   2.093   0.957
19279WAT     H158079   5.187   2.013   0.901
19279WAT     H258080   5.157   2.174   0.899
19280WAT      O58081   0.520   5.368   0.447
19280WAT     H158082   0.471   5.288   0.413
19280WAT     H258083   0.478   5.451   0.408
19281WAT      O58084   0.726   7.568   2.769
19281WAT     H158085   0.826   7.568   2.770
19281WAT     H258086   0.693   7.481   2.733
19282WAT      O58087   8.495   4.248   3.638
19282WAT     H158088   8.582   4.278   3.676
19282WAT     H258089   8.450   4.325   3.591
19283WAT      O58090   3.563   7.896   6.317
19283WAT     H158091   3.656   7.868   6.294
19283WAT     H258092   3.537   7.855   6.404
19284WAT      O58093   4.429   7.909   0.536
19284WAT     H158094   4.345   7.872   0.495
19284WAT     H258095   4.434   7.882   0.632
19285WAT      O58096   0.647   0.933   0.994
19285WAT     H158097   0.742   0.961   0.984
19285WAT     H258098   0.595   1.006   1.038
19286WAT      O58099   1.817   2.182   7.054
19286WAT     H158100   1.873   2.137   6.985
19286WAT     H258101   1.763   2.254   7.011
19287WAT      O58102   7.861   2.636   2.935
19287WAT     H158103   7.935   2.570   2.926
19287WAT     H258104   7.898   2.723   2.968
19288WAT      O58105   1.140   2.804   1.236
19288WAT     H158106   1.176   2.802   1.329
19288WAT     H258107   1.190   2.871   1.182
19289WAT      O58108   8.456   9.663   7.812
19289WAT     H158109   8.534   9.614   7.849
19289WAT     H258110   8.377   9.602   7.808
19290WAT      O58111   8.792   2.234   6.532
19290WAT     H158112   8.736   2.164   6.576
19290WAT     H258113   8.737   2.314   6.511
19291WAT      O58114   6.865   0.572   7.029
19291WAT     H158115   6.786   0.623   7.063
19291WAT     H258116   6.888   0.603   6.937
19292WAT      O58117   3.361   5.430   8.068
19292WAT     H158118   3.424   5.490   8.118
19292WAT     H258119   3.360   5.340   8.111
19293WAT      O58120   2.104   6.566   1.572
19293WAT     H158121   2.025   6.577   1.633
19293WAT     H258122   2.104   6.473   1.534
19294WAT      O58123   5.979   2.164   8.147
19294WAT     H158124   5.894   2.203   8.112
19294WAT     H258125   5.969   2.066   8.159
19295WAT      O58126   0.395   4.006   4.686
19295WAT     H158127   0.402   3.963   4.597
19295WAT     H258128   0.377   4.104   4.675
19296WAT      O58129   6.326   6.825   3.608
19296WAT     H158130   6.238   6.826   3.561
19296WAT     H258131   6.342   6.914   3.650
19297WAT      O58132   7.251   2.730   6.398
19297WAT     H158133   7.200   2.648   6.371
19297WAT     H258134   7.269   2.786   6.318
19298WAT      O58135   6.556   7.910   6.223
19298WAT     H158136   6.488   7.979   6.246
19298WAT     H258137   6.561   7.901   6.123
19299WAT      O58138   7.301   3.268   1.472
19299WAT     H158139   7.367   3.343   1.465
19299WAT     H258140   7.320   3.214   1.554
19300WAT      O58141   4.402   0.837   1.666
19300WAT     H158142   4.461   0.906   1.709
19300WAT     H258143   4.379   0.767   1.734
19301WAT      O58144   6.490   1.888   7.511
19301WAT     H158145   6.538   1.877   7.424
19301WAT     H258146   6.428   1.966   7.505
19302WAT      O58147   1.860   7.263   3.840
19302WAT     H158148   1.916   7.328   3.892
19302WAT     H258149   1.770   7.257   3.883
19303WAT      O58150   1.804   0.810   0.436
19303WAT     H158151   1.862   0.828   0.356
19303WAT     H258152   1.716   0.857   0.424
19304WAT      O58153   2.514   7.665   0.605
19304WAT     H158154   2.445   7.593   0.612
19304WAT     H258155   2.513   7.721   0.688
19305WAT      O58156   6.853   1.172   1.483
19305WAT     H158157   6.900   1.153   1.570
19305WAT     H258158   6.874   1.099   1.418
19306WAT      O58159   0.561   1.485   8.566
19306WAT     H158160   0.620   1.544   8.620
19306WAT     H258161   0.543   1.400   8.616
19307WAT      O58162   3.030   0.781   1.674
19307WAT     H158163   3.126   0.762   1.695
19307WAT     H258164   3.011   0.756   1.580
19308WAT      O58165   4.141   4.255   9.855
19308WAT     H158166   4.044   4.272   9.871
19308WAT     H258167   4.193   4.339   9.869
19309WAT      O58168   4.269   6.752   8.949
19309WAT     H158169   4.203   6.804   9.005
19309WAT     H258170   4.322   6.815   8.893
19310WAT      O58171   3.030   2.860   2.346
19310WAT     H158172   3.028   2.955   2.380
19310WAT     H258173   3.104   2.810   2.391
19311WAT      O58174   2.959   2.300   7.377
19311WAT     H158175   2.912   2.387   7.389
19311WAT     H258176   3.056   2.317   7.359
19312WAT      O58177   8.587   4.723   5.715
19312WAT     H158178   8.583   4.805   5.657
19312WAT     H258179   8.518   4.657   5.685
19313WAT      O58180   5.365   4.972   9.386
19313WAT     H158181   5.297   5.041   9.411
19313WAT     H258182   5.352   4.946   9.290
19314WAT      O58183   5.865   3.643   6.512
19314WAT     H158184   5.826   3.727   6.550
19314WAT     H258185   5.963   3.640   6.530
19315WAT      O58186   6.406   6.067   6.846
19315WAT     H158187   6.352   6.049   6.764
19315WAT     H258188   6.436   5.980   6.885
19316WAT      O58189   1.354   1.805   9.539
19316WAT     H158190   1.443   1.851   9.547
19316WAT     H258191   1.368   1.706   9.537
19317WAT      O58192   6.580   8.420   5.804
19317WAT     H158193   6.622   8.377   5.884
19317WAT     H258194   6.481   8.423   5.816
19318WAT      O58195   7.811   2.244   3.862
19318WAT     H158196   7.723   2.291   3.848
19318WAT     H258197   7.817   2.166   3.799
19319WAT      O58198   6.361   9.661   8.377
19319WAT     H158199   6.453   9.676   8.341
19319WAT     H258200   6.340   9.730   8.446
19320WAT      O58201   8.013   3.852   2.301
19320WAT     H158202   8.106   3.864   2.266
19320WAT     H258203   7.956   3.930   2.274
19321WAT      O58204   4.292   7.040   9.879
19321WAT     H158205   4.338   7.129   9.887
19321WAT     H258206   4.203   7.053   9.836
19322WAT      O58207   8.970   7.062   2.105
19322WAT     H158208   9.046   7.127   2.115
19322WAT     H258209   8.906   7.074   2.180
19323WAT      O58210   5.520   7.011   2.654
19323WAT     H158211   5.585   6.986   2.724
19323WAT     H258212   5.502   7.109   2.658
19324WAT      O58213   3.052   0.466   7.656
19324WAT     H158214   2.962   0.439   7.689
19324WAT     H258215   3.068   0.426   7.566
19325WAT      O58216   5.511   3.183   2.329
19325WAT     H158217   5.508   3.261   2.267
19325WAT     H258218   5.418   3.148   2.342
19326WAT      O58219   3.186   3.889   8.004
19326WAT     H158220   3.284   3.895   8.025
19326WAT     H258221   3.141   3.975   8.031
19327WAT      O58222   6.715   7.882   2.361
19327WAT     H158223   6.803   7.922   2.387
19327WAT     H258224   6.686   7.818   2.431
19328WAT      O58225   6.312   7.842   4.715
19328WAT     H158226   6.357   7.796   4.791
19328WAT     H258227   6.373   7.842   4.635
19329WAT      O58228   2.240   4.638   5.490
19329WAT     H158229   2.158   4.606   5.535
19329WAT     H258230   2.262   4.730   5.521
19330WAT      O58231   8.251   9.018   6.788
19330WAT     H158232   8.188   8.966   6.846
19330WAT     H258233   8.285   8.959   6.715
19331WAT      O58234   0.881   9.151   3.060
19331WAT     H158235   0.936   9.085   3.009
19331WAT     H258236   0.890   9.241   3.017
19332WAT      O58237   3.441   1.778   6.337
19332WAT     H158238   3.449   1.739   6.245
19332WAT     H258239   3.532   1.805   6.368
19333WAT      O58240   7.882   7.492   6.503
19333WAT     H158241   7.942   7.523   6.577
19333WAT     H258242   7.934   7.487   6.418
19334WAT      O58243   5.422   0.442   7.331
19334WAT     H158244   5.471   0.367   7.287
19334WAT     H258245   5.337   0.459   7.281
19335WAT      O58246   1.282   5.319   8.977
19335WAT     H158247   1.266   5.259   8.898
19335WAT     H258248   1.196   5.329   9.028
19336WAT      O58249   4.870   0.462   1.052
19336WAT     H158250   4.810   0.504   0.984
19336WAT     H258251   4.907   0.533   1.112
19337WAT      O58252   7.260   2.404   4.866
19337WAT     H158253   7.352   2.443   4.879
19337WAT     H258254   7.237   2.402   4.769
19338WAT      O58255   3.189   3.096   1.448
19338WAT     H158256   3.185   2.997   1.435
19338WAT     H258257   3.160   3.118   1.541
19339WAT      O58258   2.918   4.622   5.235
19339WAT     H158259   2.818   4.618   5.226
19339WAT     H258260   2.947   4.718   5.228
19340WAT      O58261   4.617   7.075   8.571
19340WAT     H158262   4.538   7.090   8.513
19340WAT     H258263   4.621   7.148   8.641
19341WAT      O58264   1.312   7.897   4.046
19341WAT     H158265   1.368   7.815   4.045
19341WAT     H258266   1.310   7.938   3.954
19342WAT      O58267   9.328   6.529   0.663
19342WAT     H158268   9.422   6.561   0.675
19342WAT     H258269   9.330   6.439   0.617
19343WAT      O58270   0.938   6.677   3.990
19343WAT     H158271   1.025   6.705   3.951
19343WAT     H258272   0.934   6.578   3.997
19344WAT      O58273   2.036   6.410   1.991
19344WAT     H158274   1.972   6.381   2.063
19344WAT     H258275   2.112   6.461   2.033
19345WAT      O58276   7.241   0.459   2.546
19345WAT     H158277   7.299   0.472   2.466
19345WAT     H258278   7.251   0.366   2.579
19346WAT      O58279   0.731   6.682   4.950
19346WAT     H158280   0.813   6.643   4.907
19346WAT     H258281   0.650   6.656   4.897
19347WAT      O58282   8.298   4.497   1.337
19347WAT     H158283   8.374   4.475   1.275
19347WAT     H258284   8.276   4.594   1.329
19348WAT      O58285   5.377   6.496   9.440
19348WAT     H158286   5.363   6.572   9.376
19348WAT     H258287   5.385   6.411   9.388
19349WAT      O58288   7.895   7.782   6.864
19349WAT     H158289   7.818   7.789   6.800
19349WAT     H258290   7.860   7.783   6.958
19350WAT      O58291   5.178   0.095   3.870
19350WAT     H158292   5.123   0.076   3.789
19350WAT     H258293   5.158   0.188   3.903
19351WAT      O58294   0.250   8.125   2.665
19351WAT     H158295   0.271   8.032   2.693
19351WAT     H258296   0.166   8.126   2.611
19352WAT      O58297   6.847   9.709   1.956
19352WAT     H158298   6.808   9.636   2.012
19352WAT     H258299   6.944   9.692   1.941
19353WAT      O58300   4.667   2.238   8.115
19353WAT     H158301   4.717   2.320   8.141
19353WAT     H258302   4.577   2.263   8.079
19354WAT      O58303   5.432   1.322   5.501
19354WAT     H158304   5.518   1.362   5.533
19354WAT     H258305   5.451   1.256   5.429
19355WAT      O58306   9.002   5.078   4.145
19355WAT     H158307   9.040   5.030   4.066
19355WAT     H258308   9.038   5.171   4.147
19356WAT      O58309   1.362   1.875   4.410
19356WAT     H158310   1.360   1.904   4.314
19356WAT     H258311   1.347   1.954   4.469
19357WAT      O58312   0.769   8.911   5.458
19357WAT     H158313   0.859   8.870   5.448
19357WAT     H258314   0.711   8.884   5.381
19358WAT      O58315   4.257   5.962   6.287
19358WAT     H158316   4.289   6.020   6.213
19358WAT     H258317   4.201   5.888   6.250
19359WAT      O58318   7.747   0.716   5.799
19359WAT     H158319   7.781   0.804   5.833
19359WAT     H258320   7.679   0.733   5.728
19360WAT      O58321   7.926   0.917   4.790
19360WAT     H158322   7.831   0.890   4.774
19360WAT     H258323   7.941   1.009   4.754
19361WAT      O58324   3.711   4.530   7.299
19361WAT     H158325   3.809   4.516   7.282
19361WAT     H258326   3.661   4.522   7.213
19362WAT      O58327   9.705   3.280   0.384
19362WAT     H158328   9.710   3.327   0.295
19362WAT     H258329   9.615   3.236   0.393
19363WAT      O58330   4.920   6.092   5.089
19363WAT     H158331   4.996   6.077   5.027
19363WAT     H258332   4.836   6.107   5.037
19364WAT      O58333   6.088   9.055   8.929
19364WAT     H158334   6.120   9.013   8.844
19364WAT     H258335   6.076   8.985   8.999
19365WAT      O58336   0.909   3.105   1.456
19365WAT     H158337   0.923   3.163   1.536
19365WAT     H258338   0.981   3.122   1.389
19366WAT      O58339   1.702   3.893   4.385
19366WAT     H158340   1.716   3.835   4.465
19366WAT     H258341   1.719   3.989   4.410
19367WAT      O58342   4.997   7.391   3.283
19367WAT     H158343   4.902   7.405   3.256
19367WAT     H258344   5.041   7.326   3.221
19368WAT      O58345   4.234   8.241   9.180
19368WAT     H158346   4.308   8.292   9.225
19368WAT     H258347   4.147   8.265   9.224
19369WAT      O58348   0.040   2.323   7.488
19369WAT     H158349   0.050   2.421   7.474
19369WAT     H258350   0.126   2.277   7.465
19370WAT      O58351   3.998   7.227   2.237
19370WAT     H158352   4.059   7.208   2.314
19370WAT     H258353   4.024   7.170   2.159
19371WAT      O58354   3.144   9.169   7.841
19371WAT     H158355   3.179   9.089   7.890
19371WAT     H258356   3.214   9.202   7.777
19372WAT      O58357   5.753   3.151   3.075
19372WAT     H158358   5.722   3.181   3.165
19372WAT     H258359   5.796   3.227   3.027
19373WAT      O58360   2.008   5.173   5.411
19373WAT     H158361   1.927   5.114   5.409
19373WAT     H258362   2.003   5.235   5.489
19374WAT      O58363   4.719   1.732   9.814
19374WAT     H158364   4.763   1.648   9.847
19374WAT     H258365   4.747   1.749   9.720
19375WAT      O58366   0.333   9.726   3.424
19375WAT     H158367   0.248   9.718   3.477
19375WAT     H258368   0.319   9.685   3.334
19376WAT      O58369   7.798   1.551   0.745
19376WAT     H158370   7.712   1.539   0.695
19376WAT     H258371   7.850   1.466   0.742
19377WAT      O58372   1.265   6.899   7.708
19377WAT     H158373   1.194   6.899   7.638
19377WAT     H258374   1.329   6.974   7.690
19378WAT      O58375   0.148   4.732   0.405
19378WAT     H158376   0.208   4.720   0.484
19378WAT     H258377   0.062   4.773   0.435
19379WAT      O58378   8.906   2.220   8.982
19379WAT     H158379   8.816   2.258   8.960
19379WAT     H258380   8.974   2.293   8.984
19380WAT      O58381   8.691   2.561   2.982
19380WAT     H158382   8.614   2.591   3.038
19380WAT     H258383   8.776   2.571   3.033
19381WAT      O58384   1.849   3.836   2.921
19381WAT     H158385   1.907   3.780   2.861
19381WAT     H258386   1.869   3.813   3.016
19382WAT      O58387   9.009   6.639   2.840
19382WAT     H158388   9.079   6.592   2.893
19382WAT     H258389   9.049   6.717   2.792
19383WAT      O58390   3.518   8.395   2.772
19383WAT     H158391   3.445   8.446   2.817
19383WAT     H258392   3.548   8.320   2.831
19384WAT      O58393   1.383   4.137   1.702
19384WAT     H158394   1.418   4.054   1.745
19384WAT     H258395   1.348   4.198   1.774
19385WAT      O58396   3.670   0.824   1.244
19385WAT     H158397   3.757   0.872   1.255
19385WAT     H258398   3.683   0.727   1.265
19386WAT      O58399   3.246   1.162   7.042
19386WAT     H158400   3.270   1.122   6.953
19386WAT     H258401   3.300   1.118   7.114
19387WAT      O58402   1.817   1.138   6.630
19387WAT     H158403   1.821   1.111   6.534
19387WAT     H258404   1.827   1.057   6.688
19388WAT      O58405   2.661   3.100   3.832
19388WAT     H158406   2.647   3.107   3.733
19388WAT     H258407   2.656   3.192   3.873
19389WAT      O58408   3.576   2.617   2.368
19389WAT     H158409   3.623   2.532   2.392
19389WAT     H258410   3.589   2.684   2.441
19390WAT      O58411   8.941   4.334   8.734
19390WAT     H158412   8.955   4.315   8.637
19390WAT     H258413   8.959   4.431   8.752
19391WAT      O58414   6.761   5.903   1.240
19391WAT     H158415   6.706   5.863   1.167
19391WAT     H258416   6.858   5.885   1.222
19392WAT      O58417   8.659   0.513   4.414
19392WAT     H158418   8.664   0.611   4.394
19392WAT     H258419   8.651   0.462   4.329
19393WAT      O58420   6.499   7.650   7.844
19393WAT     H158421   6.531   7.744   7.855
19393WAT     H258422   6.486   7.630   7.747
19394WAT      O58423   6.919   1.830   3.016
19394WAT     H158424   6.849   1.758   3.022
19394WAT     H258425   7.003   1.790   2.979
19395WAT      O58426   4.273   0.370   6.414
19395WAT     H158427   4.194   0.399   6.360
19395WAT     H258428   4.341   0.444   6.416
19396WAT      O58429   2.714   6.731   9.454
19396WAT     H158430   2.775   6.804   9.486
19396WAT     H258431   2.629   6.772   9.419
19397WAT      O58432   1.749   6.520   8.466
19397WAT     H158433   1.803   6.481   8.391
19397WAT     H258434   1.653   6.499   8.452
19398WAT      O58435   9.115   0.371   3.532
19398WAT     H158436   9.131   0.414   3.443
19398WAT     H258437   9.093   0.442   3.600
19399WAT      O58438   5.106   8.226   5.821
19399WAT     H158439   5.050   8.151   5.786
19399WAT     H258440   5.157   8.195   5.901
19400WAT      O58441   9.731   9.199   0.354
19400WAT     H158442   9.673   9.171   0.277
19400WAT     H258443   9.675   9.236   0.427
19401WAT      O58444   7.898   5.332   6.495
19401WAT     H158445   7.916   5.430   6.487
19401WAT     H258446   7.896   5.290   6.404
19402WAT      O58447   1.654   1.347   0.923
19402WAT     H158448   1.674   1.249   0.929
19402WAT     H258449   1.601   1.374   1.003
19403WAT      O58450   7.561   5.891   7.506
19403WAT     H158451   7.550   5.965   7.572
19403WAT     H258452   7.632   5.828   7.537
19404WAT      O58453   2.953   7.901   2.660
19404WAT     H158454   2.894   7.912   2.580
19404WAT     H258455   2.949   7.806   2.691
19405WAT      O58456   2.740   6.644   6.179
19405WAT     H158457   2.673   6.592   6.233
19405WAT     H258458   2.699   6.670   6.092
19406WAT      O58459   4.291   3.689   0.679
19406WAT     H158460   4.327   3.690   0.772
19406WAT     H258461   4.270   3.595   0.652
19407WAT      O58462   9.519   2.171   6.153
19407WAT     H158463   9.555   2.116   6.229
19407WAT     H258464   9.592   2.230   6.118
19408WAT      O58465   2.252   6.194   2.426
19408WAT     H158466   2.198   6.145   2.494
19408WAT     H258467   2.242   6.149   2.337
19409WAT      O58468   3.958   8.628   2.506
19409WAT     H158469   4.013   8.589   2.581
19409WAT     H258470   3.883   8.565   2.485
19410WAT      O58471   2.607   8.087   3.289
19410WAT     H158472   2.691   8.068   3.237
19410WAT     H258473   2.576   8.180   3.270
19411WAT      O58474   2.422   6.955   8.146
19411WAT     H158475   2.385   6.862   8.150
19411WAT     H258476   2.507   6.955   8.093
19412WAT      O58477   8.481   6.544   7.263
19412WAT     H158478   8.414   6.470   7.257
19412WAT     H258479   8.468   6.593   7.350
19413WAT      O58480   2.896   1.453   1.906
19413WAT     H158481   2.854   1.405   1.829
19413WAT     H258482   2.867   1.549   1.905
19414WAT      O58483   1.214   4.883   4.334
19414WAT     H158484   1.192   4.907   4.239
19414WAT     H258485   1.129   4.863   4.383
19415WAT      O58486   6.993   9.696   3.274
19415WAT     H158487   6.996   9.734   3.181
19415WAT     H258488   7.001   9.596   3.269
19416WAT      O58489   5.357   6.751   4.629
19416WAT     H158490   5.420   6.692   4.680
19416WAT     H258491   5.382   6.847   4.645
19417WAT      O58492   2.266   7.994   3.533
19417WAT     H158493   2.237   8.022   3.625
19417WAT     H258494   2.203   8.032   3.465
19418WAT      O58495   9.393   4.707   9.010
19418WAT     H158496   9.339   4.789   8.995
19418WAT     H258497   9.341   4.641   9.064
19419WAT      O58498   4.931   9.018   5.251
19419WAT     H158499   4.845   8.967   5.258
19419WAT     H258500   4.947   9.045   5.156
19420WAT      O58501   6.921   7.269   2.227
19420WAT     H158502   6.917   7.294   2.323
19420WAT     H258503   6.836   7.222   2.201
19421WAT      O58504   3.831   9.620   2.692
19421WAT     H158505   3.743   9.660   2.718
19421WAT     H258506   3.903   9.689   2.697
19422WAT      O58507   8.078   6.176   4.566
19422WAT     H158508   8.139   6.118   4.620
19422WAT     H258509   8.098   6.272   4.585
19423WAT      O58510   3.185   8.996   5.061
19423WAT     H158511   3.235   8.984   4.974
19423WAT     H258512   3.189   8.912   5.114
19424WAT      O58513   8.645   5.179   5.757
19424WAT     H158514   8.607   5.094   5.720
19424WAT     H258515   8.740   5.163   5.785
19425WAT      O58516   5.896   3.812   2.359
19425WAT     H158517   5.909   3.869   2.278
19425WAT     H258518   5.977   3.820   2.418
19426WAT      O58519   4.437   6.777   9.351
19426WAT     H158520   4.498   6.811   9.279
19426WAT     H258521   4.406   6.685   9.327
19427WAT      O58522   2.235   3.250   8.104
19427WAT     H158523   2.197   3.324   8.048
19427WAT     H258524   2.188   3.164   8.084
19428WAT      O58525   9.084   1.912   1.319
19428WAT     H158526   9.180   1.931   1.297
19428WAT     H258527   9.077   1.824   1.365
19429WAT      O58528   5.241   9.004   8.726
19429WAT     H158529   5.321   8.982   8.781
19429WAT     H258530   5.159   8.998   8.783
19430WAT      O58531   3.727   6.389   1.805
19430WAT     H158532   3.685   6.475   1.835
19430WAT     H258533   3.707   6.317   1.871
19431WAT      O58534   2.883   4.143   6.537
19431WAT     H158535   2.799   4.165   6.586
19431WAT     H258536   2.938   4.080   6.592
19432WAT      O58537   1.795   9.720   1.228
19432WAT     H158538   1.767   9.678   1.142
19432WAT     H258539   1.762   9.666   1.305
19433WAT      O58540   6.507   8.545   1.011
19433WAT     H158541   6.418   8.555   1.055
19433WAT     H258542   6.563   8.481   1.064
19434WAT      O58543   3.554   1.936   2.750
19434WAT     H158544   3.589   2.000   2.819
19434WAT     H258545   3.566   1.842   2.783
19435WAT      O58546   8.636   7.783   9.132
19435WAT     H158547   8.634   7.820   9.225
19435WAT     H258548   8.545   7.750   9.107
19436WAT      O58549   6.201   7.373   9.179
19436WAT     H158550   6.136   7.450   9.182
19436WAT     H258551   6.216   7.339   9.272
19437WAT      O58552   3.304   0.910   9.508
19437WAT     H158553   3.364   0.940   9.434
19437WAT     H258554   3.291   0.985   9.573
19438WAT      O58555   2.222   6.784   6.114
19438WAT     H158556   2.231   6.715   6.041
19438WAT     H258557   2.127   6.815   6.119
19439WAT      O58558   1.621   7.391   2.835
19439WAT     H158559   1.692   7.342   2.887
19439WAT     H258560   1.612   7.484   2.869
19440WAT      O58561   8.147   7.674   0.569
19440WAT     H158562   8.224   7.735   0.550
19440WAT     H258563   8.127   7.618   0.488
19441WAT      O58564   3.878   9.834   5.816
19441WAT     H158565   3.854   9.824   5.719
19441WAT     H258566   3.952   9.900   5.825
19442WAT      O58567   4.852   4.802   3.164
19442WAT     H158568   4.877   4.896   3.186
19442WAT     H258569   4.806   4.760   3.242
19443WAT      O58570   1.212   3.133   5.131
19443WAT     H158571   1.306   3.166   5.140
19443WAT     H258572   1.188   3.078   5.211
19444WAT      O58573   6.076   5.665   6.309
19444WAT     H158574   6.151   5.598   6.310
19444WAT     H258575   6.086   5.724   6.229
19445WAT      O58576   5.483   9.411   5.362
19445WAT     H158577   5.509   9.424   5.457
19445WAT     H258578   5.508   9.319   5.332
19446WAT      O58579   2.424   5.213   2.972
19446WAT     H158580   2.459   5.299   3.008
19446WAT     H258581   2.405   5.222   2.875
19447WAT      O58582   9.759   7.074   5.213
19447WAT     H158583   9.698   7.147   5.181
19447WAT     H258584   9.705   7.007   5.265
19448WAT      O58585   2.590   9.051   0.663
19448WAT     H158586   2.669   9.040   0.724
19448WAT     H258587   2.507   9.020   0.710
19449WAT      O58588   2.550   3.571   4.015
19449WAT     H158589   2.493   3.528   4.085
19449WAT     H258590   2.497   3.640   3.967
19450WAT      O58591   2.531   2.406   5.568
19450WAT     H158592   2.621   2.449   5.574
19450WAT     H258593   2.532   2.341   5.492
19451WAT      O58594   0.414   5.481   6.301
19451WAT     H158595   0.444   5.554   6.363
19451WAT     H258596   0.415   5.515   6.207
19452WAT      O58597   5.750   8.160   7.913
19452WAT     H158598   5.716   8.069   7.886
19452WAT     H258599   5.752   8.166   8.013
19453WAT      O58600   6.065   9.489   2.519
19453WAT     H158601   6.004   9.491   2.598
19453WAT     H258602   6.028   9.427   2.450
19454WAT      O58603   1.977   5.392   4.678
19454WAT     H158604   1.883   5.365   4.655
19454WAT     H258605   2.031   5.310   4.697
19455WAT      O58606   9.403   9.398   8.825
19455WAT     H158607   9.417   9.480   8.770
19455WAT     H258608   9.306   9.390   8.848
19456WAT      O58609   6.949   6.796   8.006
19456WAT     H158610   6.960   6.743   7.922
19456WAT     H258611   6.884   6.871   7.990
19457WAT      O58612   4.340   4.724   9.716
19457WAT     H158613   4.335   4.821   9.690
19457WAT     H258614   4.410   4.679   9.661
19458WAT      O58615   5.371   8.611   5.600
19458WAT     H158616   5.434   8.565   5.663
19458WAT     H258617   5.394   8.708   5.595
19459WAT      O58618   4.119   6.860   0.573
19459WAT     H158619   4.207   6.827   0.606
19459WAT     H258620   4.085   6.798   0.502
19460WAT      O58621   0.370   5.676   7.785
19460WAT     H158622   0.311   5.734   7.841
19460WAT     H258623   0.452   5.652   7.837
19461WAT      O58624   0.369   8.235   5.659
19461WAT     H158625   0.420   8.292   5.594
19461WAT     H258626   0.415   8.147   5.669
19462WAT      O58627   6.345   0.548   5.429
19462WAT     H158628   6.379   0.552   5.523
19462WAT     H258629   6.416   0.510   5.370
19463WAT      O58630   9.152   0.682   0.784
19463WAT     H158631   9.090   0.615   0.743
19463WAT     H258632   9.149   0.673   0.884
19464WAT      O58633   6.732   4.845   6.000
19464WAT     H158634   6.818   4.875   6.041
19464WAT     H258635   6.674   4.804   6.072
19465WAT      O58636   3.459   0.577   7.284
19465WAT     H158637   3.556   0.576   7.305
19465WAT     H258638   3.424   0.671   7.293
19466WAT      O58639   7.019   9.791   5.510
19466WAT     H158640   7.072   9.732   5.571
19466WAT     H258641   7.039   9.887   5.530
19467WAT      O58642   6.592   3.064   8.749
19467WAT     H158643   6.598   3.159   8.779
19467WAT     H258644   6.522   3.017   8.803
19468WAT      O58645   3.799   0.009   8.696
19468WAT     H158646   3.775   0.013   8.599
19468WAT     H258647   3.728  -0.040   8.746
19469WAT      O58648   3.809   1.494   1.745
19469WAT     H158649   3.735   1.550   1.709
19469WAT     H258650   3.887   1.498   1.681
19470WAT      O58651   1.419   0.521   0.210
19470WAT     H158652   1.437   0.555   0.302
19470WAT     H258653   1.504   0.514   0.159
19471WAT      O58654   9.346   9.831   6.209
19471WAT     H158655   9.373   9.880   6.126
19471WAT     H258656   9.419   9.768   6.236
19472WAT      O58657   3.523   6.373   7.687
19472WAT     H158658   3.621   6.391   7.686
19472WAT     H258659   3.497   6.328   7.601
19473WAT      O58660   4.544   4.228   3.508
19473WAT     H158661   4.583   4.319   3.522
19473WAT     H258662   4.602   4.176   3.446
19474WAT      O58663   9.710   7.339   5.100
19474WAT     H158664   9.800   7.314   5.066
19474WAT     H258665   9.716   7.427   5.148
19475WAT      O58666   7.402   0.155   0.738
19475WAT     H158667   7.318   0.146   0.685
19475WAT     H258668   7.410   0.248   0.774
19476WAT      O58669   7.040   4.986   7.980
19476WAT     H158670   6.968   5.042   7.939
19476WAT     H258671   7.070   4.918   7.914
19477WAT      O58672   4.084   6.879   9.091
19477WAT     H158673   4.094   6.973   9.125
19477WAT     H258674   3.989   6.863   9.065
19478WAT      O58675   2.363   4.439   0.145
19478WAT     H158676   2.385   4.342   0.146
19478WAT     H258677   2.383   4.479   0.234
19479WAT      O58678   2.732   0.156   6.917
19479WAT     H158679   2.648   0.130   6.967
19479WAT     H258680   2.782   0.223   6.970
19480WAT      O58681   9.883   8.667   8.368
19480WAT     H158682   9.848   8.583   8.409
19480WAT     H258683   9.969   8.692   8.413
19481WAT      O58684   7.967   2.084   2.421
19481WAT     H158685   7.990   2.132   2.337
19481WAT     H258686   8.004   2.134   2.500
19482WAT      O58687   0.179   3.735   4.539
19482WAT     H158688   0.166   3.830   4.510
19482WAT     H258689   0.189   3.677   4.459
19483WAT      O58690   7.033   5.293   3.817
19483WAT     H158691   7.029   5.200   3.852
19483WAT     H258692   7.120   5.334   3.843
19484WAT      O58693   0.061   3.795   0.954
19484WAT     H158694  -0.020   3.762   0.906
19484WAT     H258695   0.115   3.852   0.893
19485WAT      O58696   0.555   4.716   8.138
19485WAT     H158697   0.648   4.698   8.169
19485WAT     H258698   0.502   4.630   8.140
19486WAT      O58699   9.159   3.846   7.396
19486WAT     H158700   9.096   3.854   7.474
19486WAT     H258701   9.131   3.911   7.325
19487WAT      O58702   0.724   1.517   2.090
19487WAT     H158703   0.753   1.556   2.178
19487WAT     H258704   0.803   1.479   2.043
19488WAT      O58705   7.372   0.084   9.405
19488WAT     H158706   7.453   0.043   9.445
19488WAT     H258707   7.398   0.158   9.344
19489WAT      O58708   8.943   2.156   1.799
19489WAT     H158709   8.938   2.056   1.791
19489WAT     H258710   8.947   2.196   1.707
19490WAT      O58711   0.262   2.095   0.666
19490WAT     H158712   0.332   2.140   0.722
19490WAT     H258713   0.307   2.040   0.595
19491WAT      O58714   9.011   1.937   7.681
19491WAT     H158715   8.976   2.023   7.718
19491WAT     H258716   9.021   1.870   7.755
19492WAT      O58717   4.549   5.707   1.836
19492WAT     H158718   4.523   5.709   1.739
19492WAT     H258719   4.489   5.643   1.885
19493WAT      O58720   4.285   2.111   3.956
19493WAT     H158721   4.253   2.057   3.879
19493WAT     H258722   4.380   2.137   3.942
19494WAT      O58723   7.623   8.584   9.276
19494WAT     H158724   7.650   8.556   9.368
19494WAT     H258725   7.538   8.538   9.251
19495WAT      O58726   5.765   4.935   2.341
19495WAT     H158727   5.680   4.948   2.290
19495WAT     H258728   5.770   5.002   2.415
19496WAT      O58729   1.613   1.647   0.487
19496WAT     H158730   1.651   1.560   0.456
19496WAT     H258731   1.633   1.718   0.420
19497WAT      O58732   3.266   7.128   8.896
19497WAT     H158733   3.265   7.212   8.842
19497WAT     H258734   3.303   7.147   8.986
19498WAT      O58735   0.832   8.070   2.812
19498WAT     H158736   0.863   8.094   2.904
19498WAT     H258737   0.832   7.970   2.802
19499WAT      O58738   4.971   8.173   7.975
19499WAT     H158739   5.062   8.152   7.938
19499WAT     H258740   4.923   8.234   7.912
19500WAT      O58741   2.335   9.016   5.528
19500WAT     H158742   2.302   9.004   5.621
19500WAT     H258743   2.281   8.958   5.466
19501WAT      O58744   9.058   7.469   1.511
19501WAT     H158745   9.040   7.406   1.587
19501WAT     H258746   9.132   7.531   1.536
19502WAT      O58747   2.975   4.157   8.773
19502WAT     H158748   2.938   4.167   8.865
19502WAT     H258749   3.017   4.243   8.743
19503WAT      O58750   8.593   4.049   2.101
19503WAT     H158751   8.556   4.131   2.145
19503WAT     H258752   8.560   3.968   2.150
19504WAT      O58753   2.225   9.279   9.221
19504WAT     H158754   2.257   9.244   9.309
19504WAT     H258755   2.131   9.251   9.206
19505WAT      O58756   3.519   6.597   1.158
19505WAT     H158757   3.466   6.605   1.074
19505WAT     H258758   3.550   6.688   1.186
19506WAT      O58759   6.778   5.165   0.318
19506WAT     H158760   6.728   5.080   0.337
19506WAT     H258761   6.722   5.243   0.345
19507WAT      O58762   9.451   9.315   7.795
19507WAT     H158763   9.488   9.408   7.802
19507WAT     H258764   9.422   9.284   7.885
19508WAT      O58765   6.032   8.931   1.505
19508WAT     H158766   5.953   8.972   1.550
19508WAT     H258767   6.086   9.003   1.461
19509WAT      O58768   4.375   2.510   7.438
19509WAT     H158769   4.376   2.609   7.428
19509WAT     H258770   4.411   2.468   7.355
19510WAT      O58771   0.660   3.062   1.337
19510WAT     H158772   0.754   3.089   1.357
19510WAT     H258773   0.659   2.992   1.265
19511WAT      O58774   0.164   5.942   9.491
19511WAT     H158775   0.260   5.932   9.518
19511WAT     H258776   0.153   5.911   9.396
19512WAT      O58777   1.977   8.129   0.718
19512WAT     H158778   1.911   8.195   0.753
19512WAT     H258779   2.000   8.151   0.623
19513WAT      O58780   3.123   8.893   4.607
19513WAT     H158781   3.036   8.942   4.599
19513WAT     H258782   3.174   8.903   4.521
19514WAT      O58783   5.416   9.538   7.220
19514WAT     H158784   5.401   9.607   7.149
19514WAT     H258785   5.505   9.495   7.207
19515WAT      O58786   4.540   0.557   6.376
19515WAT     H158787   4.624   0.578   6.327
19515WAT     H258788   4.561   0.505   6.459
19516WAT      O58789   6.321   4.095   6.612
19516WAT     H158790   6.382   4.017   6.595
19516WAT     H258791   6.233   4.078   6.567
19517WAT      O58792   8.501   4.286   6.298
19517WAT     H158793   8.562   4.351   6.252
19517WAT     H258794   8.553   4.237   6.368
19518WAT      O58795   6.733   3.116   7.939
19518WAT     H158796   6.737   3.120   7.839
19518WAT     H258797   6.648   3.072   7.967
19519WAT      O58798   4.493   7.440   3.172
19519WAT     H158799   4.443   7.368   3.221
19519WAT     H258800   4.485   7.425   3.074
19520WAT      O58801   8.153   9.334   5.282
19520WAT     H158802   8.235   9.287   5.314
19520WAT     H258803   8.076   9.308   5.340
19521WAT      O58804   6.510   4.911   0.999
19521WAT     H158805   6.492   4.871   0.910
19521WAT     H258806   6.566   4.992   0.989
19522WAT      O58807   9.660   8.228   5.194
19522WAT     H158808   9.576   8.272   5.161
19522WAT     H258809   9.674   8.252   5.290
19523WAT      O58810   8.916   0.648   5.897
19523WAT     H158811   8.999   0.704   5.892
19523WAT     H258812   8.836   0.705   5.877
19524WAT      O58813   7.865   4.900   9.236
19524WAT     H158814   7.773   4.928   9.266
19524WAT     H258815   7.911   4.978   9.194
19525WAT      O58816   0.873   3.315   1.648
19525WAT     H158817   0.876   3.413   1.666
19525WAT     H258818   0.779   3.286   1.633
19526WAT      O58819   1.759   2.581   0.665
19526WAT     H158820   1.777   2.597   0.762
19526WAT     H258821   1.787   2.488   0.641
19527WAT      O58822   5.635   9.449   2.436
19527WAT     H158823   5.658   9.484   2.346
19527WAT     H258824   5.719   9.429   2.487
19528WAT      O58825   7.664   3.696   0.818
19528WAT     H158826   7.689   3.620   0.879
19528WAT     H258827   7.727   3.772   0.833
19529WAT      O58828   2.860   2.182   9.872
19529WAT     H158829   2.849   2.127   9.789
19529WAT     H258830   2.957   2.195   9.891
19530WAT      O58831   4.969   5.847   9.394
19530WAT     H158832   4.984   5.850   9.493
19530WAT     H258833   4.880   5.804   9.376
19531WAT      O58834   3.136   2.383   0.853
19531WAT     H158835   3.217   2.403   0.798
19531WAT     H258836   3.144   2.427   0.943
19532WAT      O58837   1.225   3.927   9.321
19532WAT     H158838   1.263   3.908   9.231
19532WAT     H258839   1.147   3.868   9.338
19533WAT      O58840   8.280   0.061   3.737
19533WAT     H158841   8.264   0.023   3.646
19533WAT     H258842   8.207   0.126   3.759
19534WAT      O58843   0.088   5.629   2.856
19534WAT     H158844   0.123   5.558   2.795
19534WAT     H258845   0.081   5.593   2.949
19535WAT      O58846   7.620   6.918   5.702
19535WAT     H158847   7.599   6.932   5.605
19535WAT     H258848   7.714   6.948   5.720
19536WAT      O58849   6.908   2.750   7.842
19536WAT     H158850   6.871   2.788   7.757
19536WAT     H258851   6.989   2.802   7.869
19537WAT      O58852   4.225   4.487   5.484
19537WAT     H158853   4.238   4.586   5.490
19537WAT     H258854   4.231   4.447   5.575
19538WAT      O58855   2.495   3.219   8.967
19538WAT     H158856   2.509   3.210   9.066
19538WAT     H258857   2.465   3.312   8.946
19539WAT      O58858   0.487   4.241   4.234
19539WAT     H158859   0.429   4.162   4.213
19539WAT     H258860   0.430   4.314   4.273
19540WAT      O58861   7.128   3.919   3.287
19540WAT     H158862   7.129   3.902   3.189
19540WAT     H258863   7.146   4.016   3.304
19541WAT      O58864   1.708   4.462   0.340
19541WAT     H158865   1.659   4.531   0.394
19541WAT     H258866   1.689   4.476   0.243
19542WAT      O58867   0.853   7.700   5.913
19542WAT     H158868   0.774   7.697   5.974
19542WAT     H258869   0.831   7.757   5.833
19543WAT      O58870   2.219   6.066   5.594
19543WAT     H158871   2.311   6.030   5.610
19543WAT     H258872   2.204   6.075   5.495
19544WAT      O58873   4.835   1.600   3.322
19544WAT     H158874   4.914   1.561   3.370
19544WAT     H258875   4.864   1.681   3.271
19545WAT      O58876   1.303   5.353   2.299
19545WAT     H158877   1.296   5.270   2.356
19545WAT     H258878   1.386   5.349   2.245
19546WAT      O58879   0.222   7.701   0.312
19546WAT     H158880   0.177   7.627   0.262
19546WAT     H258881   0.234   7.674   0.407
19547WAT      O58882   4.213   4.254   1.855
19547WAT     H158883   4.212   4.156   1.876
19547WAT     H258884   4.293   4.275   1.799
19548WAT      O58885   1.101   5.474   7.298
19548WAT     H158886   1.048   5.438   7.221
19548WAT     H258887   1.168   5.539   7.263
19549WAT      O58888   1.630   0.780   9.055
19549WAT     H158889   1.578   0.700   9.026
19549WAT     H258890   1.573   0.837   9.113
19550WAT      O58891   8.457   8.401   7.418
19550WAT     H158892   8.407   8.462   7.479
19550WAT     H258893   8.522   8.347   7.471
19551WAT      O58894   8.166   9.390   1.299
19551WAT     H158895   8.141   9.329   1.374
19551WAT     H258896   8.189   9.480   1.336
19552WAT      O58897   4.204   0.024   0.278
19552WAT     H158898   4.181  -0.053   0.219
19552WAT     H258899   4.270  -0.005   0.348
19553WAT      O58900   3.905   4.433   4.814
19553WAT     H158901   3.851   4.413   4.896
19553WAT     H258902   3.972   4.361   4.800
19554WAT      O58903   2.900   6.542   8.349
19554WAT     H158904   2.843   6.624   8.350
19554WAT     H258905   2.913   6.511   8.255
19555WAT      O58906   2.793   1.662   9.765
19555WAT     H158907   2.726   1.603   9.809
19555WAT     H258908   2.879   1.612   9.754
19556WAT      O58909   5.258   0.632   2.329
19556WAT     H158910   5.334   0.657   2.271
19556WAT     H258911   5.223   0.542   2.303
19557WAT      O58912   0.836   7.233   0.532
19557WAT     H158913   0.856   7.284   0.449
19557WAT     H258914   0.868   7.285   0.612
19558WAT      O58915   3.918   9.195   5.293
19558WAT     H158916   3.861   9.247   5.356
19558WAT     H258917   3.939   9.105   5.332
19559WAT      O58918   7.329   2.794   6.132
19559WAT     H158919   7.371   2.880   6.103
19559WAT     H258920   7.397   2.721   6.127
19560WAT      O58921   3.504   4.277   0.799
19560WAT     H158922   3.408   4.280   0.770
19560WAT     H258923   3.517   4.337   0.878
19561WAT      O58924   9.601   0.901   4.167
19561WAT     H158925   9.693   0.940   4.154
19561WAT     H258926   9.608   0.802   4.178
19562WAT      O58927   8.366   2.571   1.340
19562WAT     H158928   8.320   2.496   1.293
19562WAT     H258929   8.319   2.591   1.426
19563WAT      O58930   8.732   4.037   4.855
19563WAT     H158931   8.734   3.939   4.836
19563WAT     H258932   8.713   4.087   4.770
19564WAT      O58933   6.481   7.989   0.630
19564WAT     H158934   6.445   7.984   0.723
19564WAT     H258935   6.505   7.897   0.598
19565WAT      O58936   0.105   8.056   7.005
19565WAT     H158937   0.148   8.082   6.918
19565WAT     H258938   0.021   8.005   6.987
19566WAT      O58939   3.671   4.165   6.790
19566WAT     H158940   3.680   4.128   6.697
19566WAT     H258941   3.761   4.168   6.833
19567WAT      O58942   4.686   8.336   9.093
19567WAT     H158943   4.707   8.262   9.157
19567WAT     H258944   4.712   8.309   9.001
19568WAT      O58945   1.623   0.299   2.959
19568WAT     H158946   1.715   0.336   2.950
19568WAT     H258947   1.608   0.268   3.053
19569WAT      O58948   7.614   9.766   2.697
19569WAT     H158949   7.542   9.835   2.685
19569WAT     H258950   7.572   9.676   2.710
19570WAT      O58951   2.501   1.344   4.092
19570WAT     H158952   2.504   1.254   4.049
19570WAT     H258953   2.430   1.400   4.050
19571WAT      O58954   2.746   3.112   2.707
19571WAT     H158955   2.822   3.177   2.714
19571WAT     H258956   2.775   3.022   2.739
19572WAT      O58957   5.172   7.805   8.147
19572WAT     H158958   5.245   7.873   8.146
19572WAT     H258959   5.212   7.715   8.167
19573WAT      O58960   0.373   5.776   2.435
19573WAT     H158961   0.308   5.829   2.380
19573WAT     H258962   0.327   5.699   2.477
19574WAT      O58963   9.345   3.419   7.474
19574WAT     H158964   9.331   3.517   7.488
19574WAT     H258965   9.443   3.398   7.481
19575WAT      O58966   3.412   9.351   2.008
19575WAT     H158967   3.338   9.359   1.940
19575WAT     H258968   3.389   9.280   2.073
19576WAT      O58969   3.617   7.344   5.006
19576WAT     H158970   3.628   7.421   4.943
19576WAT     H258971   3.569   7.375   5.088
19577WAT      O58972   1.137   4.441   8.113
19577WAT     H158973   1.125   4.401   8.022
19577WAT     H258974   1.165   4.536   8.105
19578WAT      O58975   2.678   1.424   6.588
19578WAT     H158976   2.710   1.481   6.512
19578WAT     H258977   2.658   1.332   6.554
19579WAT      O58978   3.705   3.658   9.578
19579WAT     H158979   3.621   3.625   9.534
19579WAT     H258980   3.781   3.653   9.513
19580WAT      O58981   2.266   2.127   5.885
19580WAT     H158982   2.342   2.190   5.870
19580WAT     H258983   2.256   2.110   5.983
19581WAT      O58984   2.532   5.937   1.357
19581WAT     H158985   2.509   5.839   1.359
19581WAT     H258986   2.448   5.991   1.360
19582WAT      O58987   4.124   2.706   4.596
19582WAT     H158988   4.210   2.663   4.571
19582WAT     H258989   4.133   2.751   4.685
19583WAT      O58990   0.219   0.340   2.983
19583WAT     H158991   0.227   0.240   2.986
19583WAT     H258992   0.186   0.369   2.893
19584WAT      O58993   0.408   3.285   9.243
19584WAT     H158994   0.416   3.188   9.223
19584WAT     H258995   0.316   3.304   9.279
19585WAT      O58996   9.240   2.303   3.126
19585WAT     H158997   9.234   2.378   3.192
19585WAT     H258998   9.249   2.342   3.034
19586WAT      O58999   2.356   4.532   1.270
19586WAT     H159000   2.427   4.577   1.215
19586WAT     H259001   2.328   4.593   1.344
19587WAT      O59002   0.751   6.977   1.280
19587WAT     H159003   0.758   6.877   1.280
19587WAT     H259004   0.672   7.005   1.334
19588WAT      O59005   1.565   2.840   4.606
19588WAT     H159006   1.657   2.801   4.616
19588WAT     H259007   1.499   2.766   4.595
19589WAT      O59008   1.228   9.222   4.026
19589WAT     H159009   1.131   9.200   4.013
19589WAT     H259010   1.237   9.291   4.098
19590WAT      O59011   2.490   3.545   5.266
19590WAT     H159012   2.454   3.482   5.334
19590WAT     H259013   2.427   3.550   5.188
19591WAT      O59014   3.784   0.036   1.742
19591WAT     H159015   3.694   0.078   1.726
19591WAT     H259016   3.847   0.105   1.777
19592WAT      O59017   2.722   4.577   0.054
19592WAT     H159018   2.679   4.570  -0.036
19592WAT     H259019   2.724   4.673   0.083
19593WAT      O59020   7.750   0.369   3.027
19593WAT     H159021   7.767   0.449   3.085
19593WAT     H259022   7.778   0.286   3.076
19594WAT      O59023   9.792   8.404   1.294
19594WAT     H159024   9.833   8.340   1.229
19594WAT     H259025   9.864   8.442   1.353
19595WAT      O59026   3.838   2.030   6.353
19595WAT     H159027   3.852   2.021   6.255
19595WAT     H259028   3.925   2.054   6.397
19596WAT      O59029   8.909   7.635   5.191
19596WAT     H159030   9.000   7.603   5.163
19596WAT     H259031   8.901   7.632   5.290
19597WAT      O59032   9.357   6.502   1.362
19597WAT     H159033   9.365   6.485   1.263
19597WAT     H259034   9.446   6.492   1.405
19598WAT      O59035   3.189   7.250   1.807
19598WAT     H159036   3.216   7.290   1.895
19598WAT     H259037   3.192   7.151   1.814
19599WAT      O59038   3.905   0.365   7.623
19599WAT     H159039   3.860   0.430   7.684
19599WAT     H259040   3.920   0.408   7.534
19600WAT      O59041   8.242   9.700   3.120
19600WAT     H159042   8.190   9.722   3.038
19600WAT     H259043   8.325   9.755   3.123
19601WAT      O59044   9.117   8.286   5.740
19601WAT     H159045   9.057   8.328   5.672
19601WAT     H259046   9.172   8.215   5.696
19602WAT      O59047   9.246   2.248   7.366
19602WAT     H159048   9.281   2.240   7.459
19602WAT     H259049   9.190   2.169   7.344
19603WAT      O59050   3.449   1.058   2.124
19603WAT     H159051   3.366   1.002   2.128
19603WAT     H259052   3.428   1.150   2.158
19604WAT      O59053   1.957   4.410   5.812
19604WAT     H159054   2.054   4.430   5.796
19604WAT     H259055   1.912   4.490   5.851
19605WAT      O59056   5.541   6.294   3.806
19605WAT     H159057   5.564   6.384   3.845
19605WAT     H259058   5.458   6.260   3.849
19606WAT      O59059   9.466   1.336   5.844
19606WAT     H159060   9.453   1.309   5.939
19606WAT     H259061   9.500   1.257   5.791
19607WAT      O59062   4.352   2.623   1.034
19607WAT     H159063   4.307   2.582   1.114
19607WAT     H259064   4.447   2.643   1.056
19608WAT      O59065   7.576   4.075   4.406
19608WAT     H159066   7.551   4.011   4.332
19608WAT     H259067   7.669   4.054   4.437
19609WAT      O59068   5.364   6.096   3.324
19609WAT     H159069   5.388   6.130   3.234
19609WAT     H259070   5.392   6.163   3.393
19610WAT      O59071   4.935   6.633   2.033
19610WAT     H159072   5.009   6.647   2.098
19610WAT     H259073   4.971   6.590   1.950
19611WAT      O59074   2.485   8.498   9.050
19611WAT     H159075   2.569   8.455   9.018
19611WAT     H259076   2.489   8.596   9.034
19612WAT      O59077   7.951   4.874   5.909
19612WAT     H159078   7.920   4.804   5.846
19612WAT     H259079   8.044   4.852   5.940
19613WAT      O59080   8.517   0.455   5.491
19613WAT     H159081   8.501   0.377   5.430
19613WAT     H259082   8.584   0.429   5.561
19614WAT      O59083   7.947   8.689   1.332
19614WAT     H159084   7.896   8.614   1.291
19614WAT     H259085   7.998   8.738   1.262
19615WAT      O59086   0.156   0.839   9.110
19615WAT     H159087   0.203   0.790   9.184
19615WAT     H259088   0.159   0.784   9.026
19616WAT      O59089   3.256   1.501   3.183
19616WAT     H159090   3.221   1.481   3.092
19616WAT     H259091   3.277   1.415   3.230
19617WAT      O59092   5.314   0.028   0.034
19617WAT     H159093   5.328   0.117  -0.010
19617WAT     H259094   5.275   0.042   0.125
19618WAT      O59095   4.444   1.898   8.311
19618WAT     H159096   4.503   1.937   8.382
19618WAT     H259097   4.469   1.802   8.296
19619WAT      O59098   6.390   7.079   2.066
19619WAT     H159099   6.359   7.000   2.120
19619WAT     H259100   6.395   7.054   1.970
19620WAT      O59101   0.374   8.821   5.949
19620WAT     H159102   0.300   8.847   6.011
19620WAT     H259103   0.360   8.865   5.860
19621WAT      O59104   1.944   2.950   3.005
19621WAT     H159105   1.851   2.911   3.008
19621WAT     H259106   2.004   2.897   3.064
19622WAT      O59107   2.965   4.676   4.079
19622WAT     H159108   2.924   4.614   4.147
19622WAT     H259109   2.995   4.760   4.125
19623WAT      O59110   4.687   1.166   3.521
19623WAT     H159111   4.667   1.183   3.424
19623WAT     H259112   4.711   1.251   3.566
19624WAT      O59113   9.250   3.544   9.404
19624WAT     H159114   9.303   3.538   9.488
19624WAT     H259115   9.263   3.461   9.350
19625WAT      O59116   1.612   3.868   3.128
19625WAT     H159117   1.535   3.927   3.103
19625WAT     H259118   1.607   3.782   3.077
19626WAT      O59119   4.787   2.534   3.123
19626WAT     H159120   4.759   2.461   3.061
19626WAT     H259121   4.756   2.622   3.087
19627WAT      O59122   1.541   5.509   6.244
19627WAT     H159123   1.636   5.519   6.213
19627WAT     H259124   1.500   5.429   6.199
19628WAT      O59125   3.670   0.609   7.914
19628WAT     H159126   3.675   0.575   8.008
19628WAT     H259127   3.595   0.675   7.907
19629WAT      O59128   0.958   1.574   4.812
19629WAT     H159129   0.995   1.510   4.745
19629WAT     H259130   0.992   1.551   4.903
19630WAT      O59131   5.510   1.198   4.530
19630WAT     H159132   5.566   1.281   4.521
19630WAT     H259133   5.517   1.164   4.623
19631WAT      O59134   9.023   9.112   9.819
19631WAT     H159135   9.093   9.059   9.868
19631WAT     H259136   9.042   9.110   9.721
19632WAT      O59137   1.994   1.707   9.422
19632WAT     H159138   2.056   1.742   9.492
19632WAT     H259139   2.029   1.621   9.386
19633WAT      O59140   0.539   6.849   4.501
19633WAT     H159141   0.561   6.769   4.444
19633WAT     H259142   0.474   6.908   4.453
19634WAT      O59143   2.996   5.917   0.934
19634WAT     H159144   2.966   5.949   0.844
19634WAT     H259145   3.073   5.971   0.965
19635WAT      O59146   6.158   8.009   1.405
19635WAT     H159147   6.113   7.937   1.457
19635WAT     H259148   6.120   8.012   1.312
19636WAT      O59149   2.281   7.644   2.098
19636WAT     H159150   2.346   7.693   2.039
19636WAT     H259151   2.332   7.595   2.170
19637WAT      O59152   3.869   2.425   0.472
19637WAT     H159153   3.961   2.457   0.453
19637WAT     H259154   3.836   2.467   0.556
19638WAT      O59155   5.173   9.331   0.250
19638WAT     H159156   5.151   9.405   0.187
19638WAT     H259157   5.108   9.332   0.326
19639WAT      O59158   3.985   0.805   6.733
19639WAT     H159159   3.909   0.746   6.708
19639WAT     H259160   3.962   0.900   6.711
19640WAT      O59161   6.434   8.518   3.031
19640WAT     H159162   6.427   8.418   3.032
19640WAT     H259163   6.524   8.546   3.066
19641WAT      O59164   9.622   7.173   8.320
19641WAT     H159165   9.624   7.076   8.343
19641WAT     H259166   9.577   7.223   8.394
19642WAT      O59167   5.979   5.088   0.053
19642WAT     H159168   6.043   5.014   0.036
19642WAT     H259169   5.906   5.055   0.114
19643WAT      O59170   0.473   8.418   1.201
19643WAT     H159171   0.485   8.463   1.289
19643WAT     H259172   0.428   8.480   1.137
19644WAT      O59173   4.133   3.479  -0.000
19644WAT     H159174   4.159   3.418   0.075
19644WAT     H259175   4.062   3.542   0.032
19645WAT      O59176   2.449   6.177   6.392
19645WAT     H159177   2.362   6.213   6.357
19645WAT     H259178   2.433   6.129   6.478
19646WAT      O59179   6.677   7.891   4.031
19646WAT     H159180   6.739   7.965   4.058
19646WAT     H259181   6.582   7.920   4.045
19647WAT      O59182   8.529   7.760   6.156
19647WAT     H159183   8.501   7.820   6.081
19647WAT     H259184   8.460   7.689   6.169
19648WAT      O59185   6.982   4.993   2.732
19648WAT     H159186   7.075   4.983   2.769
19648WAT     H259187   6.944   5.081   2.761
19649WAT      O59188   0.175   8.180   3.938
19649WAT     H159189   0.086   8.152   3.972
19649WAT     H259190   0.242   8.108   3.957
19650WAT      O59191   2.992   7.179   5.764
19650WAT     H159192   3.078   7.221   5.736
19650WAT     H259193   3.006   7.126   5.847
19651WAT      O59194   0.937   2.851   8.595
19651WAT     H159195   1.024   2.843   8.643
19651WAT     H259196   0.953   2.885   8.503
19652WAT      O59197   8.333   2.256   9.719
19652WAT     H159198   8.379   2.249   9.808
19652WAT     H259199   8.320   2.164   9.682
19653WAT      O59200   0.160   1.938   3.868
19653WAT     H159201   0.119   1.906   3.953
19653WAT     H259202   0.259   1.950   3.881
19654WAT      O59203   8.448   2.139   7.357
19654WAT     H159204   8.493   2.229   7.357
19654WAT     H259205   8.366   2.143   7.413
19655WAT      O59206   0.028   3.332   3.740
19655WAT     H159207   0.093   3.272   3.786
19655WAT     H259208  -0.065   3.313   3.773
19656WAT      O59209   8.328   9.236   8.371
19656WAT     H159210   8.258   9.188   8.318
19656WAT     H259211   8.335   9.195   8.462
19657WAT      O59212   3.684   6.030   8.022
19657WAT     H159213   3.764   6.056   8.078
19657WAT     H259214   3.701   6.055   7.927
19658WAT      O59215   7.729   2.330   4.514
19658WAT     H159216   7.798   2.269   4.553
19658WAT     H259217   7.772   2.391   4.447
19659WAT      O59218   5.040   8.121   1.689
19659WAT     H159219   5.024   8.170   1.774
19659WAT     H259220   4.977   8.154   1.619
19660WAT      O59221   1.595   9.793   9.292
19660WAT     H159222   1.561   9.859   9.226
19660WAT     H259223   1.680   9.752   9.258
19661WAT      O59224   3.668   3.917   9.651
19661WAT     H159225   3.675   3.820   9.626
19661WAT     H259226   3.585   3.932   9.704
19662WAT      O59227   2.744   2.850   2.081
19662WAT     H159228   2.824   2.794   2.104
19662WAT     H259229   2.734   2.855   1.982
19663WAT      O59230   3.586   4.006   3.166
19663WAT     H159231   3.564   4.103   3.159
19663WAT     H259232   3.652   3.992   3.240
19664WAT      O59233   0.355   0.681   9.698
19664WAT     H159234   0.368   0.586   9.725
19664WAT     H259235   0.281   0.687   9.630
19665WAT      O59236   1.740   1.676   9.451
19665WAT     H159237   1.698   1.608   9.391
19665WAT     H259238   1.836   1.689   9.427
19666WAT      O59239   7.214   9.233   2.745
19666WAT     H159240   7.289   9.174   2.714
19666WAT     H259241   7.253   9.315   2.789
19667WAT      O59242   4.501   3.292   3.580
19667WAT     H159243   4.445   3.373   3.561
19667WAT     H259244   4.450   3.229   3.638
19668WAT      O59245   6.422   8.306   8.014
19668WAT     H159246   6.374   8.297   7.927
19668WAT     H259247   6.402   8.396   8.054
19669WAT      O59248   0.911   9.505   6.188
19669WAT     H159249   0.941   9.523   6.281
19669WAT     H259250   0.942   9.580   6.128
19670WAT      O59251   8.559   5.758   9.591
19670WAT     H159252   8.559   5.853   9.621
19670WAT     H259253   8.481   5.742   9.531
19671WAT      O59254   2.978   6.534   0.432
19671WAT     H159255   3.061   6.479   0.424
19671WAT     H259256   2.901   6.483   0.393
19672WAT      O59257   5.193   2.020   3.573
19672WAT     H159258   5.256   2.044   3.499
19672WAT     H259259   5.245   1.992   3.653
19673WAT      O59260   5.199   4.347   3.991
19673WAT     H159261   5.273   4.281   3.980
19673WAT     H259262   5.234   4.432   4.030
19674WAT      O59263   7.236   8.503   2.438
19674WAT     H159264   7.150   8.461   2.408
19674WAT     H259265   7.259   8.579   2.376
19675WAT      O59266   6.717   8.645   5.776
19675WAT     H159267   6.810   8.616   5.755
19675WAT     H259268   6.658   8.565   5.783
19676WAT      O59269   5.959   6.619   2.912
19676WAT     H159270   6.045   6.587   2.871
19676WAT     H259271   5.886   6.555   2.889
19677WAT      O59272   1.875   1.744   6.545
19677WAT     H159273   1.968   1.770   6.517
19677WAT     H259274   1.858   1.650   6.519
19678WAT      O59275   4.125   3.018   7.361
19678WAT     H159276   4.217   3.046   7.385
19678WAT     H259277   4.116   3.013   7.261
19679WAT      O59278   1.811   8.698   1.680
19679WAT     H159279   1.873   8.768   1.646
19679WAT     H259280   1.804   8.704   1.779
19680WAT      O59281   5.962   3.883   0.887
19680WAT     H159282   6.001   3.888   0.979
19680WAT     H259283   5.946   3.975   0.852
19681WAT      O59284   6.976   5.057   5.091
19681WAT     H159285   7.045   5.060   5.018
19681WAT     H259286   7.018   5.085   5.177
19682WAT      O59287   4.394   4.927   6.474
19682WAT     H159288   4.391   4.830   6.497
19682WAT     H259289   4.488   4.954   6.453
19683WAT      O59290   3.697   1.923   7.978
19683WAT     H159291   3.773   1.866   8.011
19683WAT     H259292   3.611   1.875   7.991
19684WAT      O59293   9.120   5.638   6.329
19684WAT     H159294   9.078   5.695   6.259
19684WAT     H259295   9.085   5.544   6.321
19685WAT      O59296   6.725   1.571   0.131
19685WAT     H159297   6.717   1.589   0.229
19685WAT     H259298   6.645   1.606   0.083
19686WAT      O59299   8.102   3.836   3.200
19686WAT     H159300   8.043   3.917   3.204
19686WAT     H259301   8.075   3.772   3.273
19687WAT      O59302   3.298   9.082   6.305
19687WAT     H159303   3.383   9.031   6.295
19687WAT     H259304   3.306   9.171   6.260
19688WAT      O59305   7.730   4.925   2.928
19688WAT     H159306   7.673   4.848   2.956
19688WAT     H259307   7.815   4.891   2.888
19689WAT      O59308   8.600   1.177   8.097
19689WAT     H159309   8.665   1.138   8.031
19689WAT     H259310   8.532   1.231   8.049
19690WAT      O59311   0.638   2.306   2.907
19690WAT     H159312   0.632   2.386   2.966
19690WAT     H259313   0.663   2.336   2.814
19691WAT      O59314   3.010   0.155   1.798
19691WAT     H159315   3.045   0.071   1.757
19691WAT     H259316   2.913   0.144   1.820
19692WAT      O59317   4.686   8.251   8.370
19692WAT     H159318   4.724   8.337   8.404
19692WAT     H259319   4.670   8.258   8.272
19693WAT      O59320   8.180   5.327   8.090
19693WAT     H159321   8.123   5.271   8.030
19693WAT     H259322   8.269   5.283   8.102
19694WAT      O59323   0.366   1.247   8.013
19694WAT     H159324   0.443   1.257   7.950
19694WAT     H259325   0.372   1.317   8.084
19695WAT      O59326   4.698   5.304   9.473
19695WAT     H159327   4.705   5.283   9.375
19695WAT     H259328   4.653   5.393   9.484
19696WAT      O59329   8.002   4.127   9.681
19696WAT     H159330   8.075   4.186   9.717
19696WAT     H259331   7.959   4.171   9.603
19697WAT      O59332   6.731   6.507   4.101
19697WAT     H159333   6.666   6.559   4.156
19697WAT     H259334   6.804   6.473   4.160
19698WAT      O59335   7.243   2.592   3.579
19698WAT     H159336   7.174   2.520   3.593
19698WAT     H259337   7.280   2.620   3.667
19699WAT      O59338   1.057   7.059   6.410
19699WAT     H159339   1.045   6.962   6.431
19699WAT     H259340   1.124   7.099   6.472
19700WAT      O59341   1.333   1.985   1.546
19700WAT     H159342   1.261   1.935   1.594
19700WAT     H259343   1.294   2.027   1.464
19701WAT      O59344   8.333   0.167   9.489
19701WAT     H159345   8.407   0.141   9.427
19701WAT     H259346   8.352   0.133   9.581
19702WAT      O59347   0.886   0.351   2.722
19702WAT     H159348   0.819   0.369   2.650
19702WAT     H259349   0.976   0.339   2.681
19703WAT      O59350   6.472   2.272   7.177
19703WAT     H159351   6.384   2.313   7.201
19703WAT     H259352   6.537   2.344   7.152
19704WAT      O59353   3.970   7.987   1.077
19704WAT     H159354   4.058   7.999   1.031
19704WAT     H259355   3.908   7.936   1.017
19705WAT      O59356   6.187   1.379   5.845
19705WAT     H159357   6.138   1.466   5.839
19705WAT     H259358   6.156   1.318   5.772
19706WAT      O59359   4.515   9.565   1.275
19706WAT     H159360   4.449   9.607   1.212
19706WAT     H259361   4.606   9.600   1.255
19707WAT      O59362   8.327   1.715   6.440
19707WAT     H159363   8.361   1.660   6.363
19707WAT     H259364   8.396   1.719   6.512
19708WAT      O59365   3.860   5.564   6.290
19708WAT     H159366   3.803   5.645   6.281
19708WAT     H259367   3.822   5.505   6.362
19709WAT      O59368   2.224   0.167   7.088
19709WAT     H159369   2.133   0.209   7.087
19709WAT     H259370   2.216   0.069   7.105
19710WAT      O59371   3.925   7.859   8.421
19710WAT     H159372   3.982   7.783   8.452
19710WAT     H259373   3.863   7.886   8.494
19711WAT      O59374   9.868   2.783   6.179
19711WAT     H159375   9.938   2.728   6.225
19711WAT     H259376   9.878   2.773   6.080
19712WAT      O59377   5.183   2.293   7.961
19712WAT     H159378   5.224   2.301   8.052
19712WAT     H259379   5.139   2.204   7.952
19713WAT      O59380   3.716   6.428   7.922
19713WAT     H159381   3.659   6.438   8.004
19713WAT     H259382   3.744   6.518   7.891
19714WAT      O59383   5.721   8.288   6.198
19714WAT     H159384   5.714   8.330   6.108
19714WAT     H259385   5.635   8.244   6.222
19715WAT      O59386   7.532   5.433   4.609
19715WAT     H159387   7.580   5.373   4.545
19715WAT     H259388   7.456   5.384   4.651
19716WAT      O59389   0.156   9.713   4.209
19716WAT     H159390   0.161   9.797   4.155
19716WAT     H259391   0.217   9.721   4.288
19717WAT      O59392   4.358   7.013   7.923
19717WAT     H159393   4.424   6.939   7.913
19717WAT     H259394   4.340   7.054   7.834
19718WAT      O59395   5.255   4.313   4.551
19718WAT     H159396   5.308   4.350   4.475
19718WAT     H259397   5.230   4.218   4.530
19719WAT      O59398   3.868   9.104   4.111
19719WAT     H159399   3.951   9.107   4.166
19719WAT     H259400   3.792   9.142   4.163
19720WAT      O59401   6.027   7.346   2.784
19720WAT     H159402   6.001   7.294   2.702
19720WAT     H259403   6.126   7.354   2.788
19721WAT      O59404   4.588   1.019   1.775
19721WAT     H159405   4.546   1.055   1.858
19721WAT     H259406   4.687   1.027   1.782
19722WAT      O59407   5.810   1.077   8.623
19722WAT     H159408   5.765   1.121   8.545
19722WAT     H259409   5.833   0.983   8.600
19723WAT      O59410   3.479   4.127   0.098
19723WAT     H159411   3.567   4.153   0.059
19723WAT     H259412   3.418   4.207   0.101
19724WAT      O59413   9.430   2.410   5.476
19724WAT     H159414   9.516   2.445   5.514
19724WAT     H259415   9.448   2.334   5.415
19725WAT      O59416   3.370   7.437   4.160
19725WAT     H159417   3.440   7.453   4.229
19725WAT     H259418   3.361   7.339   4.143
19726WAT      O59419   0.792   0.445   3.640
19726WAT     H159420   0.809   0.517   3.573
19726WAT     H259421   0.782   0.357   3.594
19727WAT      O59422   6.343   1.233   6.856
19727WAT     H159423   6.361   1.197   6.947
19727WAT     H259424   6.407   1.308   6.836
19728WAT      O59425   7.711   6.547   4.881
19728WAT     H159426   7.637   6.550   4.814
19728WAT     H259427   7.796   6.520   4.835
19729WAT      O59428   7.523   9.380   7.941
19729WAT     H159429   7.581   9.313   7.988
19729WAT     H259430   7.428   9.353   7.949
19730WAT      O59431   3.352   3.645   5.424
19730WAT     H159432   3.403   3.655   5.338
19730WAT     H259433   3.265   3.695   5.416
19731WAT      O59434   4.217   9.555   3.618
19731WAT     H159435   4.240   9.466   3.655
19731WAT     H259436   4.155   9.544   3.541
19732WAT      O59437   7.942   4.186   4.213
19732WAT     H159438   7.986   4.098   4.229
19732WAT     H259439   7.968   4.219   4.122
19733WAT      O59440   3.110   1.225   1.160
19733WAT     H159441   3.068   1.215   1.250
19733WAT     H259442   3.115   1.136   1.115
19734WAT      O59443   3.058   3.101   5.142
19734WAT     H159444   3.147   3.078   5.103
19734WAT     H259445   2.996   3.130   5.069
19735WAT      O59446   4.339   3.600   7.443
19735WAT     H159447   4.239   3.612   7.444
19735WAT     H259448   4.377   3.639   7.527
19736WAT      O59449   9.589   1.279   4.291
19736WAT     H159450   9.520   1.207   4.281
19736WAT     H259451   9.553   1.365   4.255
19737WAT      O59452   4.472   1.665   9.200
19737WAT     H159453   4.475   1.565   9.203
19737WAT     H259454   4.423   1.695   9.118
19738WAT      O59455   2.637   2.884   7.561
19738WAT     H159456   2.565   2.936   7.515
19738WAT     H259457   2.685   2.827   7.495
19739WAT      O59458   2.680   9.636   9.179
19739WAT     H159459   2.646   9.543   9.168
19739WAT     H259460   2.606   9.701   9.160
19740WAT      O59461   1.934   1.239   0.907
19740WAT     H159462   1.866   1.166   0.905
19740WAT     H259463   1.890   1.327   0.887
19741WAT      O59464   6.424   0.187   3.269
19741WAT     H159465   6.419   0.165   3.171
19741WAT     H259466   6.415   0.103   3.322
19742WAT      O59467   0.882   5.275   5.080
19742WAT     H159468   0.962   5.243   5.029
19742WAT     H259469   0.837   5.198   5.124
19743WAT      O59470   1.112   4.009   0.259
19743WAT     H159471   1.029   3.959   0.235
19743WAT     H259472   1.105   4.102   0.223
19744WAT      O59473   4.494   3.367   1.527
19744WAT     H159474   4.425   3.347   1.458
19744WAT     H259475   4.570   3.417   1.486
19745WAT      O59476   3.572   0.277   6.438
19745WAT     H159477   3.662   0.303   6.474
19745WAT     H259478   3.583   0.200   6.375
19746WAT      O59479   8.066   8.182   6.435
19746WAT     H159480   8.062   8.096   6.485
19746WAT     H259481   7.999   8.180   6.361
19747WAT      O59482   8.546   8.181   3.223
19747WAT     H159483   8.625   8.203   3.166
19747WAT     H259484   8.544   8.243   3.302
19748WAT      O59485   3.121   5.100   9.258
19748WAT     H159486   3.046   5.094   9.325
19748WAT     H259487   3.179   5.019   9.268
19749WAT      O59488   5.517   3.513   6.072
19749WAT     H159489   5.595   3.516   6.134
19749WAT     H259490   5.548   3.487   5.981
19750WAT      O59491   0.769   9.829   5.843
19750WAT     H159492   0.693   9.818   5.779
19750WAT     H259493   0.854   9.799   5.800
19751WAT      O59494   4.756   8.969   6.168
19751WAT     H159495   4.782   8.931   6.080
19751WAT     H259496   4.823   8.944   6.237
19752WAT      O59497   6.047   6.801   3.894
19752WAT     H159498   6.049   6.873   3.824
19752WAT     H259499   5.953   6.776   3.914
19753WAT      O59500   6.991   6.620   8.665
19753WAT     H159501   6.907   6.602   8.717
19753WAT     H259502   7.012   6.717   8.668
19754WAT      O59503   0.779   7.843   0.620
19754WAT     H159504   0.800   7.872   0.714
19754WAT     H259505   0.682   7.819   0.614
19755WAT      O59506   7.755   2.817   0.275
19755WAT     H159507   7.707   2.899   0.307
19755WAT     H259508   7.851   2.839   0.260
19756WAT      O59509   1.206   6.878   4.561
19756WAT     H159510   1.120   6.919   4.592
19756WAT     H259511   1.283   6.917   4.611
19757WAT      O59512   5.304   4.578   3.677
19757WAT     H159513   5.229   4.626   3.633
19757WAT     H259514   5.371   4.549   3.608
19758WAT      O59515   6.811   3.766   5.568
19758WAT     H159516   6.754   3.761   5.485
19758WAT     H259517   6.874   3.843   5.560
19759WAT      O59518   6.363   1.420   1.078
19759WAT     H159519   6.304   1.339   1.076
19759WAT     H259520   6.406   1.428   1.167
19760WAT      O59521   7.136   0.478   0.746
19760WAT     H159522   7.103   0.489   0.652
19760WAT     H259523   7.147   0.569   0.787
19761WAT      O59524   8.990   6.507   1.553
19761WAT     H159525   9.068   6.488   1.613
19761WAT     H259526   8.906   6.470   1.595
19762WAT      O59527   7.457   0.612   4.708
19762WAT     H159528   7.441   0.623   4.610
19762WAT     H259529   7.431   0.696   4.756
19763WAT      O59530   3.163   7.926   5.338
19763WAT     H159531   3.070   7.964   5.331
19763WAT     H259532   3.157   7.826   5.344
19764WAT      O59533   9.161   3.231   4.391
19764WAT     H159534   9.109   3.167   4.448
19764WAT     H259535   9.180   3.190   4.303
19765WAT      O59536   0.377   6.862   1.918
19765WAT     H159537   0.371   6.763   1.930
19765WAT     H259538   0.380   6.906   2.008
19766WAT      O59539   0.582   2.927   8.194
19766WAT     H159540   0.575   3.025   8.179
19766WAT     H259541   0.678   2.899   8.187
19767WAT      O59542   3.586   0.914   0.929
19767WAT     H159543   3.487   0.921   0.912
19767WAT     H259544   3.633   0.991   0.885
19768WAT      O59545   8.472   2.999   9.772
19768WAT     H159546   8.391   2.946   9.748
19768WAT     H259547   8.476   3.081   9.715
19769WAT      O59548   4.898   2.881   1.471
19769WAT     H159549   4.943   2.948   1.413
19769WAT     H259550   4.935   2.886   1.564
19770WAT      O59551   1.713   9.368   3.104
19770WAT     H159552   1.775   9.333   3.033
19770WAT     H259553   1.701   9.299   3.175
19771WAT      O59554   5.210   6.878   5.609
19771WAT     H159555   5.132   6.940   5.608
19771WAT     H259556   5.259   6.888   5.695
19772WAT      O59557   6.271   7.787   6.451
19772WAT     H159558   6.241   7.694   6.472
19772WAT     H259559   6.254   7.808   6.355
19773WAT      O59560   8.643   1.288   0.268
19773WAT     H159561   8.667   1.267   0.173
19773WAT     H259562   8.720   1.264   0.328
19774WAT      O59563   4.634   1.485   4.564
19774WAT     H159564   4.558   1.548   4.584
19774WAT     H259565   4.668   1.446   4.649
19775WAT      O59566   7.339   8.132   8.538
19775WAT     H159567   7.278   8.102   8.611
19775WAT     H259568   7.357   8.230   8.548
19776WAT      O59569   6.608   9.527   9.847
19776WAT     H159570   6.592   9.450   9.786
19776WAT     H259571   6.704   9.554   9.842
19777WAT      O59572   3.743   6.813   5.168
19777WAT     H159573   3.790   6.749   5.107
19777WAT     H259574   3.796   6.825   5.252
19778WAT      O59575   5.139   1.472   0.104
19778WAT     H159576   5.203   1.542   0.136
19778WAT     H259577   5.051   1.484   0.149
19779WAT      O59578   1.425   3.062   2.870
19779WAT     H159579   1.459   3.096   2.958
19779WAT     H259580   1.326   3.075   2.865
19780WAT      O59581   4.441   8.629   4.879
19780WAT     H159582   4.422   8.553   4.816
19780WAT     H259583   4.499   8.595   4.954
19781WAT      O59584   2.994   2.042   8.256
19781WAT     H159585   3.064   2.111   8.274
19781WAT     H259586   2.907   2.086   8.238
19782WAT      O59587   0.007   0.623   4.932
19782WAT     H159588  -0.019   0.720   4.934
19782WAT     H259589  -0.031   0.581   4.849
19783WAT      O59590   4.685   5.896   8.422
19783WAT     H159591   4.660   5.965   8.490
19783WAT     H259592   4.658   5.806   8.455
19784WAT      O59593   0.407   1.758   3.284
19784WAT     H159594   0.461   1.729   3.205
19784WAT     H259595   0.388   1.856   3.278
19785WAT      O59596   0.303   4.912   0.021
19785WAT     H159597   0.245   4.876  -0.052
19785WAT     H259598   0.247   4.950   0.094
19786WAT      O59599   3.494   8.518   4.039
19786WAT     H159600   3.423   8.574   4.083
19786WAT     H259601   3.563   8.579   3.999
19787WAT      O59602   3.859   3.120   3.360
19787WAT     H159603   3.920   3.126   3.439
19787WAT     H259604   3.765   3.106   3.391
19788WAT      O59605   5.051   3.897   7.746
19788WAT     H159606   4.965   3.919   7.701
19788WAT     H259607   5.043   3.918   7.844
19789WAT      O59608   1.881   1.097   0.463
19789WAT     H159609   1.850   1.108   0.557
19789WAT     H259610   1.950   1.025   0.458
19790WAT      O59611   2.995   3.113   1.665
19790WAT     H159612   3.065   3.164   1.715
19790WAT     H259613   2.931   3.176   1.622
19791WAT      O59614   9.294   0.061   1.985
19791WAT     H159615   9.260   0.147   2.023
19791WAT     H259616   9.224   0.018   1.929
19792WAT      O59617   2.160   2.011   3.600
19792WAT     H159618   2.079   1.952   3.608
19792WAT     H259619   2.140   2.101   3.639
19793WAT      O59620   1.802   4.366   8.050
19793WAT     H159621   1.830   4.461   8.032
19793WAT     H259622   1.876   4.304   8.025
19794WAT      O59623   9.216   2.195   9.158
19794WAT     H159624   9.266   2.178   9.073
19794WAT     H259625   9.251   2.279   9.201
19795WAT      O59626   0.735   0.412   8.812
19795WAT     H159627   0.666   0.440   8.746
19795WAT     H259628   0.740   0.312   8.815
19796WAT      O59629   3.573   9.779   4.950
19796WAT     H159630   3.657   9.752   4.902
19796WAT     H259631   3.494   9.744   4.900
19797WAT      O59632   5.866   2.595   7.386
19797WAT     H159633   5.794   2.527   7.373
19797WAT     H259634   5.911   2.614   7.298
19798WAT      O59635   8.611   6.712   1.744
19798WAT     H159636   8.671   6.663   1.805
19798WAT     H259637   8.546   6.767   1.797
19799WAT      O59638   2.692   2.804   0.085
19799WAT     H159639   2.735   2.730   0.137
19799WAT     H259640   2.601   2.775   0.055
19800WAT      O59641   3.805   3.346   9.589
19800WAT     H159642   3.752   3.359   9.672
19800WAT     H259643   3.743   3.339   9.511
19801WAT      O59644   7.142   9.804   6.519
19801WAT     H159645   7.080   9.851   6.582
19801WAT     H259646   7.185   9.726   6.566
19802WAT      O59647   0.438   1.135   4.534
19802WAT     H159648   0.485   1.061   4.487
19802WAT     H259649   0.456   1.221   4.486
19803WAT      O59650   3.396   0.092   1.374
19803WAT     H159651   3.475   0.150   1.397
19803WAT     H259652   3.416   0.038   1.293
19804WAT      O59653   0.156   4.105   3.714
19804WAT     H159654   0.229   4.172   3.721
19804WAT     H259655   0.176   4.039   3.641
19805WAT      O59656   6.603   6.285   0.503
19805WAT     H159657   6.559   6.371   0.527
19805WAT     H259658   6.692   6.303   0.463
19806WAT      O59659   2.288   2.671   6.392
19806WAT     H159660   2.362   2.624   6.441
19806WAT     H259661   2.296   2.654   6.294
19807WAT      O59662   8.265   4.982   9.203
19807WAT     H159663   8.365   4.987   9.200
19807WAT     H259664   8.233   5.001   9.296
19808WAT      O59665   1.808   7.974   3.140
19808WAT     H159666   1.744   7.952   3.214
19808WAT     H259667   1.784   8.063   3.101
19809WAT      O59668   2.392   8.003   3.089
19809WAT     H159669   2.332   7.936   3.132
19809WAT     H259670   2.337   8.079   3.053
19810WAT      O59671   3.212   6.559   2.716
19810WAT     H159672   3.300   6.545   2.669
19810WAT     H259673   3.220   6.530   2.811
19811WAT      O59674   1.136   2.657   2.026
19811WAT     H159675   1.224   2.700   2.046
19811WAT     H259676   1.091   2.632   2.112
19812WAT      O59677   3.044   5.956   4.883
19812WAT     H159678   3.016   6.034   4.827
19812WAT     H259679   3.136   5.972   4.918
19813WAT      O59680   8.746   6.221   2.668
19813WAT     H159681   8.789   6.148   2.720
19813WAT     H259682   8.751   6.307   2.719
19814WAT      O59683   8.960   5.286   0.396
19814WAT     H159684   8.876   5.245   0.360
19814WAT     H259685   9.005   5.339   0.323
19815WAT      O59686   2.975   1.582   2.579
19815WAT     H159687   2.988   1.641   2.500
19815WAT     H259688   3.034   1.501   2.569
19816WAT      O59689   7.154   9.667   1.900
19816WAT     H159690   7.179   9.587   1.847
19816WAT     H259691   7.237   9.713   1.933
19817WAT      O59692   9.752   3.878   9.112
19817WAT     H159693   9.836   3.914   9.071
19817WAT     H259694   9.673   3.927   9.074
19818WAT      O59695   6.226   0.901   5.107
19818WAT     H159696   6.232   0.828   5.038
19818WAT     H259697   6.289   0.882   5.182
19819WAT      O59698   0.865   2.377   7.529
19819WAT     H159699   0.934   2.310   7.556
19819WAT     H259700   0.896   2.428   7.449
19820WAT      O59701   3.680   9.739   5.252
19820WAT     H159702   3.615   9.787   5.312
19820WAT     H259703   3.652   9.752   5.157
19821WAT      O59704   0.186   3.157   7.768
19821WAT     H159705   0.208   3.147   7.865
19821WAT     H259706   0.202   3.252   7.740
19822WAT      O59707   5.626   5.229   9.278
19822WAT     H159708   5.715   5.239   9.322
19822WAT     H259709   5.560   5.292   9.319
19823WAT      O59710   4.072   8.829   6.704
19823WAT     H159711   4.119   8.744   6.727
19823WAT     H259712   3.974   8.813   6.700
19824WAT      O59713   8.532   2.406   2.841
19824WAT     H159714   8.543   2.408   2.742
19824WAT     H259715   8.608   2.456   2.884
19825WAT      O59716   6.512   7.343   2.566
19825WAT     H159717   6.490   7.366   2.661
19825WAT     H259718   6.591   7.398   2.536
19826WAT      O59719   7.397   2.984   6.640
19826WAT     H159720   7.433   2.895   6.668
19826WAT     H259721   7.413   2.998   6.542
19827WAT      O59722   4.369   6.158   6.125
19827WAT     H159723   4.469   6.152   6.132
19827WAT     H259724   4.339   6.249   6.154
19828WAT      O59725   6.746   0.948   8.044
19828WAT     H159726   6.766   0.883   8.118
19828WAT     H259727   6.707   0.899   7.966
19829WAT      O59728   5.693   3.211   3.363
19829WAT     H159729   5.616   3.149   3.382
19829WAT     H259730   5.777   3.171   3.400
19830WAT      O59731   8.389   0.701   7.066
19830WAT     H159732   8.293   0.716   7.088
19830WAT     H259733   8.422   0.777   7.010
19831WAT      O59734   0.942   7.597   0.537
19831WAT     H159735   0.901   7.519   0.584
19831WAT     H259736   0.909   7.682   0.578
19832WAT      O59737   8.930   0.319   6.527
19832WAT     H159738   9.009   0.369   6.493
19832WAT     H259739   8.950   0.221   6.528
19833WAT      O59740   0.231   5.480   1.297
19833WAT     H159741   0.277   5.555   1.250
19833WAT     H259742   0.189   5.513   1.381
19834WAT      O59743   9.070   9.366   3.172
19834WAT     H159744   9.158   9.323   3.190
19834WAT     H259745   9.067   9.455   3.216
19835WAT      O59746   3.773   8.270   7.763
19835WAT     H159747   3.717   8.317   7.830
19835WAT     H259748   3.765   8.315   7.674
19836WAT      O59749   7.367   0.344   5.842
19836WAT     H159750   7.432   0.285   5.891
19836WAT     H259751   7.354   0.429   5.892
19837WAT      O59752   6.300   4.001   4.472
19837WAT     H159753   6.243   3.974   4.394
19837WAT     H259754   6.285   3.937   4.548
19838WAT      O59755   3.037   6.453   9.597
19838WAT     H159756   2.951   6.448   9.545
19838WAT     H259757   3.034   6.386   9.672
19839WAT      O59758   8.948   8.721   3.458
19839WAT     H159759   8.994   8.803   3.426
19839WAT     H259760   8.906   8.739   3.547
19840WAT      O59761   8.698   3.609   6.394
19840WAT     H159762   8.730   3.678   6.329
19840WAT     H259763   8.598   3.602   6.388
19841WAT      O59764   2.087   7.793   4.439
19841WAT     H159765   2.115   7.868   4.500
19841WAT     H259766   2.142   7.797   4.355
19842WAT      O59767   9.354   2.809   7.954
19842WAT     H159768   9.330   2.870   8.029
19842WAT     H259769   9.407   2.732   7.990
19843WAT      O59770   2.476   5.468   1.723
19843WAT     H159771   2.420   5.407   1.780
19843WAT     H259772   2.416   5.533   1.676
19844WAT      O59773   5.769   1.414   2.877
19844WAT     H159774   5.860   1.411   2.835
19844WAT     H259775   5.767   1.486   2.946
19845WAT      O59776   4.859   4.778   8.274
19845WAT     H159777   4.800   4.844   8.320
19845WAT     H259778   4.954   4.812   8.276
19846WAT      O59779   8.105   3.800   2.002
19846WAT     H159780   8.150   3.840   2.082
19846WAT     H259781   8.157   3.820   1.920
19847WAT      O59782   1.752   8.593   6.410
19847WAT     H159783   1.843   8.597   6.451
19847WAT     H259784   1.683   8.582   6.482
19848WAT      O59785   9.248   0.997   7.374
19848WAT     H159786   9.232   0.997   7.473
19848WAT     H259787   9.311   1.071   7.351
19849WAT      O59788   4.528   4.817   9.456
19849WAT     H159789   4.613   4.847   9.499
19849WAT     H259790   4.527   4.717   9.449
19850WAT      O59791   7.264   6.275   8.536
19850WAT     H159792   7.315   6.230   8.462
19850WAT     H259793   7.253   6.212   8.612
19851WAT      O59794   8.553   8.662   5.242
19851WAT     H159795   8.590   8.656   5.149
19851WAT     H259796   8.456   8.639   5.240
19852WAT      O59797   2.527   5.687   1.400
19852WAT     H159798   2.455   5.697   1.469
19852WAT     H259799   2.615   5.675   1.446
19853WAT      O59800   4.741   3.560   9.090
19853WAT     H159801   4.830   3.603   9.073
19853WAT     H259802   4.681   3.626   9.136
19854WAT      O59803   9.333   6.878   2.302
19854WAT     H159804   9.401   6.806   2.313
19854WAT     H259805   9.353   6.932   2.221
19855WAT      O59806   1.529   2.840   8.742
19855WAT     H159807   1.439   2.841   8.786
19855WAT     H259808   1.599   2.824   8.811
19856WAT      O59809   6.617   7.902   7.890
19856WAT     H159810   6.571   7.983   7.926
19856WAT     H259811   6.710   7.898   7.925
19857WAT      O59812   7.106   7.315   7.614
19857WAT     H159813   7.017   7.292   7.573
19857WAT     H259814   7.144   7.234   7.658
19858WAT      O59815   9.807   0.251   9.459
19858WAT     H159816   9.864   0.201   9.525
19858WAT     H259817   9.725   0.285   9.506
19859WAT      O59818   2.063   4.028   4.905
19859WAT     H159819   2.043   4.083   4.824
19859WAT     H259820   2.022   3.938   4.895
19860WAT      O59821   1.454   5.786   1.864
19860WAT     H159822   1.381   5.740   1.915
19860WAT     H259823   1.449   5.885   1.880
19861WAT      O59824   4.426   0.187   2.628
19861WAT     H159825   4.489   0.111   2.614
19861WAT     H259826   4.345   0.173   2.571
19862WAT      O59827   8.570   7.350   3.925
19862WAT     H159828   8.668   7.371   3.917
19862WAT     H259829   8.534   7.391   4.009
19863WAT      O59830   8.222   0.240   5.821
19863WAT     H159831   8.298   0.175   5.828
19863WAT     H259832   8.197   0.272   5.912
19864WAT      O59833   3.262   2.965   6.862
19864WAT     H159834   3.344   3.022   6.856
19864WAT     H259835   3.236   2.934   6.771
19865WAT      O59836   8.268   0.738   9.075
19865WAT     H159837   8.356   0.766   9.037
19865WAT     H259838   8.200   0.809   9.056
19866WAT      O59839   0.841   2.539   3.216
19866WAT     H159840   0.875   2.515   3.306
19866WAT     H259841   0.860   2.636   3.198
19867WAT      O59842   5.669   6.104   8.655
19867WAT     H159843   5.594   6.170   8.648
19867WAT     H259844   5.736   6.120   8.583
19868WAT      O59845   5.721   4.351   9.755
19868WAT     H159846   5.743   4.286   9.828
19868WAT     H259847   5.682   4.301   9.678
19869WAT      O59848   9.542   6.002   5.158
19869WAT     H159849   9.563   6.047   5.071
19869WAT     H259850   9.444   5.983   5.162
19870WAT      O59851   9.806   5.650   8.392
19870WAT     H159852   9.789   5.745   8.419
19870WAT     H259853   9.799   5.642   8.293
19871WAT      O59854   4.648   1.922   1.958
19871WAT     H159855   4.660   2.010   2.004
19871WAT     H259856   4.624   1.938   1.862
19872WAT      O59857   3.211   7.243   3.098
19872WAT     H159858   3.202   7.338   3.125
19872WAT     H259859   3.204   7.235   2.999
19873WAT      O59860   7.726   8.433   0.508
19873WAT     H159861   7.718   8.377   0.590
19873WAT     H259862   7.691   8.524   0.526
19874WAT      O59863   0.359   3.841   5.501
19874WAT     H159864   0.341   3.765   5.438
19874WAT     H259865   0.396   3.805   5.586
19875WAT      O59866   3.003   8.551   1.575
19875WAT     H159867   2.906   8.539   1.594
19875WAT     H259868   3.027   8.648   1.580
19876WAT      O59869   6.673   2.994   0.143
19876WAT     H159870   6.598   2.988   0.209
19876WAT     H259871   6.636   3.010   0.051
19877WAT      O59872   7.638   1.188   2.913
19877WAT     H159873   7.720   1.218   2.962
19877WAT     H259874   7.617   1.094   2.939
19878WAT      O59875   1.593   7.369   2.075
19878WAT     H159876   1.552   7.393   2.163
19878WAT     H259877   1.659   7.295   2.088
19879WAT      O59878   7.167   8.741   3.488
19879WAT     H159879   7.093   8.783   3.435
19879WAT     H259880   7.245   8.723   3.429
19880WAT      O59881   6.229   6.364   8.774
19880WAT     H159882   6.194   6.271   8.765
19880WAT     H259883   6.318   6.371   8.729
19881WAT      O59884   8.801   6.193   0.972
19881WAT     H159885   8.856   6.176   0.890
19881WAT     H259886   8.841   6.269   1.023
19882WAT      O59887   8.401   4.790   8.614
19882WAT     H159888   8.336   4.724   8.650
19882WAT     H259889   8.460   4.823   8.688
19883WAT      O59890   9.391   5.478   6.816
19883WAT     H159891   9.372   5.386   6.782
19883WAT     H259892   9.395   5.476   6.916
19884WAT      O59893   5.672   1.529   5.051
19884WAT     H159894   5.730   1.486   4.982
19884WAT     H259895   5.724   1.598   5.102
19885WAT      O59896   8.992   5.184   2.820
19885WAT     H159897   8.958   5.091   2.838
19885WAT     H259898   9.049   5.183   2.738
19886WAT      O59899   7.923   1.889   3.372
19886WAT     H159900   7.829   1.859   3.384
19886WAT     H259901   7.985   1.814   3.395
19887WAT      O59902   3.397   8.465   8.744
19887WAT     H159903   3.363   8.524   8.817
19887WAT     H259904   3.468   8.512   8.693
19888WAT      O59905   0.624   0.596   5.478
19888WAT     H159906   0.535   0.591   5.524
19888WAT     H259907   0.615   0.559   5.386
19889WAT      O59908   8.172   7.338   9.859
19889WAT     H159909   8.145   7.244   9.878
19889WAT     H259910   8.185   7.387   9.946
19890WAT      O59911   4.669   6.990   4.178
19890WAT     H159912   4.688   6.897   4.146
19890WAT     H259913   4.635   6.986   4.271
19891WAT      O59914   5.899   7.084   8.693
19891WAT     H159915   5.822   7.101   8.631
19891WAT     H259916   5.870   7.020   8.765
19892WAT      O59917   9.517   7.402   3.937
19892WAT     H159918   9.439   7.394   3.875
19892WAT     H259919   9.601   7.382   3.886
19893WAT      O59920   2.169   1.604   6.947
19893WAT     H159921   2.117   1.684   6.975
19893WAT     H259922   2.267   1.626   6.945
19894WAT      O59923   8.300   5.471   5.769
19894WAT     H159924   8.216   5.525   5.766
19894WAT     H259925   8.346   5.485   5.857
19895WAT      O59926   9.648   7.219   6.083
19895WAT     H159927   9.689   7.310   6.085
19895WAT     H259928   9.599   7.203   6.169
19896WAT      O59929   8.303   9.782   0.172
19896WAT     H159930   8.393   9.749   0.141
19896WAT     H259931   8.232   9.727   0.128
19897WAT      O59932   0.102   0.988   2.952
19897WAT     H159933   0.147   0.905   2.920
19897WAT     H259934   0.003   0.976   2.945
19898WAT      O59935   9.825   8.472   4.778
19898WAT     H159936   9.732   8.479   4.742
19898WAT     H259937   9.823   8.482   4.877
19899WAT      O59938   1.059   6.961   5.548
19899WAT     H159939   1.033   6.905   5.627
19899WAT     H259940   1.014   6.926   5.466
19900WAT      O59941   8.092   9.014   7.339
19900WAT     H159942   8.190   9.015   7.361
19900WAT     H259943   8.074   8.940   7.274
19901WAT      O59944   8.300   1.050   7.063
19901WAT     H159945   8.204   1.060   7.037
19901WAT     H259946   8.346   0.989   6.999
19902WAT      O59947   3.359   4.981   4.217
19902WAT     H159948   3.381   4.999   4.121
19902WAT     H259949   3.315   5.062   4.257
19903WAT      O59950   7.827   0.052   0.292
19903WAT     H159951   7.736   0.081   0.319
19903WAT     H259952   7.891   0.128   0.300
19904WAT      O59953   1.200   2.110   4.250
19904WAT     H159954   1.271   2.060   4.200
19904WAT     H259955   1.190   2.072   4.342
19905WAT      O59956   6.479   9.538   2.569
19905WAT     H159957   6.560   9.596   2.562
19905WAT     H259958   6.397   9.596   2.565
19906WAT      O59959   0.415   6.358   9.160
19906WAT     H159960   0.365   6.425   9.213
19906WAT     H259961   0.352   6.305   9.104
19907WAT      O59962   9.362   9.382   0.561
19907WAT     H159963   9.331   9.417   0.473
19907WAT     H259964   9.285   9.343   0.611
19908WAT      O59965   8.324   1.974   7.781
19908WAT     H159966   8.373   2.059   7.764
19908WAT     H259967   8.347   1.907   7.711
19909WAT      O59968   0.951   2.726   1.822
19909WAT     H159969   1.016   2.707   1.895
19909WAT     H259970   0.874   2.664   1.829
19910WAT      O59971   1.507   8.425   1.909
19910WAT     H159972   1.569   8.365   1.859
19910WAT     H259973   1.555   8.465   1.987
19911WAT      O59974   2.049   3.411   7.446
19911WAT     H159975   2.138   3.457   7.448
19911WAT     H259976   1.984   3.467   7.396
19912WAT      O59977   3.177   0.052   7.565
19912WAT     H159978   3.086   0.010   7.568
19912WAT     H259979   3.172   0.137   7.512
19913WAT      O59980   2.791   2.791   3.707
19913WAT     H159981   2.708   2.755   3.663
19913WAT     H259982   2.770   2.820   3.800
19914WAT      O59983   4.697   1.654   8.613
19914WAT     H159984   4.790   1.693   8.607
19914WAT     H259985   4.659   1.674   8.703
19915WAT      O59986   0.051   1.990   7.755
19915WAT     H159987   0.015   1.981   7.663
19915WAT     H259988  -0.021   1.969   7.821
19916WAT      O59989   7.550   3.940   2.595
19916WAT     H159990   7.518   3.985   2.679
19916WAT     H259991   7.474   3.894   2.550
19917WAT      O59992   7.366   5.332   1.950
19917WAT     H159993   7.272   5.303   1.971
19917WAT     H259994   7.390   5.410   2.008
19918WAT      O59995   7.400   2.837   2.700
19918WAT     H159996   7.320   2.782   2.677
19918WAT     H259997   7.371   2.922   2.743
19919WAT      O59998   2.079   7.295   7.340
19919WAT     H159999   2.168   7.267   7.304
19919WAT     H260000   2.010   7.228   7.315
19920WAT      O60001   9.306   4.356   0.990
19920WAT     H160002   9.208   4.370   1.004
19920WAT     H260003   9.351   4.445   0.978
19921WAT      O60004   6.347   8.796   7.966
19921WAT     H160005   6.428   8.849   7.990
19921WAT     H260006   6.347   8.778   7.868
19922WAT      O60007   3.759   6.070   9.756
19922WAT     H160008   3.743   6.125   9.674
19922WAT     H260009   3.687   6.090   9.823
19923WAT      O60010   8.320   9.799   6.451
19923WAT     H160011   8.294   9.887   6.491
19923WAT     H260012   8.330   9.731   6.524
19924WAT      O60013   2.690   5.073   7.749
19924WAT     H160014   2.768   5.133   7.768
19924WAT     H260015   2.724   4.981   7.726
19925WAT      O60016   9.587   9.382   2.767
19925WAT     H160017   9.524   9.311   2.738
19925WAT     H260018   9.535   9.460   2.802
19926WAT      O60019   2.435   5.848   5.217
19926WAT     H160020   2.365   5.778   5.230
19926WAT     H260021   2.505   5.814   5.155
19927WAT      O60022   6.098   7.571   3.517
19927WAT     H160023   6.109   7.497   3.450
19927WAT     H260024   6.188   7.601   3.549
19928WAT      O60025   5.657   3.917   5.327
19928WAT     H160026   5.626   3.941   5.235
19928WAT     H260027   5.634   3.822   5.347
19929WAT      O60028   6.179   7.119   3.439
19929WAT     H160029   6.135   7.029   3.439
19929WAT     H260030   6.244   7.124   3.515
19930WAT      O60031   1.551   5.427   4.955
19930WAT     H160032   1.509   5.372   5.027
19930WAT     H260033   1.641   5.390   4.933
19931WAT      O60034   5.882   9.704   1.668
19931WAT     H160035   5.818   9.683   1.594
19931WAT     H260036   5.976   9.696   1.634
19932WAT      O60037   5.868   4.047   6.819
19932WAT     H160038   5.965   4.071   6.813
19932WAT     H260039   5.860   3.950   6.845
19933WAT      O60040   0.693   8.435   6.530
19933WAT     H160041   0.765   8.504   6.538
19933WAT     H260042   0.636   8.456   6.451
19934WAT      O60043   1.052   7.194   7.954
19934WAT     H160044   1.013   7.261   8.017
19934WAT     H260045   1.135   7.156   7.994
19935WAT      O60046   4.969   1.066   7.574
19935WAT     H160047   4.986   1.087   7.478
19935WAT     H260048   5.000   0.973   7.593
19936WAT      O60049   8.833   6.289   8.457
19936WAT     H160050   8.874   6.379   8.473
19936WAT     H260051   8.886   6.219   8.507
19937WAT      O60052   6.086   9.406   2.787
19937WAT     H160053   6.183   9.425   2.771
19937WAT     H260054   6.070   9.399   2.886
19938WAT      O60055   0.555   7.076   9.768
19938WAT     H160056   0.624   7.060   9.839
19938WAT     H260057   0.529   7.172   9.768
19939WAT      O60058   5.990   3.670   4.892
19939WAT     H160059   6.075   3.641   4.937
19939WAT     H260060   6.000   3.763   4.858
19940WAT      O60061   4.742   7.983   2.113
19940WAT     H160062   4.647   7.969   2.087
19940WAT     H260063   4.802   7.935   2.049
19941WAT      O60064   5.874   9.241   5.654
19941WAT     H160065   5.914   9.333   5.659
19941WAT     H260066   5.869   9.202   5.746
19942WAT      O60067   2.752   6.344   0.549
19942WAT     H160068   2.671   6.289   0.571
19942WAT     H260069   2.763   6.350   0.450
19943WAT      O60070   0.139   3.435   9.415
19943WAT     H160071   0.114   3.406   9.508
19943WAT     H260072   0.232   3.472   9.415
19944WAT      O60073   7.673   2.164   0.782
19944WAT     H160074   7.708   2.212   0.863
19944WAT     H260075   7.573   2.175   0.778
19945WAT      O60076   0.146   3.504   4.701
19945WAT     H160077   0.112   3.509   4.795
19945WAT     H260078   0.176   3.595   4.672
19946WAT      O60079   5.039   6.613   2.807
19946WAT     H160080   5.105   6.605   2.882
19946WAT     H260081   4.968   6.544   2.818
19947WAT      O60082   0.071   1.536   1.215
19947WAT     H160083   0.023   1.589   1.145
19947WAT     H260084   0.048   1.571   1.305
19948WAT      O60085   5.402   6.689   3.870
19948WAT     H160086   5.343   6.659   3.795
19948WAT     H260087   5.346   6.726   3.944
19949WAT      O60088   6.898   2.968   4.929
19949WAT     H160089   6.928   2.876   4.902
19949WAT     H260090   6.800   2.977   4.912
19950WAT      O60091   6.117   2.986   0.121
19950WAT     H160092   6.069   3.030   0.046
19950WAT     H260093   6.151   2.897   0.091
19951WAT      O60094   3.479   2.908   4.034
19951WAT     H160095   3.517   2.870   3.950
19951WAT     H260096   3.410   2.976   4.013
19952WAT      O60097   6.690   6.794   7.271
19952WAT     H160098   6.761   6.857   7.237
19952WAT     H260099   6.656   6.738   7.196
19953WAT      O60100   1.555   2.390   8.110
19953WAT     H160101   1.563   2.312   8.172
19953WAT     H260102   1.589   2.472   8.157
19954WAT      O60103   8.384   3.884   2.647
19954WAT     H160104   8.451   3.897   2.573
19954WAT     H260105   8.297   3.926   2.621
19955WAT      O60106   7.654   1.612   5.055
19955WAT     H160107   7.651   1.625   4.956
19955WAT     H260108   7.638   1.515   5.077
19956WAT      O60109   4.211   4.622   9.177
19956WAT     H160110   4.158   4.588   9.255
19956WAT     H260111   4.149   4.670   9.114
19957WAT      O60112   4.282   7.017   1.326
19957WAT     H160113   4.191   7.045   1.356
19957WAT     H260114   4.303   7.059   1.239
19958WAT      O60115   2.386   4.310   8.897
19958WAT     H160116   2.412   4.216   8.876
19958WAT     H260117   2.469   4.365   8.911
19959WAT      O60118   1.606   7.894   4.647
19959WAT     H160119   1.521   7.897   4.700
19959WAT     H260120   1.678   7.851   4.702
19960WAT      O60121   9.771   8.104   7.842
19960WAT     H160122   9.854   8.149   7.809
19960WAT     H260123   9.795   8.027   7.900
19961WAT      O60124   8.197   2.205   6.770
19961WAT     H160125   8.251   2.275   6.816
19961WAT     H260126   8.259   2.140   6.724
19962WAT      O60127   7.956   2.994   0.189
19962WAT     H160128   7.915   2.993   0.098
19962WAT     H260129   7.930   3.078   0.237
19963WAT      O60130   0.451   6.650   0.861
19963WAT     H160131   0.440   6.553   0.842
19963WAT     H260132   0.547   6.669   0.884
19964WAT      O60133   9.283   0.169   8.562
19964WAT     H160134   9.201   0.150   8.508
19964WAT     H260135   9.257   0.183   8.657
19965WAT      O60136   2.939   8.998   4.110
19965WAT     H160137   2.950   9.090   4.148
19965WAT     H260138   3.013   8.939   4.144
19966WAT      O60139   8.574   1.814   8.817
19966WAT     H160140   8.663   1.859   8.807
19966WAT     H260141   8.588   1.718   8.841
19967WAT      O60142   8.491   0.918   1.507
19967WAT     H160143   8.450   0.966   1.585
19967WAT     H260144   8.490   0.978   1.427
19968WAT      O60145   9.248   0.753   5.577
19968WAT     H160146   9.155   0.742   5.541
19968WAT     H260147   9.285   0.840   5.545
19969WAT      O60148   9.758   8.967   9.599
19969WAT     H160149   9.744   9.064   9.620
19969WAT     H260150   9.679   8.915   9.632
19970WAT      O60151   5.759   0.804   7.745
19970WAT     H160152   5.765   0.706   7.762
19970WAT     H260153   5.707   0.820   7.661
19971WAT      O60154   7.076   8.798   4.573
19971WAT     H160155   7.053   8.735   4.647
19971WAT     H260156   7.172   8.824   4.580
19972WAT      O60157   0.885   1.171   1.888
19972WAT     H160158   0.908   1.264   1.917
19972WAT     H260159   0.788   1.166   1.867
19973WAT      O60160   1.120   1.445   0.568
19973WAT     H160161   1.057   1.369   0.555
19973WAT     H260162   1.211   1.419   0.537
19974WAT      O60163   6.571   3.749   3.505
19974WAT     H160164   6.633   3.738   3.427
19974WAT     H260165   6.507   3.673   3.507
19975WAT      O60166   4.611   8.098   1.305
19975WAT     H160167   4.579   8.193   1.306
19975WAT     H260168   4.689   8.089   1.366
19976WAT      O60169   1.557   0.578   6.731
19976WAT     H160170   1.490   0.558   6.803
19976WAT     H260171   1.532   0.663   6.685
19977WAT      O60172   4.208   9.061   2.831
19977WAT     H160173   4.240   8.976   2.790
19977WAT     H260174   4.122   9.089   2.788
19978WAT      O60175   8.316   6.895   5.772
19978WAT     H160176   8.249   6.960   5.737
19978WAT     H260177   8.365   6.854   5.695
19979WAT      O60178   9.386   0.252   9.462
19979WAT     H160179   9.312   0.246   9.395
19979WAT     H260180   9.470   0.216   9.421
19980WAT      O60181   8.295   0.106   1.502
19980WAT     H160182   8.237   0.096   1.583
19980WAT     H260183   8.294   0.202   1.471
19981WAT      O60184   1.702   3.738   5.704
19981WAT     H160185   1.796   3.714   5.678
19981WAT     H260186   1.638   3.697   5.639
19982WAT      O60187   7.568   1.240   9.393
19982WAT     H160188   7.485   1.293   9.415
19982WAT     H260189   7.596   1.260   9.299
19983WAT      O60190   5.234   9.284   8.653
19983WAT     H160191   5.246   9.191   8.686
19983WAT     H260192   5.149   9.322   8.689
19984WAT      O60193   0.249   7.890   0.690
19984WAT     H160194   0.320   7.952   0.724
19984WAT     H260195   0.161   7.937   0.692
19985WAT      O60196   4.762   6.794   2.901
19985WAT     H160197   4.752   6.787   2.802
19985WAT     H260198   4.849   6.837   2.923
19986WAT      O60199   7.216   2.484   7.305
19986WAT     H160200   7.128   2.520   7.273
19986WAT     H260201   7.230   2.392   7.268
19987WAT      O60202   5.889   1.396   7.375
19987WAT     H160203   5.922   1.304   7.358
19987WAT     H260204   5.817   1.394   7.444
19988WAT      O60205   6.242   8.331   1.043
19988WAT     H160206   6.234   8.341   0.944
19988WAT     H260207   6.309   8.259   1.064
19989WAT      O60208   0.158   2.640   0.897
19989WAT     H160209   0.133   2.694   0.978
19989WAT     H260210   0.078   2.632   0.837
19990WAT      O60211   2.437   3.534   2.678
19990WAT     H160212   2.469   3.452   2.630
19990WAT     H260213   2.340   3.547   2.660
19991WAT      O60214   8.904   4.579   9.429
19991WAT     H160215   8.922   4.660   9.374
19991WAT     H260216   8.820   4.591   9.481
19992WAT      O60217   7.442   0.073   6.851
19992WAT     H160218   7.355   0.122   6.841
19992WAT     H260219   7.498   0.089   6.770
19993WAT      O60220   7.095   9.157   6.385
19993WAT     H160221   7.092   9.107   6.471
19993WAT     H260222   7.115   9.254   6.403
19994WAT      O60223   8.935   8.989   2.934
19994WAT     H160224   9.010   8.979   2.869
19994WAT     H260225   8.856   8.938   2.901
19995WAT      O60226   2.539   7.555   6.926
19995WAT     H160227   2.562   7.522   7.018
19995WAT     H260228   2.619   7.547   6.867
19996WAT      O60229   4.395   0.646   5.979
19996WAT     H160230   4.387   0.547   5.970
19996WAT     H260231   4.492   0.671   5.984
19997WAT      O60232   2.834   1.226   8.976
19997WAT     H160233   2.901   1.258   8.908
19997WAT     H260234   2.760   1.178   8.930
19998WAT      O60235   7.560   8.579   6.267
19998WAT     H160236   7.650   8.607   6.236
19998WAT     H260237   7.562   8.483   6.294
19999WAT      O60238   4.745   3.019   5.229
19999WAT     H160239   4.751   3.030   5.130
19999WAT     H260240   4.738   3.109   5.272
20000WAT      O60241   3.754   9.690   7.658
20000WAT     H160242   3.809   9.704   7.739
20000WAT     H260243   3.813   9.687   7.577
20001WAT      O60244   8.903   3.466   9.012
20001WAT     H160245   8.983   3.405   9.016
20001WAT     H260246   8.932   3.557   8.982
20002WAT      O60247   9.444   2.711   5.203
20002WAT     H160248   9.373   2.744   5.265
20002WAT     H260249   9.401   2.667   5.124
20003WAT      O60250   1.272   5.658   1.477
20003WAT     H160251   1.335   5.692   1.408
20003WAT     H260252   1.323   5.636   1.560
20004WAT      O60253   1.957   2.371   8.824
20004WAT     H160254   2.052   2.386   8.853
20004WAT     H260255   1.956   2.345   8.728
20005WAT      O60256   8.258   9.637   9.632
20005WAT     H160257   8.288   9.544   9.607
20005WAT     H260258   8.173   9.658   9.584
20006WAT      O60259   6.888   7.038   6.141
20006WAT     H160260   6.925   7.071   6.228
20006WAT     H260261   6.916   6.943   6.127
20007WAT      O60262   1.107   9.548   0.023
20007WAT     H160263   1.168   9.573  -0.053
20007WAT     H260264   1.162   9.510   0.098
20008WAT      O60265   7.711   5.054   7.477
20008WAT     H160266   7.643   5.119   7.444
20008WAT     H260267   7.669   4.963   7.484
20009WAT      O60268   4.621   1.975   3.669
20009WAT     H160269   4.641   2.050   3.607
20009WAT     H260270   4.697   1.962   3.732
20010WAT      O60271   6.094   7.925   6.622
20010WAT     H160272   6.116   7.931   6.720
20010WAT     H260273   6.163   7.870   6.576
20011WAT      O60274   7.372   7.072   2.898
20011WAT     H160275   7.453   7.066   2.956
20011WAT     H260276   7.296   7.023   2.942
20012WAT      O60277   5.740   8.635   1.929
20012WAT     H160278   5.686   8.551   1.926
20012WAT     H260279   5.747   8.674   1.837
20013WAT      O60280   6.586   1.719   0.717
20013WAT     H160281   6.664   1.697   0.659
20013WAT     H260282   6.576   1.649   0.788
20014WAT      O60283   5.803   5.477   8.464
20014WAT     H160284   5.751   5.399   8.500
20014WAT     H260285   5.832   5.458   8.370
20015WAT      O60286   9.714   0.343   2.355
20015WAT     H160287   9.683   0.248   2.351
20015WAT     H260288   9.813   0.346   2.346
20016WAT      O60289   0.899   0.215   3.927
20016WAT     H160290   0.879   0.311   3.948
20016WAT     H260291   0.900   0.202   3.828
20017WAT      O60292   9.777   1.997   9.370
20017WAT     H160293   9.813   2.072   9.314
20017WAT     H260294   9.818   2.001   9.461
20018WAT      O60295   7.284   9.708   3.478
20018WAT     H160296   7.250   9.792   3.437
20018WAT     H260297   7.291   9.637   3.408
20019WAT      O60298   7.663   0.242   2.465
20019WAT     H160299   7.628   0.170   2.406
20019WAT     H260300   7.754   0.216   2.499
20020WAT      O60301   8.505   6.886   4.661
20020WAT     H160302   8.518   6.799   4.709
20020WAT     H260303   8.557   6.957   4.707
20021WAT      O60304   3.371   7.138   5.334
20021WAT     H160305   3.424   7.163   5.253
20021WAT     H260306   3.317   7.217   5.364
20022WAT      O60307   3.016   7.685   7.892
20022WAT     H160308   2.992   7.701   7.988
20022WAT     H260309   3.085   7.751   7.863
20023WAT      O60310   2.342   2.975   0.253
20023WAT     H160311   2.258   3.019   0.221
20023WAT     H260312   2.378   3.025   0.331
20024WAT      O60313   6.305   4.853   6.635
20024WAT     H160314   6.213   4.877   6.606
20024WAT     H260315   6.307   4.756   6.661
20025WAT      O60316   5.731   7.749   4.960
20025WAT     H160317   5.639   7.768   4.926
20025WAT     H260318   5.754   7.813   5.033
20026WAT      O60319   5.204   0.258   6.552
20026WAT     H160320   5.283   0.314   6.574
20026WAT     H260321   5.234   0.167   6.524
20027WAT      O60322   0.573   4.871   6.059
20027WAT     H160323   0.666   4.851   6.029
20027WAT     H260324   0.574   4.901   6.154
20028WAT      O60325   0.455   3.850   5.115
20028WAT     H160326   0.485   3.756   5.131
20028WAT     H260327   0.356   3.856   5.122
20029WAT      O60328   2.169   3.250   6.124
20029WAT     H160329   2.198   3.202   6.041
20029WAT     H260330   2.096   3.313   6.102
20030WAT      O60331   6.030   0.371   0.541
20030WAT     H160332   5.970   0.327   0.607
20030WAT     H260333   6.021   0.470   0.547
20031WAT      O60334   5.301   9.817   3.147
20031WAT     H160335   5.292   9.850   3.241
20031WAT     H260336   5.375   9.866   3.101
20032WAT      O60337   7.104   9.059   8.535
20032WAT     H160338   7.082   9.145   8.489
20032WAT     H260339   7.150   8.998   8.471
20033WAT      O60340   9.826   7.853   9.055
20033WAT     H160341   9.895   7.832   9.123
20033WAT     H260342   9.829   7.951   9.033
20034WAT      O60343   0.352   0.946   1.642
20034WAT     H160344   0.283   0.995   1.587
20034WAT     H260345   0.433   0.928   1.586
20035WAT      O60346   0.892   8.004   6.160
20035WAT     H160347   0.841   8.049   6.087
20035WAT     H260348   0.964   8.065   6.192
20036WAT      O60349   2.532   4.478   6.549
20036WAT     H160350   2.583   4.394   6.531
20036WAT     H260351   2.590   4.541   6.602
20037WAT      O60352   8.121   6.048   5.615
20037WAT     H160353   8.087   6.041   5.708
20037WAT     H260354   8.206   5.996   5.607
20038WAT      O60355   4.783   6.629   0.960
20038WAT     H160356   4.850   6.555   0.966
20038WAT     H260357   4.807   6.702   1.024
20039WAT      O60358   8.264   5.851   4.388
20039WAT     H160359   8.354   5.884   4.419
20039WAT     H260360   8.208   5.930   4.362
20040WAT      O60361   0.168   9.042   7.259
20040WAT     H160362   0.256   9.089   7.272
20040WAT     H260363   0.119   9.084   7.183
20041WAT      O60364   6.903   5.278   4.602
20041WAT     H160365   6.919   5.367   4.644
20041WAT     H260366   6.889   5.210   4.674
20042WAT      O60367   6.444   0.265   0.410
20042WAT     H160368   6.346   0.262   0.392
20042WAT     H260369   6.470   0.189   0.470
20043WAT      O60370   5.871   5.571   8.924
20043WAT     H160371   5.890   5.552   8.827
20043WAT     H260372   5.788   5.626   8.931
20044WAT      O60373   3.973   7.508   8.089
20044WAT     H160374   4.057   7.473   8.049
20044WAT     H260375   3.897   7.492   8.026
20045WAT      O60376   3.219   6.564   9.416
20045WAT     H160377   3.144   6.534   9.475
20045WAT     H260378   3.213   6.663   9.403
20046WAT      O60379   9.793   3.703   4.317
20046WAT     H160380   9.884   3.669   4.339
20046WAT     H260381   9.740   3.712   4.402
20047WAT      O60382   5.663   4.433   3.159
20047WAT     H160383   5.622   4.489   3.086
20047WAT     H260384   5.590   4.395   3.216
20048WAT      O60385   9.840   1.943   8.629
20048WAT     H160386   9.904   1.949   8.705
20048WAT     H260387   9.757   1.995   8.651
20049WAT      O60388   0.475   1.759   8.949
20049WAT     H160389   0.422   1.674   8.949
20049WAT     H260390   0.412   1.837   8.954
20050WAT      O60391   4.859   8.079   8.724
20050WAT     H160392   4.904   8.080   8.635
20050WAT     H260393   4.858   7.986   8.760
20051WAT      O60394   8.400   3.244   0.254
20051WAT     H160395   8.402   3.215   0.159
20051WAT     H260396   8.328   3.195   0.303
20052WAT      O60397   3.813   6.453   6.375
20052WAT     H160398   3.756   6.530   6.402
20052WAT     H260399   3.844   6.466   6.281
20053WAT      O60400   7.514   3.957   1.616
20053WAT     H160401   7.514   3.885   1.685
20053WAT     H260402   7.434   4.016   1.629
20054WAT      O60403   3.745   5.561   2.753
20054WAT     H160404   3.782   5.508   2.677
20054WAT     H260405   3.670   5.619   2.720
20055WAT      O60406   2.008   7.533   2.400
20055WAT     H160407   1.916   7.528   2.361
20055WAT     H260408   2.067   7.468   2.352
20056WAT      O60409   5.991   8.101   2.060
20056WAT     H160410   5.992   8.010   2.103
20056WAT     H260411   6.080   8.145   2.075
20057WAT      O60412   0.871   2.760   8.193
20057WAT     H160413   0.930   2.681   8.213
20057WAT     H260414   0.907   2.808   8.113
20058WAT      O60415   5.086   9.534   0.081
20058WAT     H160416   5.145   9.553   0.003
20058WAT     H260417   5.025   9.611   0.097
20059WAT      O60418   2.324   3.406   0.254
20059WAT     H160419   2.347   3.491   0.301
20059WAT     H260420   2.299   3.336   0.321
20060WAT      O60421   6.617   3.524   4.316
20060WAT     H160422   6.625   3.613   4.361
20060WAT     H260423   6.581   3.538   4.223
20061WAT      O60424   9.005   4.494   2.504
20061WAT     H160425   9.041   4.412   2.547
20061WAT     H260426   9.080   4.548   2.466
20062WAT      O60427   1.446   0.520   2.862
20062WAT     H160428   1.418   0.517   2.766
20062WAT     H260429   1.507   0.443   2.882
20063WAT      O60430   7.718   5.884   2.350
20063WAT     H160431   7.644   5.886   2.283
20063WAT     H260432   7.708   5.804   2.409
20064WAT      O60433   9.419   4.784   0.091
20064WAT     H160434   9.447   4.774  -0.005
20064WAT     H260435   9.457   4.709   0.145
20065WAT      O60436   6.929   9.553   5.737
20065WAT     H160437   6.890   9.517   5.821
20065WAT     H260438   6.966   9.477   5.682
20066WAT      O60439   9.378   3.716   4.425
20066WAT     H160440   9.319   3.634   4.421
20066WAT     H260441   9.341   3.786   4.364
20067WAT      O60442   3.260   1.845   0.929
20067WAT     H160443   3.243   1.754   0.892
20067WAT     H260444   3.275   1.909   0.853
20068WAT      O60445   5.508   6.291   2.444
20068WAT     H160446   5.469   6.353   2.512
20068WAT     H260447   5.501   6.197   2.476
20069WAT      O60448   2.501   4.729   7.097
20069WAT     H160449   2.551   4.773   7.172
20069WAT     H260450   2.565   4.678   7.039
20070WAT      O60451   2.540   7.329   9.083
20070WAT     H160452   2.592   7.343   9.167
20070WAT     H260453   2.602   7.314   9.006
20071WAT      O60454   7.082   5.367   0.030
20071WAT     H160455   7.055   5.330   0.119
20071WAT     H260456   7.002   5.405  -0.016
20072WAT      O60457   9.216   8.712   9.374
20072WAT     H160458   9.298   8.770   9.378
20072WAT     H260459   9.135   8.769   9.379
20073WAT      O60460   2.511   7.041   0.195
20073WAT     H160461   2.575   6.975   0.233
20073WAT     H260462   2.511   7.034   0.095
20074WAT      O60463   6.224   9.830   1.131
20074WAT     H160464   6.224   9.921   1.090
20074WAT     H260465   6.266   9.765   1.069
20075WAT      O60466   4.082   8.694   2.227
20075WAT     H160467   4.144   8.766   2.258
20075WAT     H260468   4.011   8.679   2.295
20076WAT      O60469   9.639   8.890   1.901
20076WAT     H160470   9.738   8.877   1.902
20076WAT     H260471   9.617   8.980   1.864
20077WAT      O60472   2.038   0.093   0.359
20077WAT     H160473   1.986   0.057   0.282
20077WAT     H260474   1.974   0.131   0.426
20078WAT      O60475   4.353   2.864   2.575
20078WAT     H160476   4.447   2.830   2.572
20078WAT     H260477   4.301   2.825   2.499
20079WAT      O60478   1.746   5.544   9.140
20079WAT     H160479   1.713   5.450   9.141
20079WAT     H260480   1.788   5.567   9.228
20080WAT      O60481   5.809   5.650   3.678
20080WAT     H160482   5.810   5.624   3.581
20080WAT     H260483   5.892   5.700   3.700
20081WAT      O60484   0.693   5.092   8.767
20081WAT     H160485   0.692   5.003   8.720
20081WAT     H260486   0.708   5.165   8.700
20082WAT      O60487   1.231   4.349   7.401
20082WAT     H160488   1.226   4.249   7.396
20082WAT     H260489   1.258   4.386   7.312
20083WAT      O60490   1.799   7.756   4.750
20083WAT     H160491   1.892   7.725   4.728
20083WAT     H260492   1.791   7.769   4.849
20084WAT      O60493   5.483   2.628   4.816
20084WAT     H160494   5.538   2.688   4.874
20084WAT     H260495   5.430   2.683   4.751
20085WAT      O60496   6.635   1.532   1.749
20085WAT     H160497   6.579   1.455   1.720
20085WAT     H260498   6.655   1.524   1.847
20086WAT      O60499   4.121   0.670   0.205
20086WAT     H160500   4.031   0.712   0.221
20086WAT     H260501   4.187   0.742   0.183
20087WAT      O60502   2.813   2.013   3.759
20087WAT     H160503   2.836   1.971   3.847
20087WAT     H260504   2.895   2.056   3.720
20088WAT      O60505   3.863   0.628   0.333
20088WAT     H160506   3.825   0.545   0.294
20088WAT     H260507   3.837   0.707   0.277
20089WAT      O60508   9.717   4.445   7.491
20089WAT     H160509   9.642   4.510   7.502
20089WAT     H260510   9.680   4.355   7.469
20090WAT      O60511   9.868   0.556   5.639
20090WAT     H160512   9.943   0.606   5.683
20090WAT     H260513   9.906   0.486   5.579
20091WAT      O60514   3.072   0.950   1.062
20091WAT     H160515   2.987   0.914   1.023
20091WAT     H260516   3.086   0.910   1.152
20092WAT      O60517   3.637   5.843   3.478
20092WAT     H160518   3.651   5.941   3.488
20092WAT     H260519   3.557   5.826   3.421
20093WAT      O60520   9.736   2.332   7.731
20093WAT     H160521   9.761   2.363   7.640
20093WAT     H260522   9.803   2.366   7.797
20094WAT      O60523   4.947   7.956   5.218
20094WAT     H160524   4.899   8.043   5.225
20094WAT     H260525   5.043   7.973   5.197
20095WAT      O60526   4.697   8.065   1.708
20095WAT     H160527   4.677   7.975   1.670
20095WAT     H260528   4.750   8.118   1.642
20096WAT      O60529   5.420   6.490   0.775
20096WAT     H160530   5.514   6.457   0.776
20096WAT     H260531   5.410   6.559   0.703
20097WAT      O60532   5.874   0.909   9.335
20097WAT     H160533   5.826   0.982   9.384
20097WAT     H260534   5.968   0.936   9.318
20098WAT      O60535   0.933   5.257   4.141
20098WAT     H160536   0.856   5.202   4.108
20098WAT     H260537   0.985   5.293   4.063
20099WAT      O60538   7.754   5.288   9.877
20099WAT     H160539   7.680   5.329   9.824
20099WAT     H260540   7.842   5.310   9.836
20100WAT      O60541   7.614   1.896   6.776
20100WAT     H160542   7.518   1.921   6.786
20100WAT     H260543   7.621   1.807   6.732
20101WAT      O60544   8.393   6.885   7.998
20101WAT     H160545   8.448   6.931   7.928
20101WAT     H260546   8.296   6.902   7.981
20102WAT      O60547   6.447   4.000   0.896
20102WAT     H160548   6.374   3.940   0.865
20102WAT     H260549   6.416   4.095   0.890
20103WAT      O60550   4.825   1.336   6.052
20103WAT     H160551   4.848   1.408   6.117
20103WAT     H260552   4.737   1.295   6.078
20104WAT      O60553   0.085   6.366   5.487
20104WAT     H160554   0.165   6.410   5.444
20104WAT     H260555   0.009   6.431   5.490
20105WAT      O60556   7.840   9.360   7.446
20105WAT     H160557   7.857   9.401   7.357
20105WAT     H260558   7.754   9.395   7.483
20106WAT      O60559   4.200   0.181   9.261
20106WAT     H160560   4.261   0.114   9.304
20106WAT     H260561   4.253   0.259   9.227
20107WAT      O60562   0.779   8.067   8.235
20107WAT     H160563   0.761   7.985   8.181
20107WAT     H260564   0.867   8.106   8.208
20108WAT      O60565   5.925   7.197   5.557
20108WAT     H160566   5.933   7.285   5.602
20108WAT     H260567   5.916   7.124   5.625
20109WAT      O60568   7.417   5.193   3.586
20109WAT     H160569   7.356   5.246   3.528
20109WAT     H260570   7.506   5.184   3.541
20110WAT      O60571   3.367   0.189   8.284
20110WAT     H160572   3.387   0.247   8.206
20110WAT     H260573   3.281   0.218   8.326
20111WAT      O60574   2.121   6.619   7.909
20111WAT     H160575   2.158   6.556   7.841
20111WAT     H260576   2.053   6.572   7.965
20112WAT      O60577   1.900   0.105   1.093
20112WAT     H160578   1.939   0.169   1.160
20112WAT     H260579   1.869   0.023   1.141
20113WAT      O60580   2.332   2.907   1.032
20113WAT     H160581   2.267   2.850   1.082
20113WAT     H260582   2.408   2.852   0.999
20114WAT      O60583   0.063   3.509   1.003
20114WAT     H160584   0.009   3.502   1.087
20114WAT     H260585   0.099   3.601   0.994
20115WAT      O60586   6.791   7.293   4.321
20115WAT     H160587   6.855   7.344   4.379
20115WAT     H260588   6.840   7.225   4.268
20116WAT      O60589   1.960   0.055   8.655
20116WAT     H160590   1.996   0.096   8.572
20116WAT     H260591   1.960   0.122   8.729
20117WAT      O60592   5.713   8.893   5.735
20117WAT     H160593   5.765   8.937   5.662
20117WAT     H260594   5.762   8.901   5.821
20118WAT      O60595   1.509   8.066   6.997
20118WAT     H160596   1.528   8.036   7.090
20118WAT     H260597   1.491   8.164   6.996
20119WAT      O60598   7.894   4.491   6.022
20119WAT     H160599   7.858   4.457   5.935
20119WAT     H260600   7.971   4.554   6.004
20120WAT      O60601   7.065   3.014   8.632
20120WAT     H160602   7.021   3.103   8.642
20120WAT     H260603   7.151   3.024   8.582
20121WAT      O60604   6.469   7.380   6.022
20121WAT     H160605   6.509   7.300   6.067
20121WAT     H260606   6.399   7.420   6.082
20122WAT      O60607   9.296   9.453   6.122
20122WAT     H160608   9.336   9.509   6.049
20122WAT     H260609   9.323   9.358   6.110
20123WAT      O60610   0.341   4.436   8.565
20123WAT     H160611   0.257   4.463   8.517
20123WAT     H260612   0.320   4.416   8.660
20124WAT      O60613   9.620   5.955   9.406
20124WAT     H160614   9.642   5.987   9.314
20124WAT     H260615   9.701   5.916   9.449
20125WAT      O60616   7.116   6.343   2.182
20125WAT     H160617   7.092   6.360   2.278
20125WAT     H260618   7.136   6.246   2.170
20126WAT      O60619   8.085   8.150   7.151
20126WAT     H160620   8.120   8.225   7.208
20126WAT     H260621   8.086   8.065   7.203
20127WAT      O60622   1.818   3.052   7.603
20127WAT     H160623   1.778   3.086   7.688
20127WAT     H260624   1.764   2.975   7.569
20128WAT      O60625   9.576   7.930   3.866
20128WAT     H160626   9.543   7.877   3.787
20128WAT     H260627   9.502   7.938   3.933
20129WAT      O60628   1.831   4.928   4.843
20129WAT     H160629   1.926   4.931   4.812
20129WAT     H260630   1.786   4.848   4.804
20130WAT      O60631   4.500   4.527   3.444
20130WAT     H160632   4.463   4.457   3.383
20130WAT     H260633   4.540   4.484   3.524
20131WAT      O60634   6.784   9.316   8.732
20131WAT     H160635   6.864   9.369   8.763
20131WAT     H260636   6.710   9.378   8.708
20132WAT      O60637   0.779   2.953   4.220
20132WAT     H160638   0.839   2.970   4.142
20132WAT     H260639   0.708   2.888   4.193
20133WAT      O60640   6.371   4.371   7.829
20133WAT     H160641   6.351   4.275   7.810
20133WAT     H260642   6.402   4.380   7.923
20134WAT      O60643   9.710   9.081   4.629
20134WAT     H160644   9.680   8.986   4.618
20134WAT     H260645   9.795   9.095   4.577
20135WAT      O60646   2.622   4.555   7.832
20135WAT     H160647   2.671   4.636   7.866
20135WAT     H260648   2.688   4.490   7.793
20136WAT      O60649   5.946   4.389   9.305
20136WAT     H160650   5.927   4.470   9.249
20136WAT     H260651   6.032   4.403   9.354
20137WAT      O60652   2.616   7.942   4.675
20137WAT     H160653   2.671   8.017   4.638
20137WAT     H260654   2.577   7.888   4.601
20138WAT      O60655   5.904   5.443   8.202
20138WAT     H160656   5.874   5.497   8.122
20138WAT     H260657   5.939   5.355   8.171
20139WAT      O60658   7.191   6.440   7.230
20139WAT     H160659   7.107   6.399   7.194
20139WAT     H260660   7.189   6.437   7.330
20140WAT      O60661   6.940   6.338   7.143
20140WAT     H160662   6.887   6.320   7.226
20140WAT     H260663   6.907   6.278   7.069
20141WAT      O60664   6.776   1.716   6.526
20141WAT     H160665   6.765   1.809   6.492
20141WAT     H260666   6.695   1.690   6.579
20142WAT      O60667   6.606   1.698   3.645
20142WAT     H160668   6.630   1.622   3.706
20142WAT     H260669   6.588   1.663   3.553
20143WAT      O60670   7.440   6.496   1.403
20143WAT     H160671   7.473   6.566   1.340
20143WAT     H260672   7.475   6.406   1.375
20144WAT      O60673   5.575   8.553   0.946
20144WAT     H160674   5.527   8.617   1.006
20144WAT     H260675   5.662   8.527   0.987
20145WAT      O60676   3.006   9.294   1.785
20145WAT     H160677   2.975   9.309   1.691
20145WAT     H260678   3.102   9.321   1.793
20146WAT      O60679   9.179   3.178   9.437
20146WAT     H160680   9.134   3.263   9.463
20146WAT     H260681   9.113   3.103   9.438
20147WAT      O60682   9.044   1.503   2.740
20147WAT     H160683   9.086   1.574   2.683
20147WAT     H260684   9.115   1.452   2.788
20148WAT      O60685   6.505   7.869   7.001
20148WAT     H160686   6.552   7.791   6.959
20148WAT     H260687   6.484   7.936   6.930
20149WAT      O60688   0.268   5.969   2.095
20149WAT     H160689   0.190   5.962   2.033
20149WAT     H260690   0.353   5.960   2.042
20150WAT      O60691   6.866   0.603   5.124
20150WAT     H160692   6.925   0.652   5.188
20150WAT     H260693   6.901   0.616   5.031
20151WAT      O60694   8.212   0.703   9.560
20151WAT     H160695   8.250   0.780   9.509
20151WAT     H260696   8.272   0.623   9.548
20152WAT      O60697   0.025   6.416   9.825
20152WAT     H160698   0.108   6.465   9.852
20152WAT     H260699   0.049   6.339   9.766
20153WAT      O60700   9.205   8.472   4.530
20153WAT     H160701   9.184   8.421   4.447
20153WAT     H260702   9.269   8.419   4.586
20154WAT      O60703   6.078   1.240   6.059
20154WAT     H160704   6.014   1.292   6.115
20154WAT     H260705   6.115   1.299   5.987
20155WAT      O60706   0.889   8.443   0.091
20155WAT     H160707   0.860   8.384   0.015
20155WAT     H260708   0.957   8.509   0.058
20156WAT      O60709   0.878   0.679   4.088
20156WAT     H160710   0.828   0.763   4.067
20156WAT     H260711   0.882   0.622   4.006
20157WAT      O60712   4.108   3.825   3.248
20157WAT     H160713   4.187   3.817   3.187
20157WAT     H260714   4.085   3.922   3.260
20158WAT      O60715   9.439   0.537   9.867
20158WAT     H160716   9.395   0.506   9.782
20158WAT     H260717   9.378   0.519   9.944
20159WAT      O60718   8.936   0.733   4.594
20159WAT     H160719   8.839   0.744   4.617
20159WAT     H260720   8.950   0.644   4.551
20160WAT      O60721   7.370   0.226   1.936
20160WAT     H160722   7.467   0.249   1.935
20160WAT     H260723   7.358   0.134   1.973
20161WAT      O60724   9.654   0.567   3.431
20161WAT     H160725   9.656   0.661   3.468
20161WAT     H260726   9.736   0.552   3.376
20162WAT      O60727   5.521   1.641   9.771
20162WAT     H160728   5.428   1.606   9.760
20162WAT     H260729   5.525   1.696   9.855
20163WAT      O60730   8.265   8.331   6.604
20163WAT     H160731   8.224   8.334   6.513
20163WAT     H260732   8.200   8.292   6.669
20164WAT      O60733   3.356   9.231   7.000
20164WAT     H160734   3.290   9.215   7.074
20164WAT     H260735   3.321   9.191   6.915
20165WAT      O60736   4.583   2.883   4.706
20165WAT     H160737   4.566   2.854   4.612
20165WAT     H260738   4.519   2.838   4.768
20166WAT      O60739   9.618   0.975   6.183
20166WAT     H160740   9.706   0.992   6.140
20166WAT     H260741   9.545   0.982   6.115
20167WAT      O60742   5.662   2.754   2.933
20167WAT     H160743   5.578   2.785   2.977
20167WAT     H260744   5.683   2.661   2.964
20168WAT      O60745   5.958   6.153   8.120
20168WAT     H160746   6.040   6.192   8.078
20168WAT     H260747   5.894   6.227   8.143
20169WAT      O60748   8.987   4.522   7.660
20169WAT     H160749   8.997   4.515   7.561
20169WAT     H260750   8.958   4.433   7.697
20170WAT      O60751   5.595   6.808   9.792
20170WAT     H160752   5.666   6.760   9.741
20170WAT     H260753   5.549   6.873   9.732
20171WAT      O60754   4.170   5.993   0.718
20171WAT     H160755   4.117   5.923   0.766
20171WAT     H260756   4.194   5.961   0.627
20172WAT      O60757   7.538   0.767   8.538
20172WAT     H160758   7.457   0.825   8.533
20172WAT     H260759   7.563   0.755   8.634
20173WAT      O60760   1.527   3.332   1.056
20173WAT     H160761   1.600   3.298   1.115
20173WAT     H260762   1.532   3.432   1.050
20174WAT      O60763   9.148   5.858   6.759
20174WAT     H160764   9.125   5.768   6.721
20174WAT     H260765   9.079   5.924   6.732
20175WAT      O60766   8.710   6.107   2.078
20175WAT     H160767   8.686   6.191   2.126
20175WAT     H260768   8.780   6.058   2.129
20176WAT      O60769   0.132   7.989   8.519
20176WAT     H160770   0.228   7.995   8.545
20176WAT     H260771   0.080   7.950   8.595
20177WAT      O60772   4.464   0.869   4.035
20177WAT     H160773   4.448   0.847   3.939
20177WAT     H260774   4.560   0.852   4.058
20178WAT      O60775   7.707   3.995   5.235
20178WAT     H160776   7.630   3.937   5.208
20178WAT     H260777   7.762   4.017   5.154
20179WAT      O60778   0.243   5.156   1.675
20179WAT     H160779   0.188   5.221   1.727
20179WAT     H260780   0.223   5.165   1.577
20180WAT      O60781   8.946   5.523   8.135
20180WAT     H160782   9.044   5.540   8.127
20180WAT     H260783   8.906   5.590   8.197
20181WAT      O60784   2.925   9.190   3.527
20181WAT     H160785   2.849   9.157   3.582
20181WAT     H260786   2.976   9.259   3.578
20182WAT      O60787   8.554   0.296   1.835
20182WAT     H160788   8.582   0.376   1.889
20182WAT     H260789   8.574   0.313   1.739
20183WAT      O60790   1.716   1.208   2.898
20183WAT     H160791   1.769   1.223   2.982
20183WAT     H260792   1.708   1.110   2.881
20184WAT      O60793   1.092   6.291   0.927
20184WAT     H160794   1.009   6.291   0.871
20184WAT     H260795   1.130   6.198   0.929
20185WAT      O60796   7.256   7.235   7.226
20185WAT     H160797   7.181   7.277   7.276
20185WAT     H260798   7.310   7.177   7.288
20186WAT      O60799   2.298   3.686   0.386
20186WAT     H160800   2.246   3.754   0.334
20186WAT     H260801   2.269   3.687   0.481
20187WAT      O60802   0.201   9.106   9.478
20187WAT     H160803   0.219   9.020   9.429
20187WAT     H260804   0.260   9.178   9.440
20188WAT      O60805   8.695   7.039   6.248
20188WAT     H160806   8.602   7.075   6.253
20188WAT     H260807   8.708   6.971   6.320
20189WAT      O60808   9.074   8.611   1.479
20189WAT     H160809   9.075   8.693   1.536
20189WAT     H260810   9.081   8.530   1.536
20190WAT      O60811   4.145   7.683   2.634
20190WAT     H160812   4.232   7.718   2.667
20190WAT     H260813   4.140   7.584   2.652
20191WAT      O60814   7.321   3.330   2.022
20191WAT     H160815   7.300   3.425   2.044
20191WAT     H260816   7.395   3.326   1.954
20192WAT      O60817   3.150   8.690   5.980
20192WAT     H160818   3.124   8.786   5.970
20192WAT     H260819   3.157   8.648   5.889
20193WAT      O60820   5.908   9.642   8.360
20193WAT     H160821   5.819   9.596   8.356
20193WAT     H260822   5.931   9.660   8.456
20194WAT      O60823   5.775   0.631   3.583
20194WAT     H160824   5.724   0.568   3.523
20194WAT     H260825   5.822   0.578   3.654
20195WAT      O60826   0.357   1.564   1.822
20195WAT     H160827   0.270   1.614   1.820
20195WAT     H260828   0.374   1.532   1.915
20196WAT      O60829   8.915   8.354   7.848
20196WAT     H160830   8.979   8.317   7.916
20196WAT     H260831   8.947   8.443   7.817
20197WAT      O60832   5.716   9.577   2.157
20197WAT     H160833   5.660   9.657   2.180
20197WAT     H260834   5.813   9.603   2.157
20198WAT      O60835   5.681   8.966   6.484
20198WAT     H160836   5.601   8.926   6.528
20198WAT     H260837   5.720   9.037   6.543
20199WAT      O60838   1.585   6.569   0.263
20199WAT     H160839   1.585   6.523   0.174
20199WAT     H260840   1.523   6.647   0.260
20200WAT      O60841   6.621   2.765   1.893
20200WAT     H160842   6.588   2.687   1.839
20200WAT     H260843   6.564   2.844   1.874
20201WAT      O60844   1.467   9.080   8.635
20201WAT     H160845   1.389   9.143   8.631
20201WAT     H260846   1.454   9.016   8.710
20202WAT      O60847   6.419   2.566   7.710
20202WAT     H160848   6.380   2.611   7.629
20202WAT     H260849   6.449   2.635   7.775
20203WAT      O60850   7.029   5.429   6.717
20203WAT     H160851   7.108   5.367   6.721
20203WAT     H260852   6.947   5.376   6.695
20204WAT      O60853   1.158   3.770   1.001
20204WAT     H160854   1.064   3.777   0.967
20204WAT     H260855   1.202   3.859   0.995
20205WAT      O60856   3.881   7.806   3.627
20205WAT     H160857   3.812   7.786   3.557
20205WAT     H260858   3.847   7.776   3.716
20206WAT      O60859   5.823   9.131   7.937
20206WAT     H160860   5.804   9.228   7.954
20206WAT     H260861   5.921   9.115   7.946
20207WAT      O60862   2.466   0.970   7.205
20207WAT     H160863   2.499   0.942   7.295
20207WAT     H260864   2.395   1.039   7.216
20208WAT      O60865   8.988   7.404   3.469
20208WAT     H160866   9.034   7.484   3.428
20208WAT     H260867   8.924   7.366   3.403
20209WAT      O60868   1.846   5.100   3.183
20209WAT     H160869   1.934   5.101   3.135
20209WAT     H260870   1.777   5.055   3.126
20210WAT      O60871   8.557   3.566   1.836
20210WAT     H160872   8.634   3.505   1.817
20210WAT     H260873   8.590   3.660   1.843
20211WAT      O60874   4.533   1.252   1.312
20211WAT     H160875   4.590   1.326   1.277
20211WAT     H260876   4.575   1.212   1.393
20212WAT      O60877   5.480   7.445   4.714
20212WAT     H160878   5.461   7.536   4.675
20212WAT     H260879   5.548   7.454   4.786
20213WAT      O60880   9.158   4.706   9.175
20213WAT     H160881   9.105   4.776   9.128
20213WAT     H260882   9.225   4.750   9.235
20214WAT      O60883   7.263   2.630   5.625
20214WAT     H160884   7.209   2.587   5.554
20214WAT     H260885   7.203   2.665   5.697
20215WAT      O60886   8.326   5.985   0.870
20215WAT     H160887   8.292   6.021   0.784
20215WAT     H260888   8.256   5.995   0.941
20216WAT      O60889   4.169   1.359   9.320
20216WAT     H160890   4.098   1.289   9.321
20216WAT     H260891   4.155   1.419   9.240
20217WAT      O60892   6.796   6.507   5.514
20217WAT     H160893   6.845   6.419   5.517
20217WAT     H260894   6.757   6.520   5.423
20218WAT      O60895   6.340   3.829   2.464
20218WAT     H160896   6.262   3.768   2.482
20218WAT     H260897   6.360   3.829   2.366
20219WAT      O60898   2.836   2.950   1.819
20219WAT     H160899   2.897   3.012   1.770
20219WAT     H260900   2.742   2.982   1.810
20220WAT      O60901   3.753   8.224   3.237
20220WAT     H160902   3.825   8.293   3.235
20220WAT     H260903   3.791   8.137   3.269
20221WAT      O60904   9.806   5.713   2.664
20221WAT     H160905   9.840   5.679   2.576
20221WAT     H260906   9.878   5.702   2.733
20222WAT      O60907   5.510   9.253   7.109
20222WAT     H160908   5.425   9.292   7.073
20222WAT     H260909   5.587   9.311   7.084
20223WAT      O60910   9.044   7.389   6.169
20223WAT     H160911   8.976   7.443   6.219
20223WAT     H260912   9.133   7.433   6.174
20224WAT      O60913   7.205   8.017   2.075
20224WAT     H160914   7.163   7.927   2.069
20224WAT     H260915   7.154   8.075   2.139
20225WAT      O60916   5.555   2.534   6.157
20225WAT     H160917   5.624   2.581   6.212
20225WAT     H260918   5.590   2.445   6.128
20226WAT      O60919   9.678   3.386   9.694
20226WAT     H160920   9.777   3.372   9.697
20226WAT     H260921   9.656   3.446   9.618
20227WAT      O60922   0.655   1.303   8.328
20227WAT     H160923   0.614   1.394   8.333
20227WAT     H260924   0.582   1.234   8.328
20228WAT      O60925   8.473   2.016   1.840
20228WAT     H160926   8.405   1.947   1.865
20228WAT     H260927   8.543   1.974   1.781
20229WAT      O60928   1.853   2.510   1.266
20229WAT     H160929   1.897   2.464   1.189
20229WAT     H260930   1.754   2.508   1.254
20230WAT      O60931   5.859   2.427   4.965
20230WAT     H160932   5.851   2.527   4.969
20230WAT     H260933   5.932   2.402   4.901
20231WAT      O60934   7.356   6.710   2.717
20231WAT     H160935   7.324   6.633   2.661
20231WAT     H260936   7.451   6.730   2.694
20232WAT      O60937   8.210   9.818   7.819
20232WAT     H160938   8.235   9.914   7.811
20232WAT     H260939   8.291   9.760   7.811
20233WAT      O60940   1.284   3.547   7.246
20233WAT     H160941   1.339   3.630   7.245
20233WAT     H260942   1.252   3.527   7.153
20234WAT      O60943   7.872   6.073   4.858
20234WAT     H160944   7.872   5.988   4.911
20234WAT     H260945   7.805   6.067   4.784
20235WAT      O60946   6.633   8.672   0.804
20235WAT     H160947   6.620   8.644   0.708
20235WAT     H260948   6.613   8.594   0.864
20236WAT      O60949   4.739   7.465   0.517
20236WAT     H160950   4.668   7.450   0.449
20236WAT     H260951   4.780   7.377   0.542
20237WAT      O60952   2.264   7.381   1.759
20237WAT     H160953   2.318   7.365   1.842
20237WAT     H260954   2.180   7.430   1.783
20238WAT      O60955   5.095   5.205   6.886
20238WAT     H160956   5.040   5.213   6.803
20238WAT     H260957   5.100   5.294   6.931
20239WAT      O60958   2.441   6.626   2.209
20239WAT     H160959   2.372   6.565   2.171
20239WAT     H260960   2.512   6.573   2.255
20240WAT      O60961   6.793   1.745   6.097
20240WAT     H160962   6.811   1.821   6.034
20240WAT     H260963   6.836   1.662   6.061
20241WAT      O60964   0.971   5.584   7.896
20241WAT     H160965   0.926   5.565   7.983
20241WAT     H260966   0.903   5.582   7.823
20242WAT      O60967   6.522   3.278   7.316
20242WAT     H160968   6.530   3.181   7.293
20242WAT     H260969   6.565   3.333   7.244
20243WAT      O60970   6.118   6.012   2.162
20243WAT     H160971   6.028   6.056   2.159
20243WAT     H260972   6.172   6.041   2.083
20244WAT      O60973   0.131   5.974   5.454
20244WAT     H160974   0.180   6.060   5.435
20244WAT     H260975   0.034   5.993   5.464
20245WAT      O60976   0.637   7.692   5.397
20245WAT     H160977   0.636   7.662   5.302
20245WAT     H260978   0.692   7.628   5.451
20246WAT      O60979   5.596   5.413   1.109
20246WAT     H160980   5.517   5.374   1.062
20246WAT     H260981   5.666   5.342   1.120
20247WAT      O60982   5.325   0.693   9.389
20247WAT     H160983   5.242   0.730   9.349
20247WAT     H260984   5.401   0.757   9.375
20248WAT      O60985   8.828   3.042   4.742
20248WAT     H160986   8.816   3.026   4.840
20248WAT     H260987   8.754   3.101   4.709
20249WAT      O60988   1.841   3.739   5.130
20249WAT     H160989   1.895   3.801   5.187
20249WAT     H260990   1.862   3.645   5.155
20250WAT      O60991   6.904   8.833   3.378
20250WAT     H160992   6.888   8.893   3.456
20250WAT     H260993   6.834   8.762   3.376
20251WAT      O60994   7.989   8.872   0.913
20251WAT     H160995   7.898   8.850   0.948
20251WAT     H260996   7.981   8.925   0.828
20252WAT      O60997   3.588   5.509   1.516
20252WAT     H160998   3.539   5.523   1.603
20252WAT     H260999   3.663   5.575   1.509
20253WAT      O61000   0.918   6.604   9.554
20253WAT     H161001   0.978   6.548   9.612
20253WAT     H261002   0.941   6.700   9.566
20254WAT      O61003   1.843   7.872   9.439
20254WAT     H161004   1.751   7.876   9.477
20254WAT     H261005   1.860   7.953   9.383
20255WAT      O61006   1.536   2.786   5.712
20255WAT     H161007   1.486   2.735   5.643
20255WAT     H261008   1.475   2.808   5.788
20256WAT      O61009   6.095   2.452   1.876
20256WAT     H161010   6.118   2.460   1.780
20256WAT     H261011   6.034   2.373   1.890
20257WAT      O61012   8.634   5.537   1.087
20257WAT     H161013   8.717   5.594   1.088
20257WAT     H261014   8.597   5.530   1.179
20258WAT      O61015   0.176   0.175   4.431
20258WAT     H161016   0.142   0.268   4.438
20258WAT     H261017   0.098   0.112   4.425
20259WAT      O61018   2.719   3.775   2.355
20259WAT     H161019   2.633   3.723   2.357
20259WAT     H261020   2.789   3.721   2.308
20260WAT      O61021   5.980   8.743   3.627
20260WAT     H161022   5.942   8.653   3.649
20260WAT     H261023   5.906   8.807   3.609
20261WAT      O61024   1.233   0.332   0.738
20261WAT     H161025   1.321   0.342   0.784
20261WAT     H261026   1.179   0.260   0.782
20262WAT      O61027   3.509   7.603   8.990
20262WAT     H161028   3.417   7.574   8.963
20262WAT     H261029   3.515   7.703   8.985
20263WAT      O61030   1.924   4.085   9.802
20263WAT     H161031   1.826   4.071   9.789
20263WAT     H261032   1.942   4.102   9.899
20264WAT      O61033   8.889   0.453   2.508
20264WAT     H161034   8.843   0.491   2.588
20264WAT     H261035   8.853   0.363   2.487
20265WAT      O61036   8.125   8.217   2.276
20265WAT     H161037   8.089   8.147   2.337
20265WAT     H261038   8.055   8.242   2.208
20266WAT      O61039   7.546   4.135   4.810
20266WAT     H161040   7.640   4.113   4.785
20266WAT     H261041   7.544   4.164   4.906
20267WAT      O61042   1.200   5.375   7.934
20267WAT     H161043   1.219   5.335   8.024
20267WAT     H261044   1.134   5.449   7.943
20268WAT      O61045   7.106   6.987   9.744
20268WAT     H161046   7.154   6.985   9.832
20268WAT     H261047   7.028   7.049   9.751
20269WAT      O61048   6.191   5.540   4.119
20269WAT     H161049   6.251   5.611   4.081
20269WAT     H261050   6.235   5.451   4.112
20270WAT      O61051   0.574   9.224   3.094
20270WAT     H161052   0.641   9.170   3.144
20270WAT     H261053   0.616   9.259   3.009
20271WAT      O61054   2.166   7.047   5.502
20271WAT     H161055   2.261   7.052   5.471
20271WAT     H261056   2.126   7.138   5.500
20272WAT      O61057   4.343   4.939   4.199
20272WAT     H161058   4.416   4.927   4.131
20272WAT     H261059   4.354   4.870   4.271
20273WAT      O61060   4.993   2.866   7.146
20273WAT     H161061   5.076   2.879   7.200
20273WAT     H261062   4.988   2.937   7.076
20274WAT      O61063   7.280   0.540   4.910
20274WAT     H161064   7.336   0.540   4.828
20274WAT     H261065   7.339   0.540   4.991
20275WAT      O61066   5.329   3.339   1.931
20275WAT     H161067   5.313   3.243   1.908
20275WAT     H261068   5.426   3.361   1.920
20276WAT      O61069   9.161   0.626   1.037
20276WAT     H161070   9.215   0.542   1.036
20276WAT     H261071   9.068   0.605   1.066
20277WAT      O61072   8.750   1.985   4.002
20277WAT     H161073   8.815   2.058   4.022
20277WAT     H261074   8.659   2.012   4.035
20278WAT      O61075   8.914   4.603   8.738
20278WAT     H161076   8.873   4.624   8.650
20278WAT     H261077   8.992   4.664   8.754
20279WAT      O61078   1.054   3.277   6.270
20279WAT     H161079   1.013   3.223   6.343
20279WAT     H261080   1.086   3.216   6.198
20280WAT      O61081   3.505   9.696   3.595
20280WAT     H161082   3.431   9.628   3.595
20280WAT     H261083   3.572   9.672   3.525
20281WAT      O61084   2.636   0.458   1.386
20281WAT     H161085   2.650   0.472   1.484
20281WAT     H261086   2.655   0.543   1.337
20282WAT      O61087   7.823   1.401   7.616
20282WAT     H161088   7.895   1.355   7.668
20282WAT     H261089   7.824   1.369   7.521
20283WAT      O61090   7.774   6.506   5.218
20283WAT     H161091   7.754   6.582   5.156
20283WAT     H261092   7.693   6.448   5.226
20284WAT      O61093   0.570   0.132   6.627
20284WAT     H161094   0.539   0.128   6.532
20284WAT     H261095   0.552   0.044   6.671
20285WAT      O61096   5.391   2.248   3.849
20285WAT     H161097   5.477   2.263   3.800
20285WAT     H261098   5.375   2.322   3.914
20286WAT      O61099   0.171   8.899   5.438
20286WAT     H161100   0.204   8.917   5.530
20286WAT     H261101   0.076   8.867   5.443
20287WAT      O61102   5.347   9.132   0.287
20287WAT     H161103   5.314   9.094   0.373
20287WAT     H261104   5.287   9.207   0.259
20288WAT      O61105   3.126   3.309   8.520
20288WAT     H161106   3.069   3.229   8.537
20288WAT     H261107   3.212   3.300   8.569
20289WAT      O61108   4.018   5.355   7.376
20289WAT     H161109   3.986   5.274   7.328
20289WAT     H261110   4.098   5.392   7.329
20290WAT      O61111   9.624   5.412   0.813
20290WAT     H161112   9.589   5.479   0.879
20290WAT     H261113   9.612   5.320   0.850
20291WAT      O61114   7.170   5.968   7.793
20291WAT     H161115   7.155   6.019   7.877
20291WAT     H261116   7.199   5.875   7.815
20292WAT      O61117   6.748   8.020   6.398
20292WAT     H161118   6.693   7.972   6.330
20292WAT     H261119   6.764   7.960   6.476
20293WAT      O61120   4.104   9.340   7.535
20293WAT     H161121   4.129   9.289   7.618
20293WAT     H261122   4.005   9.341   7.525
20294WAT      O61123   7.735   7.249   3.097
20294WAT     H161124   7.689   7.160   3.089
20294WAT     H261125   7.722   7.285   3.189
20295WAT      O61126   3.195   2.715   3.811
20295WAT     H161127   3.144   2.653   3.870
20295WAT     H261128   3.195   2.807   3.850
20296WAT      O61129   7.513   4.617   7.185
20296WAT     H161130   7.547   4.682   7.117
20296WAT     H261131   7.591   4.578   7.235
20297WAT      O61132   4.129   5.021   5.777
20297WAT     H161133   4.216   4.980   5.802
20297WAT     H261134   4.141   5.118   5.759
20298WAT      O61135   3.864   5.942   2.220
20298WAT     H161136   3.963   5.938   2.236
20298WAT     H261137   3.844   5.918   2.125
20299WAT      O61138   6.932   5.290   1.546
20299WAT     H161139   6.978   5.219   1.493
20299WAT     H261140   6.987   5.312   1.626
20300WAT      O61141   7.462   2.772   8.209
20300WAT     H161142   7.524   2.696   8.187
20300WAT     H261143   7.375   2.735   8.241
20301WAT      O61144   9.585   7.368   7.325
20301WAT     H161145   9.569   7.392   7.230
20301WAT     H261146   9.642   7.437   7.368
20302WAT      O61147   3.206   0.744   3.909
20302WAT     H161148   3.288   0.702   3.949
20302WAT     H261149   3.234   0.816   3.845
20303WAT      O61150   3.386   9.794   9.861
20303WAT     H161151   3.454   9.866   9.850
20303WAT     H261152   3.429   9.712   9.899
20304WAT      O61153   3.386   9.724   7.506
20304WAT     H161154   3.451   9.769   7.567
20304WAT     H261155   3.293   9.753   7.530
20305WAT      O61156   6.809   1.071   8.897
20305WAT     H161157   6.899   1.041   8.866
20305WAT     H261158   6.767   1.129   8.827
20306WAT      O61159   8.806   4.686   3.532
20306WAT     H161160   8.819   4.780   3.502
20306WAT     H261161   8.714   4.656   3.509
20307WAT      O61162   9.247   5.991   0.853
20307WAT     H161163   9.215   5.937   0.776
20307WAT     H261164   9.237   6.088   0.832
20308WAT      O61165   8.352   9.486   8.652
20308WAT     H161166   8.355   9.547   8.573
20308WAT     H261167   8.425   9.509   8.716
20309WAT      O61168   8.517   9.540   5.488
20309WAT     H161169   8.479   9.558   5.397
20309WAT     H261170   8.443   9.529   5.554
20310WAT      O61171   3.355   3.590   6.289
20310WAT     H161172   3.400   3.573   6.201
20310WAT     H261173   3.264   3.548   6.288
20311WAT      O61174   5.415   0.046   4.225
20311WAT     H161175   5.438   0.020   4.319
20311WAT     H261176   5.322   0.015   4.203
20312WAT      O61177   0.291   1.542   0.207
20312WAT     H161178   0.236   1.622   0.182
20312WAT     H261179   0.355   1.566   0.279
20313WAT      O61180   5.980   6.943   1.840
20313WAT     H161181   5.954   7.039   1.835
20313WAT     H261182   6.069   6.930   1.796
20314WAT      O61183   7.451   6.210   2.336
20314WAT     H161184   7.430   6.305   2.358
20314WAT     H261185   7.494   6.167   2.415
20315WAT      O61186   9.579   8.323   7.931
20315WAT     H161187   9.640   8.255   7.890
20315WAT     H261188   9.616   8.352   8.019
20316WAT      O61189   7.150   7.737   2.011
20316WAT     H161190   7.149   7.717   2.109
20316WAT     H261191   7.236   7.705   1.971
20317WAT      O61192   4.854   6.199   5.434
20317WAT     H161193   4.814   6.183   5.524
20317WAT     H261194   4.912   6.121   5.409
20318WAT      O61195   5.857   9.064   0.659
20318WAT     H161196   5.856   8.970   0.695
20318WAT     H261197   5.940   9.078   0.605
20319WAT      O61198   0.121   6.828   4.318
20319WAT     H161199   0.065   6.874   4.250
20319WAT     H261200   0.071   6.748   4.354
20320WAT      O61201   6.569   9.778   3.946
20320WAT     H161202   6.576   9.681   3.968
20320WAT     H261203   6.659   9.821   3.956
20321WAT      O61204   2.179   2.699   1.145
20321WAT     H161205   2.252   2.665   1.205
20321WAT     H261206   2.101   2.727   1.201
20322WAT      O61207   0.307   5.061   2.072
20322WAT     H161208   0.297   5.004   1.990
20322WAT     H261209   0.218   5.098   2.098
20323WAT      O61210   8.463   0.211   3.898
20323WAT     H161211   8.558   0.225   3.870
20323WAT     H261212   8.415   0.159   3.827
20324WAT      O61213   0.848   6.949   3.141
20324WAT     H161214   0.755   6.923   3.117
20324WAT     H261215   0.890   6.878   3.196
20325WAT      O61216   7.902   1.418   2.430
20325WAT     H161217   7.954   1.348   2.480
20325WAT     H261218   7.836   1.460   2.491
20326WAT      O61219   7.930   6.436   9.529
20326WAT     H161220   7.858   6.377   9.494
20326WAT     H261221   7.911   6.459   9.625
20327WAT      O61222   3.641   9.312   2.651
20327WAT     H161223   3.722   9.347   2.697
20327WAT     H261224   3.663   9.225   2.607
20328WAT      O61225   6.232   1.560   5.349
20328WAT     H161226   6.166   1.516   5.289
20328WAT     H261227   6.185   1.591   5.432
20329WAT      O61228   0.839   5.291   9.871
20329WAT     H161229   0.806   5.278   9.964
20329WAT     H261230   0.811   5.214   9.815
20330WAT      O61231   4.556   3.999   4.183
20330WAT     H161232   4.469   3.961   4.153
20330WAT     H261233   4.568   4.090   4.145
20331WAT      O61234   7.066   4.009   9.448
20331WAT     H161235   7.093   4.103   9.431
20331WAT     H261236   7.041   3.998   9.544
20332WAT      O61237   8.426   4.310   8.875
20332WAT     H161238   8.401   4.397   8.916
20332WAT     H261239   8.526   4.303   8.869
20333WAT      O61240   8.293   9.133   1.227
20333WAT     H161241   8.281   9.200   1.155
20333WAT     H261242   8.206   9.089   1.247
20334WAT      O61243   5.966   2.816   4.117
20334WAT     H161244   6.019   2.897   4.141
20334WAT     H261245   5.989   2.787   4.025
20335WAT      O61246   8.293   3.866   5.693
20335WAT     H161247   8.267   3.826   5.605
20335WAT     H261248   8.387   3.838   5.715
20336WAT      O61249   1.142   1.791   9.707
20336WAT     H161250   1.224   1.811   9.653
20336WAT     H261251   1.089   1.720   9.661
20337WAT      O61252   4.862   7.058   9.037
20337WAT     H161253   4.955   7.094   9.047
20337WAT     H261254   4.799   7.134   9.017
20338WAT      O61255   8.240   0.445   1.905
20338WAT     H161256   8.239   0.403   1.814
20338WAT     H261257   8.248   0.373   1.974
20339WAT      O61258   8.154   3.630   4.022
20339WAT     H161259   8.120   3.572   4.096
20339WAT     H261260   8.250   3.653   4.039
20340WAT      O61261   0.741   5.883   7.685
20340WAT     H161262   0.735   5.899   7.587
20340WAT     H261263   0.741   5.784   7.702
20341WAT      O61264   1.841   8.333   2.376
20341WAT     H161265   1.919   8.277   2.347
20341WAT     H261266   1.844   8.422   2.329
20342WAT      O61267   3.421   7.814   5.795
20342WAT     H161268   3.440   7.756   5.716
20342WAT     H261269   3.322   7.820   5.809
20343WAT      O61270   3.412   2.652   9.192
20343WAT     H161271   3.343   2.635   9.261
20343WAT     H261272   3.369   2.691   9.110
20344WAT      O61273   3.852   9.365   6.033
20344WAT     H161274   3.853   9.464   6.048
20344WAT     H261275   3.808   9.345   5.946
20345WAT      O61276   6.238   0.566   8.714
20345WAT     H161277   6.236   0.472   8.680
20345WAT     H261278   6.196   0.627   8.647
20346WAT      O61279   2.078   5.716   8.863
20346WAT     H161280   1.991   5.732   8.908
20346WAT     H261281   2.089   5.618   8.845
20347WAT      O61282   4.450   4.474   0.969
20347WAT     H161283   4.482   4.412   1.040
20347WAT     H261284   4.382   4.428   0.912
20348WAT      O61285   7.170   2.656   9.231
20348WAT     H161286   7.243   2.605   9.277
20348WAT     H261287   7.091   2.663   9.291
20349WAT      O61288   1.110   8.476   0.420
20349WAT     H161289   1.074   8.410   0.354
20349WAT     H261290   1.100   8.439   0.512
20350WAT      O61291   4.817   0.460   8.705
20350WAT     H161292   4.835   0.368   8.739
20350WAT     H261293   4.852   0.527   8.770
20351WAT      O61294   4.710   2.934   2.911
20351WAT     H161295   4.613   2.913   2.898
20351WAT     H261296   4.729   3.025   2.872
20352WAT      O61297   4.612   9.289   0.692
20352WAT     H161298   4.570   9.203   0.721
20352WAT     H261299   4.663   9.274   0.607
20353WAT      O61300   0.997   5.291   5.769
20353WAT     H161301   0.958   5.323   5.683
20353WAT     H261302   0.930   5.236   5.818
20354WAT      O61303   5.624   7.810   2.996
20354WAT     H161304   5.577   7.739   2.944
20354WAT     H261305   5.697   7.850   2.941
20355WAT      O61306   3.405   8.489   5.486
20355WAT     H161307   3.420   8.583   5.514
20355WAT     H261308   3.346   8.443   5.554
20356WAT      O61309   6.624   4.026   7.788
20356WAT     H161310   6.634   3.981   7.699
20356WAT     H261311   6.703   4.085   7.804
20357WAT      O61312   4.657   1.078   9.461
20357WAT     H161313   4.572   1.026   9.461
20357WAT     H261314   4.654   1.148   9.533
20358WAT      O61315   2.659   6.235   3.711
20358WAT     H161316   2.740   6.177   3.698
20358WAT     H261317   2.687   6.329   3.728
20359WAT      O61318   7.931   3.429   4.948
20359WAT     H161319   7.985   3.463   4.871
20359WAT     H261320   7.920   3.501   5.016
20360WAT      O61321   4.223   8.423   7.559
20360WAT     H161322   4.183   8.372   7.635
20360WAT     H261323   4.175   8.401   7.475
20361WAT      O61324   5.294   1.097   4.010
20361WAT     H161325   5.258   1.124   3.921
20361WAT     H261326   5.262   1.006   4.033
20362WAT      O61327   3.120   2.221   0.006
20362WAT     H161328   3.163   2.234   0.096
20362WAT     H261329   3.179   2.165  -0.051
20363WAT      O61330   3.876   2.958   6.714
20363WAT     H161331   3.817   3.027   6.756
20363WAT     H261332   3.934   2.917   6.784
20364WAT      O61333   8.770   8.829   7.498
20364WAT     H161334   8.849   8.818   7.558
20364WAT     H261335   8.794   8.799   7.405
20365WAT      O61336   7.041   3.337   5.472
20365WAT     H161337   6.981   3.382   5.405
20365WAT     H261338   7.022   3.239   5.473
20366WAT      O61339   5.019   9.113   3.883
20366WAT     H161340   4.968   9.046   3.828
20366WAT     H261341   5.110   9.126   3.843
20367WAT      O61342   8.173   6.419   7.282
20367WAT     H161343   8.139   6.478   7.210
20367WAT     H261344   8.137   6.450   7.370
20368WAT      O61345   7.214   9.655   3.724
20368WAT     H161346   7.227   9.681   3.628
20368WAT     H261347   7.229   9.735   3.783
20369WAT      O61348   3.421   9.438   9.372
20369WAT     H161349   3.435   9.500   9.449
20369WAT     H261350   3.490   9.366   9.375
20370WAT      O61351   7.023   9.790   5.216
20370WAT     H161352   6.942   9.735   5.192
20370WAT     H261353   7.041   9.782   5.314
20371WAT      O61354   7.990   5.753   3.547
20371WAT     H161355   8.005   5.725   3.452
20371WAT     H261356   8.019   5.680   3.608
20372WAT      O61357   6.829   3.058   6.581
20372WAT     H161358   6.890   3.122   6.535
20372WAT     H261359   6.767   3.108   6.641
20373WAT      O61360   6.651   6.512   0.027
20373WAT     H161361   6.704   6.538   0.107
20373WAT     H261362   6.652   6.413   0.016
20374WAT      O61363   9.302   8.669   1.891
20374WAT     H161364   9.254   8.656   1.978
20374WAT     H261365   9.400   8.678   1.908
20375WAT      O61366   0.705   6.270   9.758
20375WAT     H161367   0.697   6.283   9.659
20375WAT     H261368   0.744   6.180   9.777
20376WAT      O61369   1.488   6.871   3.808
20376WAT     H161370   1.514   6.912   3.720
20376WAT     H261371   1.567   6.827   3.849
20377WAT      O61372   3.343   0.782   6.614
20377WAT     H161373   3.365   0.802   6.709
20377WAT     H261374   3.412   0.823   6.554
20378WAT      O61375   6.784   0.371   9.178
20378WAT     H161376   6.792   0.273   9.197
20378WAT     H261377   6.873   0.408   9.153
20379WAT      O61378   0.943   8.895   4.826
20379WAT     H161379   0.927   8.817   4.765
20379WAT     H261380   0.979   8.863   4.913
20380WAT      O61381   6.214   8.873   8.351
20380WAT     H161382   6.144   8.939   8.380
20380WAT     H261383   6.296   8.887   8.406
20381WAT      O61384   9.651   0.090   1.128
20381WAT     H161385   9.673   0.144   1.210
20381WAT     H261386   9.567   0.125   1.088
20382WAT      O61387   9.635   5.974   7.190
20382WAT     H161388   9.580   5.893   7.171
20382WAT     H261389   9.592   6.028   7.262
20383WAT      O61390   0.834   6.299   2.164
20383WAT     H161391   0.757   6.306   2.101
20383WAT     H261392   0.916   6.336   2.121
20384WAT      O61393   8.301   5.056   2.180
20384WAT     H161394   8.288   5.092   2.272
20384WAT     H261395   8.232   5.095   2.119
20385WAT      O61396   2.045   5.069   0.766
20385WAT     H161397   1.947   5.069   0.745
20385WAT     H261398   2.097   5.059   0.681
20386WAT      O61399   6.342   7.312   4.470
20386WAT     H161400   6.258   7.361   4.449
20386WAT     H261401   6.414   7.378   4.491
20387WAT      O61402   7.966   6.204   7.640
20387WAT     H161403   7.941   6.299   7.655
20387WAT     H261404   8.006   6.194   7.549
20388WAT      O61405   6.812   0.769   4.167
20388WAT     H161406   6.793   0.693   4.229
20388WAT     H261407   6.742   0.772   4.095
20389WAT      O61408   6.632   2.610   5.633
20389WAT     H161409   6.682   2.673   5.691
20389WAT     H261410   6.575   2.551   5.689
20390WAT      O61411   8.486   1.623   8.090
20390WAT     H161412   8.541   1.663   8.163
20390WAT     H261413   8.489   1.681   8.009
20391WAT      O61414   7.412   0.901   5.291
20391WAT     H161415   7.372   0.911   5.382
20391WAT     H261416   7.510   0.883   5.298
20392WAT      O61417   5.757   9.287   3.425
20392WAT     H161418   5.718   9.243   3.344
20392WAT     H261419   5.707   9.371   3.446
20393WAT      O61420   4.720   2.712   0.827
20393WAT     H161421   4.704   2.785   0.761
20393WAT     H261422   4.804   2.731   0.879
20394WAT      O61423   4.240   4.108   6.403
20394WAT     H161424   4.337   4.122   6.385
20394WAT     H261425   4.221   4.010   6.411
20395WAT      O61426   4.320   6.582   4.001
20395WAT     H161427   4.277   6.545   4.083
20395WAT     H261428   4.354   6.674   4.020
20396WAT      O61429   1.800   6.342   5.724
20396WAT     H161430   1.743   6.309   5.799
20396WAT     H261431   1.847   6.264   5.682
20397WAT      O61432   6.370   9.085   4.418
20397WAT     H161433   6.290   9.144   4.428
20397WAT     H261434   6.343   8.999   4.374
20398WAT      O61435   6.941   8.967   8.185
20398WAT     H161436   7.010   8.902   8.216
20398WAT     H261437   6.879   8.988   8.260
20399WAT      O61438   7.662   3.671   6.129
20399WAT     H161439   7.730   3.689   6.058
20399WAT     H261440   7.679   3.581   6.170
20400WAT      O61441   2.814   4.291   4.696
20400WAT     H161442   2.764   4.346   4.763
20400WAT     H261443   2.890   4.243   4.741
20401WAT      O61444   2.763   9.624   8.134
20401WAT     H161445   2.695   9.697   8.142
20401WAT     H261446   2.718   9.536   8.143
20402WAT      O61447   3.423   2.940   2.355
20402WAT     H161448   3.503   2.999   2.339
20402WAT     H261449   3.359   2.950   2.279
20403WAT      O61450   8.372   8.954   0.263
20403WAT     H161451   8.358   9.024   0.333
20403WAT     H261452   8.334   8.867   0.294
20404WAT      O61453   4.146   7.329   1.036
20404WAT     H161454   4.099   7.240   1.038
20404WAT     H261455   4.084   7.401   1.066
20405WAT      O61456   6.255   3.860   4.697
20405WAT     H161457   6.213   3.770   4.681
20405WAT     H261458   6.354   3.849   4.707
20406WAT      O61459   3.140   7.486   1.479
20406WAT     H161460   3.102   7.410   1.531
20406WAT     H261461   3.156   7.564   1.540
20407WAT      O61462   3.313   3.757   3.522
20407WAT     H161463   3.313   3.803   3.433
20407WAT     H261464   3.325   3.659   3.509
20408WAT      O61465   8.644   6.414   0.238
20408WAT     H161466   8.590   6.483   0.190
20408WAT     H261467   8.741   6.428   0.220
20409WAT      O61468   1.070   3.412   3.917
20409WAT     H161469   1.143   3.477   3.896
20409WAT     H261470   0.994   3.425   3.853
20410WAT      O61471   7.898   2.970   6.356
20410WAT     H161472   7.867   3.065   6.351
20410WAT     H261473   7.869   2.921   6.273
20411WAT      O61474   2.975   3.173   3.396
20411WAT     H161475   2.879   3.145   3.394
20411WAT     H261476   3.003   3.204   3.305
20412WAT      O61477   4.261   7.426   0.785
20412WAT     H161478   4.244   7.379   0.872
20412WAT     H261479   4.194   7.395   0.717
20413WAT      O61480   1.628   7.279   3.966
20413WAT     H161481   1.649   7.289   4.063
20413WAT     H261482   1.548   7.220   3.956
20414WAT      O61483   1.384   9.358   1.214
20414WAT     H161484   1.368   9.408   1.299
20414WAT     H261485   1.328   9.275   1.214
20415WAT      O61486   2.262   9.753   7.118
20415WAT     H161487   2.195   9.704   7.174
20415WAT     H261488   2.255   9.721   7.023
20416WAT      O61489   6.517   3.923   6.934
20416WAT     H161490   6.548   4.017   6.946
20416WAT     H261491   6.449   3.901   7.005
20417WAT      O61492   0.010   4.645   2.239
20417WAT     H161493   0.080   4.700   2.284
20417WAT     H261494  -0.013   4.566   2.296
20418WAT      O61495   3.264   5.516   1.770
20418WAT     H161496   3.248   5.417   1.776
20418WAT     H261497   3.189   5.559   1.720
20419WAT      O61498   5.520   9.604   2.606
20419WAT     H161499   5.528   9.571   2.700
20419WAT     H261500   5.550   9.533   2.543
20420WAT      O61501   5.920   6.607   5.583
20420WAT     H161502   5.972   6.566   5.659
20420WAT     H261503   5.833   6.642   5.618
20421WAT      O61504   8.632   2.165   2.031
20421WAT     H161505   8.598   2.117   1.951
20421WAT     H261506   8.633   2.102   2.109
20422WAT      O61507   6.496   7.853   8.212
20422WAT     H161508   6.536   7.941   8.186
20422WAT     H261509   6.400   7.851   8.185
20423WAT      O61510   1.265   9.106   7.279
20423WAT     H161511   1.201   9.117   7.355
20423WAT     H261512   1.336   9.176   7.284
20424WAT      O61513   4.153   1.556   8.750
20424WAT     H161514   4.196   1.498   8.681
20424WAT     H261515   4.162   1.652   8.723
20425WAT      O61516   4.309   7.208   1.880
20425WAT     H161517   4.332   7.135   1.815
20425WAT     H261518   4.346   7.295   1.846
20426WAT      O61519   5.442   6.533   5.428
20426WAT     H161520   5.378   6.552   5.502
20426WAT     H261521   5.480   6.441   5.439
20427WAT      O61522   3.480   3.854   1.058
20427WAT     H161523   3.408   3.914   1.024
20427WAT     H261524   3.540   3.829   0.982
20428WAT      O61525   7.331   9.608   7.374
20428WAT     H161526   7.284   9.645   7.453
20428WAT     H261527   7.406   9.549   7.404
20429WAT      O61528   5.293   3.537   1.333
20429WAT     H161529   5.252   3.473   1.268
20429WAT     H261530   5.221   3.590   1.378
20430WAT      O61531   9.305   3.985   4.924
20430WAT     H161532   9.221   3.955   4.970
20430WAT     H261533   9.296   3.970   4.826
20431WAT      O61534   3.663   1.368   2.934
20431WAT     H161535   3.716   1.387   3.017
20431WAT     H261536   3.722   1.325   2.866
20432WAT      O61537   0.484   5.063   4.584
20432WAT     H161538   0.550   5.137   4.571
20432WAT     H261539   0.532   4.975   4.580
20433WAT      O61540   0.746   1.697   4.381
20433WAT     H161541   0.759   1.758   4.304
20433WAT     H261542   0.680   1.736   4.445
20434WAT      O61543   4.113   3.153   5.812
20434WAT     H161544   4.059   3.221   5.762
20434WAT     H261545   4.202   3.192   5.836
20435WAT      O61546   4.602   4.182   7.015
20435WAT     H161547   4.566   4.204   6.924
20435WAT     H261548   4.635   4.265   7.059
20436WAT      O61549   9.745   6.196   2.766
20436WAT     H161550   9.686   6.128   2.809
20436WAT     H261551   9.768   6.267   2.832
20437WAT      O61552   1.379   6.649   6.107
20437WAT     H161553   1.471   6.680   6.129
20437WAT     H261554   1.314   6.725   6.118
20438WAT      O61555   3.158   3.845   0.986
20438WAT     H161556   3.219   3.924   0.980
20438WAT     H261557   3.082   3.857   0.923
20439WAT      O61558   0.778   4.210   6.627
20439WAT     H161559   0.858   4.188   6.571
20439WAT     H261560   0.718   4.271   6.577
20440WAT      O61561   3.153   9.482   6.838
20440WAT     H161562   3.222   9.550   6.863
20440WAT     H261563   3.193   9.390   6.841
20441WAT      O61564   8.309   1.897   2.808
20441WAT     H161565   8.336   1.855   2.722
20441WAT     H261566   8.242   1.840   2.854
20442WAT      O61567   0.517   3.258   3.167
20442WAT     H161568   0.480   3.281   3.077
20442WAT     H261569   0.533   3.343   3.218
20443WAT      O61570   3.151   0.412   5.920
20443WAT     H161571   3.064   0.368   5.942
20443WAT     H261572   3.167   0.407   5.821
20444WAT      O61573   3.117   0.011   2.938
20444WAT     H161574   3.031   0.047   2.904
20444WAT     H261575   3.136   0.049   3.028
20445WAT      O61576   8.946   0.657   9.287
20445WAT     H161577   8.989   0.575   9.248
20445WAT     H261578   8.929   0.723   9.215
20446WAT      O61579   3.138   5.090   4.793
20446WAT     H161580   3.088   5.005   4.778
20446WAT     H261581   3.148   5.106   4.891
20447WAT      O61582   6.550   3.071   4.623
20447WAT     H161583   6.577   3.149   4.567
20447WAT     H261584   6.480   3.018   4.575
20448WAT      O61585   8.127   1.642   0.395
20448WAT     H161586   8.136   1.577   0.470
20448WAT     H261587   8.097   1.731   0.431
20449WAT      O61588   8.762   6.534   8.987
20449WAT     H161589   8.843   6.567   8.939
20449WAT     H261590   8.686   6.528   8.922
20450WAT      O61591   2.493   9.686   6.528
20450WAT     H161592   2.582   9.664   6.569
20450WAT     H261593   2.422   9.630   6.570
20451WAT      O61594   1.864   2.668   7.105
20451WAT     H161595   1.940   2.616   7.066
20451WAT     H261596   1.899   2.753   7.145
20452WAT      O61597   6.704   6.236   9.850
20452WAT     H161598   6.711   6.245   9.751
20452WAT     H261599   6.791   6.204   9.887
20453WAT      O61600   6.073   3.255   1.984
20453WAT     H161601   6.105   3.251   1.889
20453WAT     H261602   6.038   3.165   2.011
20454WAT      O61603   8.934   6.075   9.141
20454WAT     H161604   8.963   5.980   9.133
20454WAT     H261605   8.865   6.083   9.213
20455WAT      O61606   1.299   1.026   2.688
20455WAT     H161607   1.249   1.009   2.772
20455WAT     H261608   1.359   1.105   2.700
20456WAT      O61609   9.785   0.467   1.718
20456WAT     H161610   9.723   0.531   1.673
20456WAT     H261611   9.855   0.519   1.767
20457WAT      O61612   4.454   6.673   1.485
20457WAT     H161613   4.453   6.640   1.390
20457WAT     H261614   4.462   6.596   1.547
20458WAT      O61615   8.828   8.691   7.899
20458WAT     H161616   8.883   8.651   7.826
20458WAT     H261617   8.735   8.654   7.896
20459WAT      O61618   4.726   4.360   8.937
20459WAT     H161619   4.792   4.427   8.971
20459WAT     H261620   4.679   4.318   9.014
20460WAT      O61621   0.515   0.866   9.852
20460WAT     H161622   0.460   0.795   9.807
20460WAT     H261623   0.484   0.956   9.821
20461WAT      O61624   5.664   1.776   9.575
20461WAT     H161625   5.654   1.710   9.649
20461WAT     H261626   5.621   1.862   9.600
20462WAT      O61627   9.515   6.185   5.985
20462WAT     H161628   9.577   6.181   6.063
20462WAT     H261629   9.554   6.136   5.908
20463WAT      O61630   3.996   0.389   1.689
20463WAT     H161631   3.941   0.457   1.640
20463WAT     H261632   4.029   0.320   1.625
20464WAT      O61633   3.172   6.644   5.640
20464WAT     H161634   3.168   6.743   5.657
20464WAT     H261635   3.080   6.610   5.624
20465WAT      O61636   4.173   7.983   9.641
20465WAT     H161637   4.114   7.904   9.630
20465WAT     H261638   4.268   7.957   9.622
20466WAT      O61639   8.293   1.015   3.531
20466WAT     H161640   8.298   1.102   3.481
20466WAT     H261641   8.252   0.946   3.471
20467WAT      O61642   9.144   2.867   0.424
20467WAT     H161643   9.186   2.779   0.445
20467WAT     H261644   9.157   2.929   0.502
20468WAT      O61645   5.531   8.500   3.772
20468WAT     H161646   5.462   8.475   3.840
20468WAT     H261647   5.611   8.441   3.781
20469WAT      O61648   8.472   5.606   5.597
20469WAT     H161649   8.556   5.630   5.647
20469WAT     H261650   8.402   5.576   5.662
20470WAT      O61651   7.407   9.785   1.962
20470WAT     H161652   7.427   9.762   2.058
20470WAT     H261653   7.483   9.754   1.905
20471WAT      O61654   6.308   7.473   6.200
20471WAT     H161655   6.213   7.451   6.225
20471WAT     H261656   6.364   7.475   6.283
20472WAT      O61657   4.509   6.544   7.875
20472WAT     H161658   4.548   6.468   7.929
20472WAT     H261659   4.421   6.516   7.838
20473WAT      O61660   6.831   9.412   3.694
20473WAT     H161661   6.876   9.347   3.632
20473WAT     H261662   6.828   9.502   3.651
20474WAT      O61663   7.606   6.780   2.671
20474WAT     H161664   7.602   6.878   2.652
20474WAT     H261665   7.700   6.754   2.693
20475WAT      O61666   2.731   8.005   8.719
20475WAT     H161667   2.660   7.947   8.759
20475WAT     H261668   2.789   7.951   8.658
20476WAT      O61669   4.331   3.533   1.991
20476WAT     H161670   4.427   3.518   2.014
20476WAT     H261671   4.314   3.503   1.898
20477WAT      O61672   2.721   3.892   7.246
20477WAT     H161673   2.689   3.901   7.152
20477WAT     H261674   2.759   3.801   7.260
20478WAT      O61675   2.912   5.230   1.861
20478WAT     H161676   2.899   5.214   1.763
20478WAT     H261677   2.881   5.151   1.912
20479WAT      O61678   7.680   2.987   8.635
20479WAT     H161679   7.631   3.071   8.613
20479WAT     H261680   7.751   2.969   8.566
20480WAT      O61681   5.527   8.092   2.306
20480WAT     H161682   5.512   8.188   2.330
20480WAT     H261683   5.624   8.071   2.314
20481WAT      O61684   1.048   5.896   6.928
20481WAT     H161685   1.093   5.838   6.860
20481WAT     H261686   0.972   5.845   6.969
20482WAT      O61687   2.409   5.404   4.254
20482WAT     H161688   2.332   5.362   4.205
20482WAT     H261689   2.376   5.480   4.310
20483WAT      O61690   3.341   7.150   2.178
20483WAT     H161691   3.260   7.104   2.214
20483WAT     H261692   3.409   7.160   2.251
20484WAT      O61693   6.935   8.164   5.308
20484WAT     H161694   7.015   8.141   5.363
20484WAT     H261695   6.859   8.105   5.333
20485WAT      O61696   5.136   8.624   4.901
20485WAT     H161697   5.125   8.631   5.000
20485WAT     H261698   5.232   8.606   4.879
20486WAT      O61699   5.540   2.540   5.314
20486WAT     H161700   5.458   2.544   5.372
20486WAT     H261701   5.512   2.537   5.218
20487WAT      O61702   5.054   4.257   7.499
20487WAT     H161703   5.082   4.259   7.403
20487WAT     H261704   4.984   4.327   7.515
20488WAT      O61705   4.620   2.731   2.564
20488WAT     H161706   4.706   2.779   2.545
20488WAT     H261707   4.630   2.675   2.646
20489WAT      O61708   7.371   7.396   4.772
20489WAT     H161709   7.464   7.413   4.806
20489WAT     H261710   7.350   7.298   4.780
20490WAT      O61711   3.721   5.808   6.737
20490WAT     H161712   3.622   5.797   6.730
20490WAT     H261713   3.750   5.793   6.832
20491WAT      O61714   9.109   4.131   0.128
20491WAT     H161715   9.145   4.073   0.054
20491WAT     H261716   9.046   4.198   0.089
20492WAT      O61717   3.177   6.652   7.013
20492WAT     H161718   3.105   6.683   7.075
20492WAT     H261719   3.162   6.556   6.990
20493WAT      O61720   0.345   2.470   1.407
20493WAT     H161721   0.322   2.392   1.349
20493WAT     H261722   0.398   2.537   1.354
20494WAT      O61723   3.345   6.243   1.301
20494WAT     H161724   3.266   6.181   1.298
20494WAT     H261725   3.320   6.331   1.262
20495WAT      O61726   5.069   2.755   3.186
20495WAT     H161727   5.159   2.798   3.176
20495WAT     H261728   5.018   2.764   3.101
20496WAT      O61729   9.622   8.965   3.871
20496WAT     H161730   9.615   8.980   3.773
20496WAT     H261731   9.654   9.049   3.916
20497WAT      O61732   6.945   3.036   4.171
20497WAT     H161733   6.958   2.974   4.248
20497WAT     H261734   6.992   3.122   4.190
20498WAT      O61735   8.737   2.301   0.859
20498WAT     H161736   8.705   2.247   0.781
20498WAT     H261737   8.788   2.380   0.826
20499WAT      O61738   3.907   0.373   9.029
20499WAT     H161739   3.992   0.356   8.979
20499WAT     H261740   3.928   0.409   9.120
20500WAT      O61741   5.556   2.368   8.185
20500WAT     H161742   5.559   2.268   8.190
20500WAT     H261743   5.642   2.402   8.148
20501WAT      O61744   8.119   1.127   0.101
20501WAT     H161745   8.147   1.078   0.183
20501WAT     H261746   8.048   1.074   0.053
20502WAT      O61747   8.719   2.533   6.838
20502WAT     H161748   8.717   2.631   6.818
20502WAT     H261749   8.787   2.489   6.781
20503WAT      O61750   9.233   2.939   5.084
20503WAT     H161751   9.223   2.860   5.145
20503WAT     H261752   9.163   3.007   5.106
20504WAT      O61753   8.636   2.032   6.662
20504WAT     H161754   8.565   1.977   6.618
20504WAT     H261755   8.597   2.078   6.742
20505WAT      O61756   6.285   7.317   2.036
20505WAT     H161757   6.297   7.221   2.061
20505WAT     H261758   6.230   7.324   1.953
20506WAT      O61759   7.303   8.031   2.453
20506WAT     H161760   7.336   7.963   2.387
20506WAT     H261761   7.290   7.988   2.542
20507WAT      O61762   5.285   2.318   5.421
20507WAT     H161763   5.267   2.269   5.506
20507WAT     H261764   5.324   2.255   5.354
20508WAT      O61765   1.097   1.377   3.015
20508WAT     H161766   1.085   1.471   3.048
20508WAT     H261767   1.157   1.377   2.935
20509WAT      O61768   8.689   5.937   4.898
20509WAT     H161769   8.595   5.971   4.909
20509WAT     H261770   8.687   5.845   4.859
20510WAT      O61771   3.523   9.778   8.017
20510WAT     H161772   3.544   9.871   7.987
20510WAT     H261773   3.525   9.716   7.938
20511WAT      O61774   6.725   6.944   8.209
20511WAT     H161775   6.627   6.924   8.214
20511WAT     H261776   6.774   6.884   8.273
20512WAT      O61777   2.054   3.198   2.519
20512WAT     H161778   2.105   3.233   2.598
20512WAT     H261779   1.970   3.154   2.551
20513WAT      O61780   8.177   6.493   2.802
20513WAT     H161781   8.204   6.583   2.835
20513WAT     H261782   8.178   6.492   2.702
20514WAT      O61783   3.612   8.662   1.499
20514WAT     H161784   3.622   8.740   1.561
20514WAT     H261785   3.521   8.662   1.459
20515WAT      O61786   4.251   2.659   3.675
20515WAT     H161787   4.337   2.611   3.657
20515WAT     H261788   4.179   2.622   3.615
20516WAT      O61789   1.835   7.634   6.224
20516WAT     H161790   1.883   7.546   6.222
20516WAT     H261791   1.814   7.658   6.319
20517WAT      O61792   2.746   3.633   4.989
20517WAT     H161793   2.703   3.548   5.019
20517WAT     H261794   2.821   3.612   4.927
20518WAT      O61795   4.394   8.661   9.510
20518WAT     H161796   4.311   8.609   9.531
20518WAT     H261797   4.432   8.697   9.595
20519WAT      O61798   6.686   3.836   6.548
20519WAT     H161799   6.723   3.785   6.625
20519WAT     H261800   6.738   3.815   6.465
20520WAT      O61801   3.861   5.063   2.050
20520WAT     H161802   3.859   5.001   1.972
20520WAT     H261803   3.875   5.156   2.019
20521WAT      O61804   3.735   0.272   2.158
20521WAT     H161805   3.695   0.184   2.186
20521WAT     H261806   3.719   0.286   2.061
20522WAT      O61807   7.036   9.313   9.320
20522WAT     H161808   7.119   9.359   9.349
20522WAT     H261809   7.051   9.266   9.233
20523WAT      O61810   6.875   3.321   9.315
20523WAT     H161811   6.936   3.261   9.264
20523WAT     H261812   6.786   3.325   9.269
20524WAT      O61813   6.370   2.860   0.744
20524WAT     H161814   6.338   2.791   0.679
20524WAT     H261815   6.462   2.836   0.775
20525WAT      O61816   9.129   4.333   2.157
20525WAT     H161817   9.147   4.335   2.059
20525WAT     H261818   9.196   4.391   2.204
20526WAT      O61819   0.197   3.184   7.042
20526WAT     H161820   0.166   3.094   7.072
20526WAT     H261821   0.202   3.245   7.121
20527WAT      O61822   4.630   3.941   9.541
20527WAT     H161823   4.651   3.953   9.638
20527WAT     H261824   4.597   3.848   9.524
20528WAT      O61825   3.595   8.891   9.816
20528WAT     H161826   3.560   8.936   9.734
20528WAT     H261827   3.531   8.906   9.892
20529WAT      O61828   6.183   5.880   0.887
20529WAT     H161829   6.087   5.900   0.864
20529WAT     H261830   6.187   5.802   0.949
20530WAT      O61831   6.782   1.382   2.544
20530WAT     H161832   6.855   1.313   2.539
20530WAT     H261833   6.789   1.444   2.466
20531WAT      O61834   9.812   7.704   6.828
20531WAT     H161835   9.713   7.691   6.830
20531WAT     H261836   9.858   7.615   6.833
20532WAT      O61837   5.538   7.882   4.811
20532WAT     H161838   5.465   7.824   4.848
20532WAT     H261839   5.501   7.970   4.785
20533WAT      O61840   7.805   6.531   9.049
20533WAT     H161841   7.720   6.582   9.037
20533WAT     H261842   7.848   6.559   9.136
20534WAT      O61843   2.193   1.858   0.825
20534WAT     H161844   2.234   1.830   0.738
20534WAT     H261845   2.264   1.894   0.885
20535WAT      O61846   8.247   9.650   1.496
20535WAT     H161847   8.326   9.613   1.446
20535WAT     H261848   8.263   9.747   1.516
20536WAT      O61849   1.790   6.624   9.529
20536WAT     H161850   1.750   6.574   9.606
20536WAT     H261851   1.882   6.654   9.553
20537WAT      O61852   4.981   0.281   1.935
20537WAT     H161853   5.067   0.232   1.921
20537WAT     H261854   4.998   0.367   1.983
20538WAT      O61855   9.382   0.383   6.711
20538WAT     H161856   9.455   0.316   6.698
20538WAT     H261857   9.413   0.456   6.772
20539WAT      O61858   7.974   4.767   6.672
20539WAT     H161859   8.000   4.670   6.675
20539WAT     H261860   7.941   4.790   6.580
20540WAT      O61861   8.139   5.935   7.907
20540WAT     H161862   8.095   5.876   7.974
20540WAT     H261863   8.238   5.930   7.918
20541WAT      O61864   4.169   9.087   0.990
20541WAT     H161865   4.165   9.017   0.918
20541WAT     H261866   4.076   9.107   1.021
20542WAT      O61867   9.619   4.044   3.923
20542WAT     H161868   9.657   4.116   3.865
20542WAT     H261869   9.647   3.955   3.888
20543WAT      O61870   0.707   7.325   6.948
20543WAT     H161871   0.660   7.238   6.934
20543WAT     H261872   0.698   7.353   7.044
20544WAT      O61873   1.514   3.176   7.604
20544WAT     H161874   1.490   3.228   7.522
20544WAT     H261875   1.574   3.232   7.662
20545WAT      O61876   2.324   3.625   7.832
20545WAT     H161877   2.417   3.630   7.867
20545WAT     H261878   2.260   3.661   7.900
20546WAT      O61879   5.714   7.660   3.224
20546WAT     H161880   5.680   7.720   3.152
20546WAT     H261881   5.802   7.694   3.257
20547WAT      O61882   2.703   4.063   8.636
20547WAT     H161883   2.779   4.116   8.676
20547WAT     H261884   2.731   3.968   8.628
20548WAT      O61885   6.781   8.239   1.690
20548WAT     H161886   6.734   8.279   1.769
20548WAT     H261887   6.769   8.300   1.611
20549WAT      O61888   7.294   3.037   8.503
20549WAT     H161889   7.354   3.115   8.521
20549WAT     H261890   7.268   3.037   8.406
20550WAT      O61891   6.756   3.735   7.576
20550WAT     H161892   6.709   3.653   7.608
20550WAT     H261893   6.817   3.711   7.501
20551WAT      O61894   5.274   8.322   1.439
20551WAT     H161895   5.357   8.352   1.392
20551WAT     H261896   5.267   8.222   1.433
20552WAT      O61897   9.682   3.003   7.005
20552WAT     H161898   9.665   3.095   7.042
20552WAT     H261899   9.612   2.940   7.039
20553WAT      O61900   0.254   2.361   4.161
20553WAT     H161901   0.295   2.399   4.078
20553WAT     H261902   0.309   2.284   4.193
20554WAT      O61903   6.426   0.486   1.918
20554WAT     H161904   6.367   0.488   2.000
20554WAT     H261905   6.522   0.490   1.946
20555WAT      O61906   0.756   6.930   2.628
20555WAT     H161907   0.730   6.997   2.698
20555WAT     H261908   0.818   6.862   2.667
20556WAT      O61909   6.017   4.687   3.497
20556WAT     H161910   5.993   4.635   3.415
20556WAT     H261911   5.937   4.737   3.529
20557WAT      O61912   2.672   4.621   4.675
20557WAT     H161913   2.642   4.703   4.626
20557WAT     H261914   2.763   4.595   4.644
20558WAT      O61915   1.465   4.420   3.622
20558WAT     H161916   1.380   4.411   3.570
20558WAT     H261917   1.543   4.419   3.559
20559WAT      O61918   7.959   6.975   0.619
20559WAT     H161919   7.931   6.992   0.714
20559WAT     H261920   7.879   6.968   0.561
20560WAT      O61921   7.494   1.850   3.557
20560WAT     H161922   7.457   1.778   3.498
20560WAT     H261923   7.438   1.858   3.639
20561WAT      O61924   6.728   4.714   7.171
20561WAT     H161925   6.647   4.726   7.229
20561WAT     H261926   6.707   4.647   7.100
20562WAT      O61927   5.996   5.887   7.501
20562WAT     H161928   6.076   5.831   7.479
20562WAT     H261929   5.979   5.883   7.600
20563WAT      O61930   7.924   7.835   3.679
20563WAT     H161931   7.931   7.922   3.726
20563WAT     H261932   7.915   7.850   3.581
20564WAT      O61933   2.267   1.619   4.290
20564WAT     H161934   2.216   1.563   4.225
20564WAT     H261935   2.213   1.631   4.374
20565WAT      O61936   4.754   9.011   7.452
20565WAT     H161937   4.845   9.005   7.409
20565WAT     H261938   4.684   8.993   7.383
20566WAT      O61939   5.246   5.912   9.292
20566WAT     H161940   5.233   6.010   9.305
20566WAT     H261941   5.164   5.863   9.320
20567WAT      O61942   6.168   2.000   6.765
20567WAT     H161943   6.214   2.088   6.769
20567WAT     H261944   6.161   1.970   6.670
20568WAT      O61945   2.756   0.684   5.832
20568WAT     H161946   2.755   0.774   5.876
20568WAT     H261947   2.767   0.613   5.902
20569WAT      O61948   2.942   7.023   7.888
20569WAT     H161949   3.006   6.993   7.818
20569WAT     H261950   2.979   7.003   7.978
20570WAT      O61951   3.694   3.725   3.540
20570WAT     H161952   3.655   3.752   3.452
20570WAT     H261953   3.732   3.632   3.533
20571WAT      O61954   7.852   8.428   3.138
20571WAT     H161955   7.918   8.380   3.195
20571WAT     H261956   7.825   8.369   3.062
20572WAT      O61957   5.218   5.880   2.993
20572WAT     H161958   5.127   5.912   3.017
20572WAT     H261959   5.219   5.850   2.897
20573WAT      O61960   6.297   4.770   2.673
20573WAT     H161961   6.368   4.818   2.725
20573WAT     H261962   6.338   4.698   2.618
20574WAT      O61963   4.182   1.363   7.652
20574WAT     H161964   4.087   1.332   7.652
20574WAT     H261965   4.184   1.460   7.626
20575WAT      O61966   7.033   2.531   3.280
20575WAT     H161967   7.056   2.629   3.282
20575WAT     H261968   6.967   2.513   3.208
20576WAT      O61969   3.542   2.528   5.634
20576WAT     H161970   3.468   2.477   5.591
20576WAT     H261971   3.503   2.600   5.692
20577WAT      O61972   3.446   7.149   8.250
20577WAT     H161973   3.396   7.159   8.335
20577WAT     H261974   3.471   7.240   8.215
20578WAT      O61975   5.961   8.185   3.934
20578WAT     H161976   5.925   8.145   3.849
20578WAT     H261977   6.060   8.190   3.928
20579WAT      O61978   3.580   2.396   7.515
20579WAT     H161979   3.496   2.406   7.567
20579WAT     H261980   3.559   2.368   7.422
20580WAT      O61981   3.216   9.408   8.844
20580WAT     H161982   3.210   9.439   8.939
20580WAT     H261983   3.231   9.487   8.784
20581WAT      O61984   5.819   4.923   0.212
20581WAT     H161985   5.734   4.923   0.159
20581WAT     H261986   5.839   4.830   0.243
20582WAT      O61987   9.213   6.788   7.586
20582WAT     H161988   9.131   6.740   7.555
20582WAT     H261989   9.214   6.792   7.686
20583WAT      O61990   2.534   3.870   3.650
20583WAT     H161991   2.497   3.946   3.596
20583WAT     H261992   2.631   3.885   3.667
20584WAT      O61993   0.721   5.955   7.412
20584WAT     H161994   0.694   6.049   7.389
20584WAT     H261995   0.664   5.891   7.361
20585WAT      O61996   3.870   4.178   1.237
20585WAT     H161997   3.939   4.218   1.298
20585WAT     H261998   3.799   4.134   1.292
20586WAT      O61999   8.924   3.309   8.057
20586WAT     H162000   8.946   3.298   7.960
20586WAT     H262001   8.825   3.298   8.071
20587WAT      O62002   5.230   4.774   6.552
20587WAT     H162003   5.287   4.825   6.616
20587WAT     H262004   5.141   4.757   6.594
20588WAT      O62005   5.628   4.138   1.301
20588WAT     H162006   5.709   4.187   1.334
20588WAT     H262007   5.623   4.048   1.346
20589WAT      O62008   2.497   0.707   1.962
20589WAT     H162009   2.488   0.629   2.024
20589WAT     H262010   2.408   0.733   1.927
20590WAT      O62011   6.133   1.610   6.545
20590WAT     H162012   6.126   1.710   6.543
20590WAT     H262013   6.092   1.575   6.630
20591WAT      O62014   6.619   0.351   3.384
20591WAT     H162015   6.646   0.305   3.469
20591WAT     H262016   6.564   0.289   3.328
20592WAT      O62017   0.339   7.312   0.761
20592WAT     H162018   0.314   7.231   0.813
20592WAT     H262019   0.294   7.311   0.672
20593WAT      O62020   5.292   1.685   0.161
20593WAT     H162021   5.380   1.733   0.160
20593WAT     H262022   5.265   1.666   0.255
20594WAT      O62023   8.424   1.676   7.680
20594WAT     H162024   8.380   1.749   7.628
20594WAT     H262025   8.362   1.644   7.752
20595WAT      O62026   1.966   4.527   4.530
20595WAT     H162027   1.884   4.576   4.500
20595WAT     H262028   1.988   4.455   4.465
20596WAT      O62029   9.403   6.932   5.038
20596WAT     H162030   9.398   6.944   5.137
20596WAT     H262031   9.437   7.017   4.996
20597WAT      O62032   7.876   8.374   1.689
20597WAT     H162033   7.900   8.394   1.784
20597WAT     H262034   7.920   8.441   1.629
20598WAT      O62035   5.031   1.363   7.537
20598WAT     H162036   5.072   1.352   7.447
20598WAT     H262037   5.012   1.273   7.577
20599WAT      O62038   0.909   9.745   0.058
20599WAT     H162039   0.849   9.692   0.119
20599WAT     H262040   0.992   9.692   0.039
20600WAT      O62041   8.505   1.895   9.461
20600WAT     H162042   8.567   1.973   9.448
20600WAT     H262043   8.443   1.888   9.383
20601WAT      O62044   8.153   8.671   6.320
20601WAT     H162045   8.082   8.611   6.358
20601WAT     H262046   8.118   8.764   6.315
20602WAT      O62047   8.846   7.663   9.027
20602WAT     H162048   8.850   7.637   8.931
20602WAT     H262049   8.759   7.708   9.046
20603WAT      O62050   0.695   0.215   4.244
20603WAT     H162051   0.769   0.282   4.232
20603WAT     H262052   0.715   0.133   4.191
20604WAT      O62053   9.876   7.220   3.205
20604WAT     H162054   9.957   7.278   3.216
20604WAT     H262055   9.797   7.266   3.245
20605WAT      O62056   3.169   0.203   0.051
20605WAT     H162057   3.264   0.220   0.076
20605WAT     H262058   3.144   0.110   0.078
20606WAT      O62059   8.832   2.857   2.087
20606WAT     H162060   8.921   2.826   2.056
20606WAT     H262061   8.826   2.956   2.080
20607WAT      O62062   7.135   8.393   6.957
20607WAT     H162063   7.096   8.426   6.871
20607WAT     H262064   7.230   8.424   6.965
20608WAT      O62065   6.968   5.859   5.257
20608WAT     H162066   6.889   5.825   5.308
20608WAT     H262067   7.008   5.936   5.306
20609WAT      O62068   0.439   1.970   0.086
20609WAT     H162069   0.434   1.878   0.048
20609WAT     H262070   0.353   1.992   0.132
20610WAT      O62071   4.804   6.903   4.954
20610WAT     H162072   4.740   6.839   4.996
20610WAT     H262073   4.811   6.884   4.856
20611WAT      O62074   5.709   3.965   8.706
20611WAT     H162075   5.718   3.984   8.608
20611WAT     H262076   5.615   3.937   8.726
20612WAT      O62077   6.050   4.077   5.722
20612WAT     H162078   5.971   4.087   5.663
20612WAT     H262079   6.021   4.044   5.812
20613WAT      O62080   8.516   3.034   7.107
20613WAT     H162081   8.602   3.079   7.081
20613WAT     H262082   8.531   2.979   7.189
20614WAT      O62083   7.643   3.286   8.482
20614WAT     H162084   7.612   3.284   8.387
20614WAT     H262085   7.569   3.254   8.542
20615WAT      O62086   7.202   1.004   0.485
20615WAT     H162087   7.209   1.028   0.388
20615WAT     H262088   7.131   0.934   0.496
20616WAT      O62089   2.224   3.370   1.793
20616WAT     H162090   2.210   3.274   1.818
20616WAT     H262091   2.315   3.399   1.821
20617WAT      O62092   0.218   6.770   3.602
20617WAT     H162093   0.241   6.852   3.549
20617WAT     H262094   0.299   6.713   3.611
20618WAT      O62095   0.442   3.259   2.040
20618WAT     H162096   0.504   3.335   2.023
20618WAT     H262097   0.373   3.287   2.107
20619WAT      O62098   4.501   4.336   7.850
20619WAT     H162099   4.411   4.297   7.864
20619WAT     H262100   4.563   4.304   7.921
20620WAT      O62101   5.313   9.727   7.428
20620WAT     H162102   5.330   9.658   7.357
20620WAT     H262103   5.240   9.696   7.488
20621WAT      O62104   5.312   6.757   1.254
20621WAT     H162105   5.361   6.677   1.218
20621WAT     H262106   5.357   6.840   1.225
20622WAT      O62107   5.240   6.107   5.174
20622WAT     H162108   5.152   6.068   5.201
20622WAT     H262109   5.271   6.065   5.089
20623WAT      O62110   1.486   1.607   2.047
20623WAT     H162111   1.443   1.521   2.075
20623WAT     H262112   1.463   1.626   1.952
20624WAT      O62113   2.245   6.450   4.590
20624WAT     H162114   2.325   6.394   4.608
20624WAT     H262115   2.216   6.438   4.495
20625WAT      O62116   1.584   4.008   1.125
20625WAT     H162117   1.528   4.084   1.156
20625WAT     H262118   1.542   3.922   1.152
20626WAT      O62119   6.330   7.382   8.744
20626WAT     H162120   6.257   7.450   8.751
20626WAT     H262121   6.387   7.386   8.827
20627WAT      O62122   6.289   6.876   6.645
20627WAT     H162123   6.307   6.930   6.727
20627WAT     H262124   6.205   6.824   6.657
20628WAT      O62125   4.063   0.321   6.663
20628WAT     H162126   4.046   0.342   6.759
20628WAT     H262127   4.155   0.352   6.637
20629WAT      O62128   6.386   3.384   1.736
20629WAT     H162129   6.310   3.331   1.698
20629WAT     H262130   6.355   3.476   1.758
20630WAT      O62131   8.102   8.806   1.542
20630WAT     H162132   8.198   8.808   1.516
20630WAT     H262133   8.046   8.778   1.463
20631WAT      O62134   1.907   6.196   8.465
20631WAT     H162135   1.964   6.131   8.515
20631WAT     H262136   1.948   6.214   8.376
20632WAT      O62137   0.735   3.193   2.985
20632WAT     H162138   0.770   3.105   3.020
20632WAT     H262139   0.664   3.227   3.046
20633WAT      O62140   1.221   5.613   0.846
20633WAT     H162141   1.208   5.688   0.782
20633WAT     H262142   1.142   5.606   0.907
20634WAT      O62143   2.954   4.331   0.406
20634WAT     H162144   2.994   4.241   0.389
20634WAT     H262145   3.016   4.384   0.464
20635WAT      O62146   8.441   1.096   1.316
20635WAT     H162147   8.443   1.014   1.259
20635WAT     H262148   8.474   1.174   1.263
20636WAT      O62149   8.950   2.504   6.312
20636WAT     H162150   8.865   2.543   6.347
20636WAT     H262151   9.028   2.552   6.352
20637WAT      O62152   0.213   3.946   2.916
20637WAT     H162153   0.125   3.993   2.928
20637WAT     H262154   0.272   3.999   2.856
20638WAT      O62155   2.650   4.527   3.457
20638WAT     H162156   2.669   4.431   3.476
20638WAT     H262157   2.623   4.573   3.542
20639WAT      O62158   0.788   8.734   7.000
20639WAT     H162159   0.758   8.760   7.091
20639WAT     H262160   0.872   8.783   6.977
20640WAT      O62161   9.394   0.211   6.073
20640WAT     H162162   9.371   0.301   6.110
20640WAT     H262163   9.492   0.194   6.086
20641WAT      O62164   3.315   6.122   8.504
20641WAT     H162165   3.257   6.062   8.448
20641WAT     H262166   3.403   6.077   8.520
20642WAT      O62167   9.626   2.529   8.233
20642WAT     H162168   9.566   2.561   8.159
20642WAT     H262169   9.700   2.474   8.194
20643WAT      O62170   5.984   0.132   1.497
20643WAT     H162171   5.928   0.165   1.573
20643WAT     H262172   6.053   0.068   1.531
20644WAT      O62173   9.182   2.500   5.430
20644WAT     H162174   9.279   2.495   5.456
20644WAT     H262175   9.133   2.558   5.495
20645WAT      O62176   4.014   6.288   8.728
20645WAT     H162177   4.088   6.338   8.773
20645WAT     H262178   3.959   6.240   8.796
20646WAT      O62179   1.797   6.643   0.061
20646WAT     H162180   1.831   6.585   0.136
20646WAT     H262181   1.858   6.722   0.051
20647WAT      O62182   6.739   9.058   9.808
20647WAT     H162183   6.721   9.121   9.884
20647WAT     H262184   6.793   9.105   9.738
20648WAT      O62185   9.370   0.288   2.265
20648WAT     H162186   9.335   0.302   2.173
20648WAT     H262187   9.444   0.221   2.263
20649WAT      O62188   3.393   8.063   2.635
20649WAT     H162189   3.373   8.141   2.576
20649WAT     H262190   3.352   8.078   2.725
20650WAT      O62191   7.326   6.846   6.977
20650WAT     H162192   7.318   6.750   7.005
20650WAT     H262193   7.389   6.853   6.900
20651WAT      O62194   1.129   1.721   4.494
20651WAT     H162195   1.221   1.758   4.484
20651WAT     H262196   1.069   1.758   4.423
20652WAT      O62197   5.387   2.131   5.892
20652WAT     H162198   5.370   2.095   5.984
20652WAT     H262199   5.466   2.084   5.852
20653WAT      O62200   5.246   3.152   2.311
20653WAT     H162201   5.220   3.218   2.241
20653WAT     H262202   5.180   3.153   2.386
20654WAT      O62203   7.355   2.383   5.712
20654WAT     H162204   7.332   2.464   5.658
20654WAT     H262205   7.273   2.325   5.719
20655WAT      O62206   6.476   6.152   6.222
20655WAT     H162207   6.435   6.077   6.274
20655WAT     H262208   6.561   6.181   6.266
20656WAT      O62209   8.617   6.421   8.148
20656WAT     H162210   8.526   6.462   8.142
20656WAT     H262211   8.654   6.409   8.056
20657WAT      O62212   4.572   9.181   9.867
20657WAT     H162213   4.600   9.108   9.805
20657WAT     H262214   4.649   9.241   9.886
20658WAT      O62215   7.008   3.411   7.619
20658WAT     H162216   7.099   3.379   7.648
20658WAT     H262217   6.968   3.345   7.556
20659WAT      O62218   5.468   6.995   7.727
20659WAT     H162219   5.549   7.050   7.708
20659WAT     H262220   5.458   6.925   7.656
20660WAT      O62221   9.682   8.030   7.594
20660WAT     H162222   9.687   7.930   7.596
20660WAT     H262223   9.713   8.066   7.682
20661WAT      O62224   9.340   8.770   5.055
20661WAT     H162225   9.367   8.710   4.979
20661WAT     H262226   9.327   8.863   5.021
20662WAT      O62227   7.180   3.380   9.816
20662WAT     H162228   7.180   3.446   9.890
20662WAT     H262229   7.262   3.324   9.820
20663WAT      O62230   4.369   7.885   8.469
20663WAT     H162231   4.282   7.911   8.427
20663WAT     H262232   4.442   7.941   8.432
20664WAT      O62233   5.414   3.064   8.669
20664WAT     H162234   5.352   3.141   8.660
20664WAT     H262235   5.500   3.085   8.623
20665WAT      O62236   1.573   4.768   2.120
20665WAT     H162237   1.655   4.734   2.073
20665WAT     H262238   1.501   4.699   2.112
20666WAT      O62239   7.099   5.551   6.246
20666WAT     H162240   7.042   5.484   6.293
20666WAT     H262241   7.065   5.643   6.263
20667WAT      O62242   0.823   3.064   9.020
20667WAT     H162243   0.736   3.020   8.999
20667WAT     H262244   0.865   3.096   8.935
20668WAT      O62245   6.093   3.257   0.963
20668WAT     H162246   6.190   3.238   0.979
20668WAT     H262247   6.038   3.212   1.033
20669WAT      O62248   0.048   6.731   0.170
20669WAT     H162249  -0.022   6.663   0.190
20669WAT     H262250   0.007   6.822   0.170
20670WAT      O62251   4.393   8.442   9.330
20670WAT     H162252   4.358   8.497   9.254
20670WAT     H262253   4.442   8.502   9.394
20671WAT      O62254   7.693   6.409   2.209
20671WAT     H162255   7.690   6.507   2.223
20671WAT     H262256   7.602   6.370   2.221
20672WAT      O62257   5.934   4.447   1.142
20672WAT     H162258   5.907   4.370   1.085
20672WAT     H262259   6.008   4.418   1.204
20673WAT      O62260   8.792   6.981   1.165
20673WAT     H162261   8.718   6.913   1.166
20673WAT     H262262   8.774   7.052   1.233
20674WAT      O62263   2.899   9.233   4.199
20674WAT     H162264   2.863   9.266   4.286
20674WAT     H262265   2.961   9.302   4.160
20675WAT      O62266   4.048   4.724   0.130
20675WAT     H162267   4.147   4.728   0.148
20675WAT     H262268   4.006   4.661   0.195
20676WAT      O62269   6.079   8.191   9.720
20676WAT     H162270   6.138   8.133   9.664
20676WAT     H262271   6.060   8.276   9.670
20677WAT      O62272   6.297   2.243   5.414
20677WAT     H162273   6.205   2.214   5.387
20677WAT     H262274   6.312   2.220   5.510
20678WAT      O62275   6.452   1.372   7.713
20678WAT     H162276   6.540   1.372   7.761
20678WAT     H262277   6.423   1.466   7.696
20679WAT      O62278   9.388   7.523   0.557
20679WAT     H162279   9.436   7.597   0.605
20679WAT     H262280   9.307   7.560   0.511
20680WAT      O62281   3.353   8.762   0.609
20680WAT     H162282   3.317   8.681   0.563
20680WAT     H262283   3.277   8.816   0.646
20681WAT      O62284   0.866   0.790   4.489
20681WAT     H162285   0.789   0.825   4.542
20681WAT     H262286   0.843   0.699   4.454
20682WAT      O62287   5.235   8.934   8.470
20682WAT     H162288   5.239   8.971   8.563
20682WAT     H262289   5.188   8.999   8.410
20683WAT      O62290   8.251   5.398   7.088
20683WAT     H162291   8.275   5.474   7.149
20683WAT     H262292   8.315   5.322   7.103
20684WAT      O62293   3.161   8.170   1.796
20684WAT     H162294   3.189   8.229   1.720
20684WAT     H262295   3.241   8.143   1.848
20685WAT      O62296   0.623   8.006   4.423
20685WAT     H162297   0.527   8.016   4.451
20685WAT     H262298   0.631   7.927   4.361
20686WAT      O62299   8.341   5.653   7.238
20686WAT     H162300   8.278   5.694   7.172
20686WAT     H262301   8.427   5.629   7.193
20687WAT      O62302   0.622   9.670   6.429
20687WAT     H162303   0.681   9.698   6.504
20687WAT     H262304   0.658   9.704   6.342
20688WAT      O62305   2.275   2.640   6.112
20688WAT     H162306   2.356   2.586   6.090
20688WAT     H262307   2.200   2.615   6.050
20689WAT      O62308   9.471   7.116   5.428
20689WAT     H162309   9.544   7.121   5.497
20689WAT     H262310   9.389   7.159   5.464
20690WAT      O62311   5.105   1.344   0.400
20690WAT     H162312   5.017   1.340   0.448
20690WAT     H262313   5.122   1.257   0.354
20691WAT      O62314   1.358   6.138   7.820
20691WAT     H162315   1.403   6.135   7.909
20691WAT     H262316   1.372   6.228   7.779
20692WAT      O62317   2.543   6.106   8.404
20692WAT     H162318   2.613   6.122   8.473
20692WAT     H262319   2.503   6.194   8.376
20693WAT      O62320   8.329   7.274   5.883
20693WAT     H162321   8.428   7.276   5.875
20693WAT     H262322   8.302   7.209   5.954
20694WAT      O62323   0.818   2.648   3.525
20694WAT     H162324   0.721   2.644   3.502
20694WAT     H262325   0.841   2.739   3.560
20695WAT      O62326   5.762   7.203   5.330
20695WAT     H162327   5.843   7.200   5.390
20695WAT     H262328   5.692   7.142   5.366
20696WAT      O62329   3.999   6.403   5.808
20696WAT     H162330   3.932   6.430   5.740
20696WAT     H262331   4.016   6.479   5.871
20697WAT      O62332   4.922   6.890   8.809
20697WAT     H162333   4.912   6.939   8.895
20697WAT     H262334   4.990   6.936   8.752
20698WAT      O62335   6.089   7.237   3.854
20698WAT     H162336   6.051   7.294   3.781
20698WAT     H262337   6.051   7.265   3.942
20699WAT      O62338   8.155   3.789   8.443
20699WAT     H162339   8.074   3.807   8.499
20699WAT     H262340   8.164   3.690   8.430
20700WAT      O62341   6.343   7.310   4.767
20700WAT     H162342   6.383   7.397   4.796
20700WAT     H262343   6.343   7.305   4.667
20701WAT      O62344   4.903   1.354   3.998
20701WAT     H162345   4.929   1.283   3.933
20701WAT     H262346   4.968   1.355   4.074
20702WAT      O62347   1.749   8.487   7.215
20702WAT     H162348   1.729   8.546   7.137
20702WAT     H262349   1.828   8.522   7.264
20703WAT      O62350   3.361   8.001   6.746
20703WAT     H162351   3.459   8.009   6.764
20703WAT     H262352   3.316   8.087   6.770
20704WAT      O62353   3.394   4.218   2.750
20704WAT     H162354   3.357   4.125   2.755
20704WAT     H262355   3.319   4.284   2.742
20705WAT      O62356   2.892   4.109   6.247
20705WAT     H162357   2.979   4.146   6.214
20705WAT     H262358   2.889   4.112   6.347
20706WAT      O62359   7.765   4.038   6.635
20706WAT     H162360   7.792   3.946   6.608
20706WAT     H262361   7.846   4.095   6.646
20707WAT      O62362   4.550   7.225   2.560
20707WAT     H162363   4.494   7.152   2.599
20707WAT     H262364   4.630   7.186   2.516
20708WAT      O62365   7.048   7.028   1.494
20708WAT     H162366   7.017   7.119   1.520
20708WAT     H262367   7.141   7.033   1.457
20709WAT      O62368   7.282   1.008   3.765
20709WAT     H162369   7.368   0.972   3.803
20709WAT     H262370   7.243   1.073   3.830
20710WAT      O62371   0.072   6.124   7.197
20710WAT     H162372   0.007   6.165   7.133
20710WAT     H262373   0.022   6.081   7.272
20711WAT      O62374   3.398   7.280   4.641
20711WAT     H162375   3.498   7.278   4.632
20711WAT     H262376   3.369   7.373   4.665
20712WAT      O62377   0.230   5.396   2.067
20712WAT     H162378   0.309   5.455   2.046
20712WAT     H262379   0.179   5.378   1.984
20713WAT      O62380   1.158   4.090   7.470
20713WAT     H162381   1.167   4.078   7.569
20713WAT     H262382   1.062   4.079   7.443
20714WAT      O62383   5.780   6.768   3.817
20714WAT     H162384   5.717   6.692   3.833
20714WAT     H262385   5.756   6.844   3.877
20715WAT      O62386   2.774   9.354   5.029
20715WAT     H162387   2.827   9.280   5.071
20715WAT     H262388   2.771   9.432   5.091
20716WAT      O62389   8.798   4.686   6.280
20716WAT     H162390   8.716   4.739   6.302
20716WAT     H262391   8.857   4.740   6.220
20717WAT      O62392   5.709   3.835   4.849
20717WAT     H162393   5.716   3.735   4.854
20717WAT     H262394   5.734   3.865   4.758
20718WAT      O62395   9.543   7.992   7.111
20718WAT     H162396   9.539   8.029   7.203
20718WAT     H262397   9.460   8.018   7.061
20719WAT      O62398   3.714   7.514   9.549
20719WAT     H162399   3.727   7.529   9.451
20719WAT     H262400   3.645   7.444   9.564
20720WAT      O62401   2.875   6.411   9.130
20720WAT     H162402   2.873   6.509   9.146
20720WAT     H262403   2.795   6.384   9.077
20721WAT      O62404   9.765   5.680   5.603
20721WAT     H162405   9.713   5.759   5.636
20721WAT     H262406   9.734   5.658   5.510
20722WAT      O62407   2.436   1.132   6.750
20722WAT     H162408   2.496   1.177   6.685
20722WAT     H262409   2.372   1.072   6.701
20723WAT      O62410   3.083   3.572   7.661
20723WAT     H162411   3.100   3.571   7.760
20723WAT     H262412   3.010   3.506   7.640
20724WAT      O62413   3.057   0.728   1.947
20724WAT     H162414   3.040   0.749   1.851
20724WAT     H262415   3.105   0.805   1.990
20725WAT      O62416   2.789   9.590   7.052
20725WAT     H162417   2.829   9.545   6.972
20725WAT     H262418   2.689   9.594   7.041
20726WAT      O62419   8.569   4.736   0.372
20726WAT     H162420   8.618   4.781   0.297
20726WAT     H262421   8.603   4.642   0.381
20727WAT      O62422   2.927   4.778   0.411
20727WAT     H162423   2.873   4.771   0.495
20727WAT     H262424   2.901   4.705   0.348
20728WAT      O62425   7.124   8.815   7.482
20728WAT     H162426   7.117   8.904   7.527
20728WAT     H262427   7.034   8.770   7.484
20729WAT      O62428   4.217   8.603   6.778
20729WAT     H162429   4.302   8.557   6.804
20729WAT     H262430   4.146   8.535   6.758
20730WAT      O62431   6.222   1.796   3.216
20730WAT     H162432   6.302   1.747   3.249
20730WAT     H262433   6.238   1.828   3.123
20731WAT      O62434   0.681   5.883   2.148
20731WAT     H162435   0.693   5.961   2.210
20731WAT     H262436   0.754   5.884   2.079
20732WAT      O62437   9.360   4.318   1.610
20732WAT     H162438   9.445   4.268   1.589
20732WAT     H262439   9.379   4.388   1.679
20733WAT      O62440   9.015   1.549   4.927
20733WAT     H162441   9.070   1.492   4.865
20733WAT     H262442   8.952   1.604   4.873
20734WAT      O62443   8.286   1.998   9.638
20734WAT     H162444   8.202   2.024   9.591
20734WAT     H262445   8.335   1.931   9.584
20735WAT      O62446   8.634   0.193   9.643
20735WAT     H162447   8.679   0.180   9.731
20735WAT     H262448   8.654   0.285   9.609
20736WAT      O62449   4.187   9.047   6.570
20736WAT     H162450   4.165   8.957   6.607
20736WAT     H262451   4.206   9.039   6.472
20737WAT      O62452   9.536   9.148   6.972
20737WAT     H162453   9.605   9.128   6.903
20737WAT     H262454   9.468   9.075   6.975
20738WAT      O62455   6.214   4.870   7.020
20738WAT     H162456   6.171   4.843   7.106
20738WAT     H262457   6.153   4.849   6.944
20739WAT      O62458   7.389   7.054   1.606
20739WAT     H162459   7.322   7.019   1.671
20739WAT     H262460   7.479   7.014   1.626
20740WAT      O62461   7.349   4.925   4.494
20740WAT     H162462   7.393   4.924   4.405
20740WAT     H262463   7.262   4.974   4.488
20741WAT      O62464   5.392   5.528   3.755
20741WAT     H162465   5.366   5.625   3.761
20741WAT     H262466   5.488   5.518   3.783
20742WAT      O62467   2.129   7.305   2.338
20742WAT     H162468   2.112   7.261   2.426
20742WAT     H262469   2.225   7.294   2.313
20743WAT      O62470   7.442   3.563   8.967
20743WAT     H162471   7.379   3.593   9.039
20743WAT     H262472   7.474   3.643   8.916
20744WAT      O62473   6.199   1.024   0.033
20744WAT     H162474   6.212   0.925   0.022
20744WAT     H262475   6.252   1.072  -0.037
20745WAT      O62476   2.410   9.137   7.236
20745WAT     H162477   2.492   9.107   7.187
20745WAT     H262478   2.421   9.232   7.264
20746WAT      O62479   2.247   0.525   2.073
20746WAT     H162480   2.280   0.440   2.033
20746WAT     H262481   2.254   0.521   2.172
20747WAT      O62482   2.112   0.047   6.455
20747WAT     H162483   2.150   0.125   6.404
20747WAT     H262484   2.012   0.050   6.449
20748WAT      O62485   3.600   5.382   8.821
20748WAT     H162486   3.576   5.298   8.772
20748WAT     H262487   3.688   5.416   8.787
20749WAT      O62488   0.660   1.633   8.756
20749WAT     H162489   0.610   1.642   8.842
20749WAT     H262490   0.758   1.629   8.775
20750WAT      O62491   7.991   7.804   4.398
20750WAT     H162492   7.948   7.880   4.447
20750WAT     H262493   7.954   7.798   4.305
20751WAT      O62494   5.050   0.583   7.919
20751WAT     H162495   5.022   0.606   7.825
20751WAT     H262496   5.072   0.485   7.924
20752WAT      O62497   0.479   6.382   0.789
20752WAT     H162498   0.493   6.283   0.779
20752WAT     H262499   0.453   6.421   0.701
20753WAT      O62500   4.976   3.671   8.796
20753WAT     H162501   5.069   3.644   8.769
20753WAT     H262502   4.929   3.713   8.719
20754WAT      O62503   5.579   8.730   3.655
20754WAT     H162504   5.485   8.752   3.682
20754WAT     H262505   5.604   8.641   3.693
20755WAT      O62506   4.615   3.588   1.375
20755WAT     H162507   4.715   3.588   1.369
20755WAT     H262508   4.577   3.626   1.291
20756WAT      O62509   1.307   4.214   2.550
20756WAT     H162510   1.395   4.187   2.590
20756WAT     H262511   1.233   4.173   2.603
20757WAT      O62512   1.635   1.367   5.369
20757WAT     H162513   1.542   1.337   5.350
20757WAT     H262514   1.657   1.445   5.310
20758WAT      O62515   5.680   0.265   4.414
20758WAT     H162516   5.778   0.248   4.402
20758WAT     H262517   5.649   0.223   4.499
20759WAT      O62518   1.988   0.370   5.957
20759WAT     H162519   1.995   0.303   5.883
20759WAT     H262520   2.059   0.440   5.946
20760WAT      O62521   2.089   8.247   2.297
20760WAT     H162522   2.116   8.155   2.323
20760WAT     H262523   2.159   8.312   2.326
20761WAT      O62524   3.786   8.254   2.342
20761WAT     H162525   3.783   8.294   2.434
20761WAT     H262526   3.782   8.154   2.349
20762WAT      O62527   0.194   2.596   8.250
20762WAT     H162528   0.129   2.616   8.176
20762WAT     H262529   0.143   2.583   8.335
20763WAT      O62530   6.740   5.521   9.315
20763WAT     H162531   6.645   5.540   9.340
20763WAT     H262532   6.790   5.491   9.396
20764WAT      O62533   6.828   7.612   3.147
20764WAT     H162534   6.893   7.548   3.106
20764WAT     H262535   6.824   7.596   3.246
20765WAT      O62536   9.467   8.136   0.307
20765WAT     H162537   9.473   8.213   0.370
20765WAT     H262538   9.372   8.106   0.301
20766WAT      O62539   2.942   6.080   1.906
20766WAT     H162540   2.853   6.056   1.867
20766WAT     H262541   2.974   6.004   1.963
20767WAT      O62542   3.406   3.921   4.005
20767WAT     H162543   3.348   3.891   3.929
20767WAT     H262544   3.495   3.876   3.999
20768WAT      O62545   6.579   6.045   0.666
20768WAT     H162546   6.598   5.962   0.615
20768WAT     H262547   6.590   6.124   0.607
20769WAT      O62548   0.689   5.637   4.455
20769WAT     H162549   0.776   5.623   4.502
20769WAT     H262550   0.614   5.630   4.521
20770WAT      O62551   3.453   1.282   5.722
20770WAT     H162552   3.500   1.197   5.745
20770WAT     H262553   3.354   1.267   5.725
20771WAT      O62554   8.374   7.449   6.889
20771WAT     H162555   8.369   7.549   6.891
20771WAT     H262556   8.395   7.416   6.981
20772WAT      O62557   1.627   9.772   9.822
20772WAT     H162558   1.540   9.817   9.799
20772WAT     H262559   1.623   9.736   9.915
20773WAT      O62560   2.680   5.875   4.146
20773WAT     H162561   2.621   5.816   4.200
20773WAT     H262562   2.660   5.971   4.167
20774WAT      O62563   2.762   3.027   9.685
20774WAT     H162564   2.740   3.065   9.775
20774WAT     H262565   2.682   2.982   9.647
20775WAT      O62566   3.747   2.990   1.239
20775WAT     H162567   3.779   2.982   1.334
20775WAT     H262568   3.650   3.017   1.239
20776WAT      O62569   8.645   9.576   9.661
20776WAT     H162570   8.622   9.510   9.590
20776WAT     H262571   8.700   9.650   9.622
20777WAT      O62572   3.971   5.259   5.848
20777WAT     H162573   3.893   5.196   5.852
20777WAT     H262574   3.961   5.328   5.919
20778WAT      O62575   3.534   1.109   4.487
20778WAT     H162576   3.498   1.016   4.483
20778WAT     H262577   3.626   1.110   4.448
20779WAT      O62578   7.557   8.318   6.326
20779WAT     H162579   7.472   8.266   6.331
20779WAT     H262580   7.615   8.279   6.254
20780WAT      O62581   0.952   0.506   1.010
20780WAT     H162582   0.910   0.427   1.054
20780WAT     H262583   1.012   0.553   1.075
20781WAT      O62584   8.316   4.387   1.591
20781WAT     H162585   8.228   4.373   1.637
20781WAT     H262586   8.300   4.425   1.500
20782WAT      O62587   3.841   7.167   9.069
20782WAT     H162588   3.904   7.182   8.993
20782WAT     H262589   3.817   7.255   9.111
20783WAT      O62590   8.527   0.286   6.482
20783WAT     H162591   8.590   0.232   6.426
20783WAT     H262592   8.580   0.350   6.538
20784WAT      O62593   6.392   1.723   2.707
20784WAT     H162594   6.375   1.656   2.634
20784WAT     H262595   6.358   1.812   2.679
20785WAT      O62596   4.240   4.992   5.487
20785WAT     H162597   4.232   5.039   5.575
20785WAT     H262598   4.279   4.902   5.501
20786WAT      O62599   1.078   4.780   7.462
20786WAT     H162600   1.132   4.791   7.379
20786WAT     H262601   1.018   4.859   7.474
20787WAT      O62602   9.329   9.408   0.290
20787WAT     H162603   9.238   9.368   0.296
20787WAT     H262604   9.383   9.359   0.221
20788WAT      O62605   1.362   6.708   2.841
20788WAT     H162606   1.410   6.783   2.887
20788WAT     H262607   1.377   6.714   2.743
20789WAT      O62608   5.275   5.051   2.975
20789WAT     H162609   5.229   5.119   3.032
20789WAT     H262610   5.261   4.960   3.014
20790WAT      O62611   1.921   9.234   4.542
20790WAT     H162612   1.903   9.195   4.632
20790WAT     H262613   1.869   9.319   4.531
20791WAT      O62614   9.860   2.097   9.645
20791WAT     H162615   9.884   2.004   9.672
20791WAT     H262616   9.783   2.129   9.700
20792WAT      O62617   5.587   5.716   8.725
20792WAT     H162618   5.609   5.736   8.629
20792WAT     H262619   5.496   5.752   8.747
20793WAT      O62620   8.251   6.240   2.563
20793WAT     H162621   8.309   6.199   2.492
20793WAT     H262622   8.246   6.339   2.549
20794WAT      O62623   3.534   0.835   2.770
20794WAT     H162624   3.525   0.741   2.802
20794WAT     H262625   3.602   0.883   2.825
20795WAT      O62626   7.598   2.295   1.279
20795WAT     H162627   7.613   2.273   1.376
20795WAT     H262628   7.603   2.394   1.267
20796WAT      O62629   3.608   4.982   1.275
20796WAT     H162630   3.511   4.995   1.297
20796WAT     H262631   3.659   4.963   1.358
20797WAT      O62632   5.902   2.900   0.974
20797WAT     H162633   5.974   2.943   1.028
20797WAT     H262634   5.815   2.944   0.994
20798WAT      O62635   5.518   4.129   5.744
20798WAT     H162636   5.504   4.228   5.741
20798WAT     H262637   5.434   4.082   5.719
20799WAT      O62638   5.297   8.467   8.864
20799WAT     H162639   5.319   8.383   8.915
20799WAT     H262640   5.286   8.445   8.767
20800WAT      O62641   4.526   9.342   6.408
20800WAT     H162642   4.583   9.286   6.349
20800WAT     H262643   4.429   9.321   6.392
20801WAT      O62644   0.611   5.589   7.957
20801WAT     H162645   0.588   5.492   7.968
20801WAT     H262646   0.604   5.635   8.045
20802WAT      O62647   0.551   6.564   7.667
20802WAT     H162648   0.540   6.465   7.659
20802WAT     H262649   0.613   6.585   7.742
20803WAT      O62650   5.515   6.270   8.327
20803WAT     H162651   5.577   6.200   8.290
20803WAT     H262652   5.435   6.279   8.266
20804WAT      O62653   0.969   2.258   4.236
20804WAT     H162654   1.052   2.203   4.230
20804WAT     H262655   0.986   2.338   4.293
20805WAT      O62656   2.592   6.913   3.337
20805WAT     H162657   2.650   6.979   3.290
20805WAT     H262658   2.593   6.931   3.435
20806WAT      O62659   8.655   4.281   7.442
20806WAT     H162660   8.632   4.185   7.426
20806WAT     H262661   8.571   4.332   7.462
20807WAT      O62662   8.342   7.864   0.494
20807WAT     H162663   8.401   7.825   0.424
20807WAT     H262664   8.310   7.954   0.466
20808WAT      O62665   7.889   9.520   8.666
20808WAT     H162666   7.844   9.433   8.685
20808WAT     H262667   7.974   9.526   8.718
20809WAT      O62668   5.028   6.712   7.066
20809WAT     H162669   5.052   6.663   7.150
20809WAT     H262670   4.929   6.707   7.052
20810WAT      O62671   1.022   6.809   5.326
20810WAT     H162672   1.056   6.858   5.246
20810WAT     H262673   1.096   6.757   5.368
20811WAT      O62674   0.994   1.795   6.455
20811WAT     H162675   0.988   1.696   6.471
20811WAT     H262676   0.978   1.844   6.540
20812WAT      O62677   8.824   1.316   1.991
20812WAT     H162678   8.859   1.410   1.991
20812WAT     H262679   8.846   1.273   1.903
20813WAT      O62680   9.495   1.764   2.613
20813WAT     H162681   9.492   1.830   2.538
20813WAT     H262682   9.540   1.681   2.581
20814WAT      O62683   9.254   4.991   5.597
20814WAT     H162684   9.182   5.058   5.579
20814WAT     H262685   9.332   5.009   5.537
20815WAT      O62686   5.839   5.193   8.933
20815WAT     H162687   5.842   5.099   8.967
20815WAT     H262688   5.751   5.234   8.957
20816WAT      O62689   3.914   6.336   8.243
20816WAT     H162690   3.891   6.241   8.219
20816WAT     H262691   3.990   6.367   8.186
20817WAT      O62692   7.571   8.911   2.544
20817WAT     H162693   7.492   8.924   2.484
20817WAT     H262694   7.656   8.923   2.492
20818WAT      O62695   4.517   8.827   4.720
20818WAT     H162696   4.471   8.754   4.771
20818WAT     H262697   4.454   8.867   4.654
20819WAT      O62698   0.869   9.261   6.064
20819WAT     H162699   0.906   9.347   6.101
20819WAT     H262700   0.893   9.185   6.125
20820WAT      O62701   6.680   0.171   5.014
20820WAT     H162702   6.599   0.229   5.001
20820WAT     H262703   6.657   0.096   5.076
20821WAT      O62704   0.380   6.113   5.689
20821WAT     H162705   0.442   6.048   5.733
20821WAT     H262706   0.286   6.091   5.716
20822WAT      O62707   7.011   5.305   6.992
20822WAT     H162708   7.047   5.228   7.045
20822WAT     H262709   7.077   5.379   6.992
20823WAT      O62710   1.914   8.015   0.963
20823WAT     H162711   2.007   8.014   1.000
20823WAT     H262712   1.915   8.050   0.870
20824WAT      O62713   6.580   1.657   0.377
20824WAT     H162714   6.635   1.686   0.455
20824WAT     H262715   6.532   1.572   0.400
20825WAT      O62716   4.107   4.101   0.369
20825WAT     H162717   4.032   4.073   0.430
20825WAT     H262718   4.115   4.034   0.295
20826WAT      O62719   2.733   3.654   1.587
20826WAT     H162720   2.776   3.683   1.672
20826WAT     H262721   2.799   3.663   1.512
20827WAT      O62722   2.693   9.399   2.763
20827WAT     H162723   2.636   9.478   2.782
20827WAT     H262724   2.694   9.338   2.842
20828WAT      O62725   8.660   6.433   9.559
20828WAT     H162726   8.736   6.490   9.588
20828WAT     H262727   8.588   6.435   9.628
20829WAT      O62728   5.525   4.075   0.203
20829WAT     H162729   5.602   4.086   0.139
20829WAT     H262730   5.440   4.098   0.157
20830WAT      O62731   7.935   8.029   4.230
20830WAT     H162732   7.939   8.086   4.312
20830WAT     H262733   7.995   8.067   4.160
20831WAT      O62734   0.682   2.998   6.742
20831WAT     H162735   0.672   2.942   6.660
20831WAT     H262736   0.726   3.084   6.718
20832WAT      O62737   3.207   4.080   7.765
20832WAT     H162738   3.216   4.022   7.846
20832WAT     H262739   3.114   4.073   7.729
20833WAT      O62740   6.724   0.766   8.965
20833WAT     H162741   6.637   0.723   8.939
20833WAT     H262742   6.713   0.810   9.054
20834WAT      O62743   5.582   2.031   5.108
20834WAT     H162744   5.564   1.978   5.025
20834WAT     H262745   5.681   2.037   5.122
20835WAT      O62746   9.550   3.818   3.660
20835WAT     H162747   9.646   3.821   3.632
20835WAT     H262748   9.510   3.910   3.653
20836WAT      O62749   3.616   9.819   9.544
20836WAT     H162750   3.538   9.876   9.518
20836WAT     H262751   3.675   9.869   9.607
20837WAT      O62752   1.383   2.655   4.304
20837WAT     H162753   1.339   2.569   4.279
20837WAT     H262754   1.314   2.719   4.336
20838WAT      O62755   5.756   4.424   5.964
20838WAT     H162756   5.704   4.363   6.025
20838WAT     H262757   5.826   4.371   5.916
20839WAT      O62758   5.601   1.703   7.190
20839WAT     H162759   5.633   1.748   7.273
20839WAT     H262760   5.539   1.764   7.140
20840WAT      O62761   1.973   6.881   6.355
20840WAT     H162762   1.940   6.883   6.261
20840WAT     H262763   2.031   6.960   6.372
20841WAT      O62764   0.071   0.931   8.360
20841WAT     H162765   0.045   0.918   8.264
20841WAT     H262766   0.032   1.018   8.393
20842WAT      O62767   9.136   1.843   4.779
20842WAT     H162768   9.151   1.758   4.728
20842WAT     H262769   9.039   1.866   4.777
20843WAT      O62770   5.836   9.250   9.394
20843WAT     H162771   5.809   9.213   9.482
20843WAT     H262772   5.914   9.198   9.358
20844WAT      O62773   8.036   4.301   7.767
20844WAT     H162774   8.131   4.269   7.772
20844WAT     H262775   7.993   4.267   7.683
20845WAT      O62776   0.575   7.996   1.546
20845WAT     H162777   0.632   8.010   1.465
20845WAT     H262778   0.604   8.058   1.619
20846WAT      O62779   1.993   1.305   7.573
20846WAT     H162780   1.946   1.355   7.501
20846WAT     H262781   2.084   1.344   7.586
20847WAT      O62782   4.623   7.604   7.025
20847WAT     H162783   4.671   7.659   7.093
20847WAT     H262784   4.570   7.533   7.070
20848WAT      O62785   2.825   2.170   4.036
20848WAT     H162786   2.920   2.198   4.036
20848WAT     H262787   2.810   2.103   3.963
20849WAT      O62788   6.684   4.462   9.249
20849WAT     H162789   6.758   4.407   9.287
20849WAT     H262790   6.598   4.411   9.258
20850WAT      O62791   4.855   1.438   6.744
20850WAT     H162792   4.899   1.376   6.809
20850WAT     H262793   4.842   1.527   6.787
20851WAT      O62794   5.685   0.906   6.152
20851WAT     H162795   5.595   0.869   6.177
20851WAT     H262796   5.733   0.841   6.093
20852WAT      O62797   6.752   2.231   9.132
20852WAT     H162798   6.749   2.315   9.186
20852WAT     H262799   6.846   2.215   9.101
20853WAT      O62800   3.647   9.754   6.867
20853WAT     H162801   3.674   9.837   6.820
20853WAT     H262802   3.728   9.705   6.900
20854WAT      O62803   2.342   0.589   9.559
20854WAT     H162804   2.369   0.670   9.611
20854WAT     H262805   2.249   0.562   9.586
20855WAT      O62806   7.242   2.030   9.228
20855WAT     H162807   7.297   2.070   9.300
20855WAT     H262808   7.182   1.960   9.267
20856WAT      O62809   4.778   2.937   8.578
20856WAT     H162810   4.773   2.885   8.663
20856WAT     H262811   4.871   2.974   8.567
20857WAT      O62812   5.354   0.402   1.787
20857WAT     H162813   5.320   0.317   1.827
20857WAT     H262814   5.301   0.479   1.822
20858WAT      O62815   6.353   5.356   5.298
20858WAT     H162816   6.334   5.452   5.316
20858WAT     H262817   6.283   5.318   5.238
20859WAT      O62818   4.570   5.504   0.257
20859WAT     H162819   4.613   5.499   0.346
20859WAT     H262820   4.603   5.430   0.199
20860WAT      O62821   6.685   8.372   1.471
20860WAT     H162822   6.673   8.437   1.395
20860WAT     H262823   6.655   8.281   1.442
20861WAT      O62824   7.656   1.440   5.384
20861WAT     H162825   7.566   1.427   5.342
20861WAT     H262826   7.727   1.420   5.317
20862WAT      O62827   9.127   3.069   1.339
20862WAT     H162828   9.153   3.161   1.369
20862WAT     H262829   9.117   3.010   1.419
20863WAT      O62830   8.316   6.195   7.956
20863WAT     H162831   8.260   6.186   8.038
20863WAT     H262832   8.307   6.288   7.919
20864WAT      O62833   7.803   5.718   6.142
20864WAT     H162834   7.880   5.654   6.137
20864WAT     H262835   7.816   5.781   6.218
20865WAT      O62836   8.355   7.711   5.757
20865WAT     H162837   8.320   7.630   5.804
20865WAT     H262838   8.279   7.766   5.725
20866WAT      O62839   8.813   0.763   4.989
20866WAT     H162840   8.913   0.763   4.995
20866WAT     H262841   8.783   0.676   4.949
20867WAT      O62842   3.568   7.965   3.142
20867WAT     H162843   3.539   8.060   3.131
20867WAT     H262844   3.488   7.905   3.140
20868WAT      O62845   3.598   8.500   0.494
20868WAT     H162846   3.669   8.433   0.476
20868WAT     H262847   3.525   8.459   0.548
20869WAT      O62848   8.224   3.051   4.315
20869WAT     H162849   8.179   3.019   4.398
20869WAT     H262850   8.162   3.041   4.237
20870WAT      O62851   2.435   3.239   7.237
20870WAT     H162852   2.395   3.275   7.152
20870WAT     H262853   2.533   3.225   7.224
20871WAT      O62854   0.935   2.571   0.544
20871WAT     H162855   0.870   2.496   0.559
20871WAT     H262856   0.916   2.615   0.456
20872WAT      O62857   6.632   1.774   7.304
20872WAT     H162858   6.675   1.814   7.223
20872WAT     H262859   6.703   1.745   7.368
20873WAT      O62860   5.591   6.007   9.639
20873WAT     H162861   5.648   6.079   9.600
20873WAT     H262862   5.620   5.918   9.603
20874WAT      O62863   2.948   2.274   7.849
20874WAT     H162864   2.927   2.210   7.923
20874WAT     H262865   2.935   2.228   7.761
20875WAT      O62866   3.249   6.950   7.168
20875WAT     H162867   3.176   6.882   7.182
20875WAT     H262868   3.227   7.007   7.089
20876WAT      O62869   6.420   9.054   9.778
20876WAT     H162870   6.480   9.072   9.856
20876WAT     H262871   6.473   9.060   9.694
20877WAT      O62872   9.462   9.760   9.658
20877WAT     H162873   9.458   9.727   9.752
20877WAT     H262874   9.557   9.769   9.630
20878WAT      O62875   5.360   4.418   9.788
20878WAT     H162876   5.280   4.378   9.744
20878WAT     H262877   5.378   4.371   9.874
20879WAT      O62878   8.302   8.011   3.646
20879WAT     H162879   8.231   8.021   3.576
20879WAT     H262880   8.391   8.000   3.602
20880WAT      O62881   4.653   4.011   0.150
20880WAT     H162882   4.570   4.067   0.152
20880WAT     H262883   4.636   3.925   0.197
20881WAT      O62884   7.369   4.552   9.382
20881WAT     H162885   7.449   4.497   9.407
20881WAT     H262886   7.298   4.542   9.451
20882WAT      O62887   9.118   7.579   0.493
20882WAT     H162888   9.070   7.610   0.575
20882WAT     H262889   9.067   7.504   0.451
20883WAT      O62890   0.258   5.803   4.990
20883WAT     H162891   0.197   5.844   5.058
20883WAT     H262892   0.345   5.853   4.988
20884WAT      O62893   1.605   3.534   9.102
20884WAT     H162894   1.661   3.615   9.084
20884WAT     H262895   1.532   3.529   9.034
20885WAT      O62896   1.643   4.242   2.976
20885WAT     H162897   1.628   4.188   3.058
20885WAT     H262898   1.709   4.196   2.917
20886WAT      O62899   3.687   7.351   6.612
20886WAT     H162900   3.713   7.414   6.685
20886WAT     H262901   3.747   7.364   6.534
20887WAT      O62902   3.192   2.635   9.357
20887WAT     H162903   3.176   2.554   9.413
20887WAT     H262904   3.105   2.675   9.330
20888WAT      O62905   0.729   7.703   5.143
20888WAT     H162906   0.817   7.733   5.179
20888WAT     H262907   0.743   7.625   5.082
20889WAT      O62908   4.058   6.798   4.915
20889WAT     H162909   4.060   6.767   5.010
20889WAT     H262910   4.090   6.725   4.855
20890WAT      O62911   9.819   4.876   0.459
20890WAT     H162912   9.722   4.853   0.472
20890WAT     H262913   9.841   4.958   0.513
20891WAT      O62914   5.230   6.749   4.974
20891WAT     H162915   5.319   6.791   4.989
20891WAT     H262916   5.165   6.785   5.041
20892WAT      O62917   0.833   9.139   4.342
20892WAT     H162918   0.871   9.111   4.430
20892WAT     H262919   0.746   9.091   4.326
20893WAT      O62920   2.522   4.926   0.481
20893WAT     H162921   2.531   4.828   0.460
20893WAT     H262922   2.465   4.938   0.562
20894WAT      O62923   4.706   7.621   7.444
20894WAT     H162924   4.633   7.558   7.417
20894WAT     H262925   4.691   7.651   7.538
20895WAT      O62926   8.937   2.796   7.334
20895WAT     H162927   8.908   2.748   7.417
20895WAT     H262928   9.028   2.834   7.349
20896WAT      O62929   6.696   5.484   5.972
20896WAT     H162930   6.606   5.470   5.933
20896WAT     H262931   6.697   5.450   6.066
20897WAT      O62932   4.831   5.267   9.243
20897WAT     H162933   4.872   5.176   9.236
20897WAT     H262934   4.887   5.325   9.303
20898WAT      O62935   9.498   2.925   2.824
20898WAT     H162936   9.408   2.960   2.849
20898WAT     H262937   9.568   2.969   2.880
20899WAT      O62938   0.735   7.547   4.440
20899WAT     H162939   0.708   7.465   4.391
20899WAT     H262940   0.760   7.523   4.534
20900WAT      O62941   6.042   4.849   6.295
20900WAT     H162942   5.953   4.804   6.302
20900WAT     H262943   6.048   4.896   6.207
20901WAT      O62944   3.282   8.315   6.574
20901WAT     H162945   3.273   8.283   6.669
20901WAT     H262946   3.200   8.365   6.548
20902WAT      O62947   5.863   1.235   4.025
20902WAT     H162948   5.850   1.149   3.976
20902WAT     H262949   5.818   1.231   4.114
20903WAT      O62950   2.891   1.056   2.808
20903WAT     H162951   2.873   1.100   2.896
20903WAT     H262952   2.806   1.048   2.756
20904WAT      O62953   7.600   4.404   0.901
20904WAT     H162954   7.512   4.361   0.924
20904WAT     H262955   7.588   4.463   0.822
20905WAT      O62956   5.254   8.229   1.797
20905WAT     H162957   5.255   8.162   1.871
20905WAT     H262958   5.215   8.187   1.715
20906WAT      O62959   9.419   5.007   8.759
20906WAT     H162960   9.359   4.974   8.686
20906WAT     H262961   9.511   5.020   8.722
20907WAT      O62962   5.055   5.619   8.561
20907WAT     H162963   5.079   5.696   8.502
20907WAT     H262964   5.130   5.599   8.624
20908WAT      O62965   6.471   7.171   9.563
20908WAT     H162966   6.531   7.104   9.605
20908WAT     H262967   6.481   7.259   9.610
20909WAT      O62968   6.918   7.054   4.924
20909WAT     H162969   6.957   6.967   4.955
20909WAT     H262970   6.868   7.096   5.000
20910WAT      O62971   9.720   4.890   2.308
20910WAT     H162972   9.692   4.852   2.396
20910WAT     H262973   9.804   4.845   2.277
20911WAT      O62974   2.037   1.288   3.550
20911WAT     H162975   2.105   1.360   3.537
20911WAT     H262976   1.975   1.314   3.625
20912WAT      O62977   7.068   6.553   5.217
20912WAT     H162978   7.136   6.489   5.181
20912WAT     H262979   7.076   6.558   5.316
20913WAT      O62980   4.246   3.682   8.889
20913WAT     H162981   4.304   3.601   8.901
20913WAT     H262982   4.176   3.683   8.960
20914WAT      O62983   3.702   3.318   6.412
20914WAT     H162984   3.723   3.221   6.422
20914WAT     H262985   3.751   3.371   6.482
20915WAT      O62986   4.866   2.455   8.258
20915WAT     H162987   4.862   2.542   8.308
20915WAT     H262988   4.933   2.462   8.185
20916WAT      O62989   3.489   7.861   8.943
20916WAT     H162990   3.391   7.880   8.937
20916WAT     H262991   3.532   7.881   8.856
20917WAT      O62992   1.020   4.249   0.909
20917WAT     H162993   1.079   4.216   0.835
20917WAT     H262994   1.076   4.293   0.979
20918WAT      O62995   1.788   8.951   4.460
20918WAT     H162996   1.846   8.872   4.480
20918WAT     H262997   1.831   9.034   4.495
20919WAT      O62998   7.814   7.969   4.514
20919WAT     H162999   7.851   8.061   4.509
20919WAT     H263000   7.717   7.973   4.538
20920WAT      O63001   6.717   6.912   6.959
20920WAT     H163002   6.746   6.998   6.916
20920WAT     H263003   6.721   6.838   6.892
20921WAT      O63004   5.307   2.470   3.534
20921WAT     H163005   5.312   2.370   3.525
20921WAT     H263006   5.296   2.511   3.444
20922WAT      O63007   2.031   0.823   3.481
20922WAT     H163008   2.049   0.742   3.535
20922WAT     H263009   2.118   0.868   3.457
20923WAT      O63010   7.922   7.075   2.671
20923WAT     H163011   7.863   7.133   2.615
20923WAT     H263012   7.870   7.042   2.750
20924WAT      O63013   5.305   4.916   9.113
20924WAT     H163014   5.224   4.941   9.060
20924WAT     H263015   5.385   4.917   9.054
20925WAT      O63016   6.803   4.953   9.074
20925WAT     H163017   6.762   4.867   9.042
20925WAT     H263018   6.861   4.991   9.002
20926WAT      O63019   1.404   3.308   7.340
20926WAT     H163020   1.369   3.386   7.288
20926WAT     H263021   1.504   3.307   7.335
20927WAT      O63022   7.033   3.890   3.536
20927WAT     H163023   7.072   3.912   3.446
20927WAT     H263024   7.019   3.975   3.587
20928WAT      O63025   7.256   2.893   0.386
20928WAT     H163026   7.202   2.912   0.468
20928WAT     H263027   7.229   2.957   0.314
20929WAT      O63028   0.401   1.624   6.708
20929WAT     H163029   0.481   1.628   6.649
20929WAT     H263030   0.418   1.677   6.792
20930WAT      O63031   2.278   3.355   6.515
20930WAT     H163032   2.196   3.306   6.545
20930WAT     H263033   2.323   3.304   6.442
20931WAT      O63034   8.753   1.087   2.966
20931WAT     H163035   8.689   1.020   3.004
20931WAT     H263036   8.837   1.087   3.020
20932WAT      O63037   5.491   8.154   4.936
20932WAT     H163038   5.418   8.220   4.950
20932WAT     H263039   5.560   8.193   4.875
20933WAT      O63040   4.155   7.627   8.853
20933WAT     H163041   4.059   7.653   8.838
20933WAT     H263042   4.205   7.633   8.767
20934WAT      O63043   2.174   0.814   2.960
20934WAT     H163044   2.077   0.836   2.974
20934WAT     H263045   2.216   0.791   3.048
20935WAT      O63046   3.118   1.869   9.645
20935WAT     H163047   3.127   1.804   9.720
20935WAT     H263048   3.093   1.820   9.561
20936WAT      O63049   8.421   7.688   8.526
20936WAT     H163050   8.514   7.722   8.519
20936WAT     H263051   8.411   7.605   8.471
20937WAT      O63052   4.055   7.142   9.742
20937WAT     H163053   4.019   7.083   9.815
20937WAT     H263054   4.035   7.237   9.764
20938WAT      O63055   7.258   9.002   9.715
20938WAT     H163056   7.241   8.918   9.662
20938WAT     H263057   7.350   9.036   9.695
20939WAT      O63058   8.996   0.087   8.794
20939WAT     H163059   9.057   0.161   8.824
20939WAT     H263060   8.910   0.127   8.761
20940WAT      O63061   5.273   5.222   6.463
20940WAT     H163062   5.257   5.271   6.377
20940WAT     H263063   5.304   5.129   6.443
20941WAT      O63064   1.161   8.826   2.745
20941WAT     H163065   1.229   8.894   2.772
20941WAT     H263066   1.205   8.752   2.695
20942WAT      O63067   9.233   5.447   3.480
20942WAT     H163068   9.160   5.500   3.524
20942WAT     H263069   9.320   5.494   3.494
20943WAT      O63070   2.908   1.291   6.065
20943WAT     H163071   2.984   1.351   6.092
20943WAT     H263072   2.824   1.321   6.110
20944WAT      O63073   6.237   9.466   1.139
20944WAT     H163074   6.153   9.461   1.192
20944WAT     H263075   6.301   9.396   1.171
20945WAT      O63076   8.270   3.324   7.839
20945WAT     H163077   8.348   3.366   7.793
20945WAT     H263078   8.187   3.340   7.785
20946WAT      O63079   3.288   2.765   8.976
20946WAT     H163080   3.249   2.694   8.917
20946WAT     H263081   3.215   2.827   9.006
20947WAT      O63082   4.387   6.890   9.580
20947WAT     H163083   4.333   6.974   9.572
20947WAT     H263084   4.402   6.852   9.489
20948WAT      O63085   1.439   9.011   0.308
20948WAT     H163086   1.480   8.980   0.394
20948WAT     H263087   1.342   8.990   0.308
20949WAT      O63088   4.909   4.616   7.746
20949WAT     H163089   4.902   4.700   7.800
20949WAT     H263090   5.003   4.607   7.712
20950WAT      O63091   7.750   1.470   3.127
20950WAT     H163092   7.731   1.412   3.207
20950WAT     H263093   7.810   1.420   3.064
20951WAT      O63094   4.672   8.993   9.708
20951WAT     H163095   4.662   8.901   9.746
20951WAT     H263096   4.734   8.990   9.630
20952WAT      O63097   0.936   1.928   2.089
20952WAT     H163098   0.910   1.961   2.180
20952WAT     H263099   1.003   1.854   2.098
20953WAT      O63100   7.783   9.079   8.209
20953WAT     H163101   7.849   9.091   8.283
20953WAT     H263102   7.710   9.146   8.219
20954WAT      O63103   4.180   6.095   8.978
20954WAT     H163104   4.107   6.065   8.917
20954WAT     H263105   4.141   6.123   9.066
20955WAT      O63106   9.343   0.769   4.973
20955WAT     H163107   9.333   0.800   5.068
20955WAT     H263108   9.268   0.707   4.950
20956WAT      O63109   2.356   9.684   9.129
20956WAT     H163110   2.339   9.675   9.227
20956WAT     H263111   2.392   9.775   9.110
20957WAT      O63112   0.065   4.904   2.852
20957WAT     H163113   0.102   4.834   2.791
20957WAT     H263114   0.018   4.974   2.797
20958WAT      O63115   7.354   0.946   3.227
20958WAT     H163116   7.339   0.864   3.282
20958WAT     H263117   7.379   1.022   3.288
20959WAT      O63118   0.256   5.658   0.582
20959WAT     H163119   0.313   5.636   0.503
20959WAT     H263120   0.196   5.735   0.560
20960WAT      O63121   7.986   7.469   2.271
20960WAT     H163122   8.078   7.506   2.267
20960WAT     H263123   7.936   7.510   2.347
20961WAT      O63124   8.029   4.012   0.947
20961WAT     H163125   7.995   4.014   1.041
20961WAT     H263126   8.078   4.097   0.928
20962WAT      O63127   6.383   7.340   7.395
20962WAT     H163128   6.334   7.414   7.349
20962WAT     H263129   6.474   7.331   7.355
20963WAT      O63130   3.944   1.810   8.384
20963WAT     H163131   4.036   1.794   8.348
20963WAT     H263132   3.884   1.734   8.357
20964WAT      O63133   1.707   7.788   0.392
20964WAT     H163134   1.721   7.701   0.343
20964WAT     H263135   1.623   7.831   0.359
20965WAT      O63136   8.336   1.675   4.282
20965WAT     H163137   8.387   1.666   4.368
20965WAT     H263138   8.394   1.720   4.214
20966WAT      O63139   5.429   1.981   9.573
20966WAT     H163140   5.365   1.954   9.501
20966WAT     H263141   5.505   2.033   9.534
20967WAT      O63142   1.502   5.117   8.778
20967WAT     H163143   1.519   5.097   8.874
20967WAT     H263144   1.403   5.118   8.760
20968WAT      O63145   0.235   2.070   5.667
20968WAT     H163146   0.311   2.014   5.634
20968WAT     H263147   0.206   2.036   5.756
20969WAT      O63148   4.915   2.613   0.630
20969WAT     H163149   4.833   2.650   0.674
20969WAT     H263150   4.997   2.653   0.673
20970WAT      O63151   7.185   6.605   6.232
20970WAT     H163152   7.134   6.536   6.284
20970WAT     H263153   7.222   6.673   6.295
20971WAT      O63154   9.375   8.891   9.020
20971WAT     H163155   9.334   8.900   8.929
20971WAT     H263156   9.470   8.862   9.011
20972WAT      O63157   8.129   2.027   3.610
20972WAT     H163158   8.189   2.080   3.670
20972WAT     H263159   8.128   1.931   3.639
20973WAT      O63160   8.393   4.113   0.106
20973WAT     H163161   8.354   4.073   0.023
20973WAT     H263162   8.319   4.140   0.167
20974WAT      O63163   2.369   7.464   1.270
20974WAT     H163164   2.448   7.502   1.318
20974WAT     H263165   2.379   7.481   1.172
20975WAT      O63166   5.402   8.109   0.674
20975WAT     H163167   5.351   8.032   0.634
20975WAT     H263168   5.491   8.077   0.705
20976WAT      O63169   5.711   8.388   3.304
20976WAT     H163170   5.630   8.446   3.301
20976WAT     H263171   5.688   8.301   3.348
20977WAT      O63172   7.151   2.932   7.814
20977WAT     H163173   7.227   2.941   7.878
20977WAT     H263174   7.090   3.011   7.823
20978WAT      O63175   8.467   2.727   3.421
20978WAT     H163176   8.529   2.767   3.489
20978WAT     H263177   8.376   2.718   3.461
20979WAT      O63178   1.843   6.450   9.053
20979WAT     H163179   1.816   6.469   9.148
20979WAT     H263180   1.803   6.363   9.025
20980WAT      O63181   7.862   0.700   8.833
20980WAT     H163182   7.884   0.644   8.753
20980WAT     H263183   7.847   0.640   8.912
20981WAT      O63184   8.436   6.178   2.357
20981WAT     H163185   8.361   6.201   2.295
20981WAT     H263186   8.519   6.225   2.329
20982WAT      O63187   7.547   9.462   5.016
20982WAT     H163188   7.491   9.480   4.934
20982WAT     H263189   7.620   9.398   4.993
20983WAT      O63190   7.714   9.372   6.028
20983WAT     H163191   7.645   9.300   6.015
20983WAT     H263192   7.675   9.447   6.082
20984WAT      O63193   3.208   7.540   8.966
20984WAT     H163194   3.133   7.482   8.997
20984WAT     H263195   3.200   7.631   9.007
20985WAT      O63196   5.668   9.643   8.033
20985WAT     H163197   5.689   9.726   7.981
20985WAT     H263198   5.716   9.565   7.991
20986WAT      O63199   0.497   2.295   6.272
20986WAT     H163200   0.487   2.197   6.284
20986WAT     H263201   0.591   2.317   6.244
20987WAT      O63202   1.235   7.971   8.491
20987WAT     H163203   1.212   8.059   8.533
20987WAT     H263204   1.223   7.978   8.392
20988WAT      O63205   5.302   3.266   2.918
20988WAT     H163206   5.383   3.212   2.898
20988WAT     H263207   5.323   3.333   2.989
20989WAT      O63208   3.560   9.031   6.791
20989WAT     H163209   3.577   8.933   6.781
20989WAT     H263210   3.462   9.048   6.798
20990WAT      O63211   1.232   8.906   4.759
20990WAT     H163212   1.320   8.892   4.714
20990WAT     H263213   1.165   8.841   4.724
20991WAT      O63214   5.454   4.879   7.567
20991WAT     H163215   5.432   4.870   7.470
20991WAT     H263216   5.533   4.940   7.578
20992WAT      O63217   3.791   4.016   4.258
20992WAT     H163218   3.790   3.969   4.170
20992WAT     H263219   3.882   4.010   4.299
20993WAT      O63220   9.258   4.784   6.677
20993WAT     H163221   9.321   4.844   6.627
20993WAT     H263222   9.204   4.730   6.613
20994WAT      O63223   7.455   4.611   6.849
20994WAT     H163224   7.420   4.679   6.784
20994WAT     H263225   7.490   4.658   6.930
20995WAT      O63226   9.648   5.240   9.371
20995WAT     H163227   9.561   5.203   9.337
20995WAT     H263228   9.719   5.169   9.365
20996WAT      O63229   4.162   6.814   8.544
20996WAT     H163230   4.082   6.789   8.598
20996WAT     H263231   4.234   6.850   8.604
20997WAT      O63232   7.388   2.493   9.794
20997WAT     H163233   7.425   2.502   9.887
20997WAT     H263234   7.295   2.457   9.799
20998WAT      O63235   8.617   9.698   1.162
20998WAT     H163236   8.618   9.609   1.116
20998WAT     H263237   8.706   9.742   1.151
20999WAT      O63238   2.504   9.683   8.858
20999WAT     H163239   2.582   9.623   8.877
20999WAT     H263240   2.426   9.655   8.914
21000WAT      O63241   9.252   8.123   8.524
21000WAT     H163242   9.207   8.102   8.438
21000WAT     H263243   9.295   8.039   8.560
21001WAT      O63244   7.853   5.685   3.121
21001WAT     H163245   7.778   5.722   3.175
21001WAT     H263246   7.826   5.682   3.024
21002WAT      O63247   2.055   2.793   0.622
21002WAT     H163248   2.093   2.708   0.587
21002WAT     H263249   2.129   2.859   0.637
21003WAT      O63250   3.381   2.582   2.179
21003WAT     H163251   3.453   2.595   2.247
21003WAT     H263252   3.412   2.517   2.109
21004WAT      O63253   8.378   1.700   3.842
21004WAT     H163254   8.351   1.635   3.771
21004WAT     H263255   8.441   1.768   3.804
21005WAT      O63256   3.488   1.746   7.607
21005WAT     H163257   3.492   1.758   7.508
21005WAT     H263258   3.396   1.767   7.640
21006WAT      O63259   6.750   4.683   9.096
21006WAT     H163260   6.696   4.701   9.014
21006WAT     H263261   6.707   4.610   9.149
21007WAT      O63262   1.756   7.457   4.969
21007WAT     H163263   1.816   7.489   5.042
21007WAT     H263264   1.809   7.402   4.904
21008WAT      O63265   8.538   1.040   3.698
21008WAT     H163266   8.556   0.953   3.742
21008WAT     H263267   8.474   1.027   3.622
21009WAT      O63268   0.312   4.885   7.652
21009WAT     H163269   0.374   4.963   7.656
21009WAT     H263270   0.260   4.887   7.567
21010WAT      O63271   6.481   6.740   3.429
21010WAT     H163272   6.444   6.763   3.519
21010WAT     H263273   6.581   6.731   3.436
21011WAT      O63274   4.258   2.475   9.244
21011WAT     H163275   4.197   2.542   9.204
21011WAT     H263276   4.204   2.403   9.289
21012WAT      O63277   2.788   2.368   1.653
21012WAT     H163278   2.781   2.442   1.720
21012WAT     H263279   2.845   2.295   1.690
21013WAT      O63280   9.131   6.914   7.212
21013WAT     H163281   9.031   6.912   7.221
21013WAT     H263282   9.157   6.883   7.120
21014WAT      O63283   9.015   0.440   0.650
21014WAT     H163284   9.034   0.409   0.743
21014WAT     H263285   9.087   0.407   0.588
21015WAT      O63286   9.548   1.000   1.017
21015WAT     H163287   9.577   1.081   1.068
21015WAT     H263288   9.602   0.992   0.934
21016WAT      O63289   1.604   8.952   1.097
21016WAT     H163290   1.608   9.052   1.099
21016WAT     H263291   1.559   8.919   1.180
21017WAT      O63292   4.389   0.468   8.206
21017WAT     H163293   4.441   0.383   8.195
21017WAT     H263294   4.452   0.543   8.226
21018WAT      O63295   2.680   1.773   8.299
21018WAT     H163296   2.627   1.735   8.374
21018WAT     H263297   2.773   1.794   8.330
21019WAT      O63298   5.922   2.839   1.643
21019WAT     H163299   5.940   2.814   1.738
21019WAT     H263300   5.865   2.921   1.640
21020WAT      O63301   2.841   2.218   5.410
21020WAT     H163302   2.846   2.313   5.377
21020WAT     H263303   2.860   2.155   5.335
21021WAT      O63304   1.821   0.477   2.468
21021WAT     H163305   1.767   0.560   2.485
21021WAT     H263306   1.895   0.472   2.535
21022WAT      O63307   9.210   8.029   3.489
21022WAT     H163308   9.304   7.996   3.487
21022WAT     H263309   9.209   8.126   3.513
21023WAT      O63310   3.527   3.995   5.485
21023WAT     H163311   3.624   4.019   5.478
21023WAT     H263312   3.516   3.913   5.541
21024WAT      O63313   4.821   4.480   1.213
21024WAT     H163314   4.889   4.519   1.151
21024WAT     H263315   4.866   4.450   1.297
21025WAT      O63316   8.904   1.186   9.704
21025WAT     H163317   8.952   1.099   9.692
21025WAT     H263318   8.841   1.179   9.781
21026WAT      O63319   4.885   4.981   6.630
21026WAT     H163320   4.854   4.962   6.537
21026WAT     H263321   4.945   5.061   6.630
21027WAT      O63322   0.833   9.628   8.393
21027WAT     H163323   0.740   9.609   8.424
21027WAT     H263324   0.830   9.697   8.320
21028WAT      O63325   4.250   7.277   8.875
21028WAT     H163326   4.292   7.311   8.791
21028WAT     H263327   4.319   7.231   8.930
21029WAT      O63328   9.308   9.216   7.580
21029WAT     H163329   9.348   9.258   7.498
21029WAT     H263330   9.350   9.255   7.662
21030WAT      O63331   3.709   9.270   3.294
21030WAT     H163332   3.798   9.231   3.319
21030WAT     H263333   3.639   9.200   3.304
21031WAT      O63334   1.855   4.890   8.353
21031WAT     H163335   1.812   4.971   8.314
21031WAT     H263336   1.790   4.814   8.351
21032WAT      O63337   5.598   2.562   6.777
21032WAT     H163338   5.657   2.529   6.851
21032WAT     H263339   5.515   2.600   6.816
21033WAT      O63340   1.507   2.318   4.364
21033WAT     H163341   1.509   2.237   4.423
21033WAT     H263342   1.412   2.338   4.339
21034WAT      O63343   1.209   5.782   8.735
21034WAT     H163344   1.262   5.801   8.817
21034WAT     H263345   1.268   5.744   8.664
21035WAT      O63346   7.938   8.649   9.486
21035WAT     H163347   7.846   8.669   9.519
21035WAT     H263348   7.976   8.731   9.444
21036WAT      O63349   6.015   4.791   2.857
21036WAT     H163350   5.935   4.755   2.808
21036WAT     H263351   6.098   4.770   2.805
21037WAT      O63352   5.554   6.625   3.161
21037WAT     H163353   5.539   6.695   3.091
21037WAT     H263354   5.467   6.605   3.206
21038WAT      O63355   7.359   8.618   9.750
21038WAT     H163356   7.378   8.638   9.846
21038WAT     H263357   7.312   8.530   9.743
21039WAT      O63358   7.688   1.437   7.954
21039WAT     H163359   7.777   1.476   7.931
21039WAT     H263360   7.670   1.359   7.895
21040WAT      O63361   7.621   7.354   1.477
21040WAT     H163362   7.680   7.293   1.424
21040WAT     H263363   7.588   7.307   1.559
21041WAT      O63364   3.225   0.954   5.835
21041WAT     H163365   3.143   0.962   5.891
21041WAT     H263366   3.303   0.928   5.893
21042WAT      O63367   9.142   7.536   7.068
21042WAT     H163368   9.150   7.624   7.021
21042WAT     H263369   9.071   7.541   7.139
21043WAT      O63370   3.197   3.394   6.733
21043WAT     H163371   3.238   3.324   6.674
21043WAT     H263372   3.257   3.410   6.811
21044WAT      O63373   2.975   4.837   7.980
21044WAT     H163374   3.026   4.752   7.994
21044WAT     H263375   2.877   4.819   7.983
21045WAT      O63376   6.507   6.227   7.838
21045WAT     H163377   6.510   6.314   7.788
21045WAT     H263378   6.494   6.245   7.935
21046WAT      O63379   3.056   9.686   2.108
21046WAT     H163380   3.020   9.636   2.030
21046WAT     H263381   3.138   9.640   2.143
21047WAT      O63382   0.042   6.793   5.242
21047WAT     H163383  -0.039   6.809   5.299
21047WAT     H263384   0.033   6.842   5.156
21048WAT      O63385   2.577   7.563   1.388
21048WAT     H163386   2.602   7.607   1.302
21048WAT     H263387   2.658   7.522   1.429
21049WAT      O63388   5.806   1.144   1.467
21049WAT     H163389   5.833   1.092   1.548
21049WAT     H263390   5.887   1.187   1.427
21050WAT      O63391   3.663   5.264   0.574
21050WAT     H163392   3.759   5.289   0.584
21050WAT     H263393   3.611   5.343   0.541
21051WAT      O63394   1.306   6.651   9.671
21051WAT     H163395   1.227   6.590   9.680
21051WAT     H263396   1.387   6.607   9.708
21052WAT      O63397   4.960   0.758   6.083
21052WAT     H163398   4.941   0.854   6.102
21052WAT     H263399   5.047   0.750   6.035
21053WAT      O63400   8.285   2.683   6.150
21053WAT     H163401   8.317   2.608   6.093
21053WAT     H263402   8.218   2.649   6.215
21054WAT      O63403   2.160   6.875   7.955
21054WAT     H163404   2.117   6.898   8.042
21054WAT     H263405   2.169   6.776   7.947
21055WAT      O63406   3.110   3.660   7.919
21055WAT     H163407   3.190   3.604   7.938
21055WAT     H263408   3.128   3.755   7.946
21056WAT      O63409   2.837   9.831   7.466
21056WAT     H163410   2.862   9.764   7.396
21056WAT     H263411   2.831   9.785   7.555
21057WAT      O63412   7.485   3.575   3.483
21057WAT     H163413   7.494   3.498   3.546
21057WAT     H263414   7.539   3.557   3.401
21058WAT      O63415   0.704   3.783   3.099
21058WAT     H163416   0.641   3.809   3.025
21058WAT     H263417   0.657   3.795   3.187
21059WAT      O63418   9.846   6.936   0.702
21059WAT     H163419   9.859   6.839   0.719
21059WAT     H263420   9.923   6.971   0.648
21060WAT      O63421   1.018   8.477   5.025
21060WAT     H163422   0.930   8.524   5.028
21060WAT     H263423   1.082   8.528   4.967
21061WAT      O63424   8.782   7.932   3.923
21061WAT     H163425   8.758   7.869   3.997
21061WAT     H263426   8.878   7.918   3.898
21062WAT      O63427   7.515   4.900   0.636
21062WAT     H163428   7.421   4.894   0.670
21062WAT     H263429   7.579   4.897   0.713
21063WAT      O63430   8.658   3.014   5.291
21063WAT     H163431   8.617   2.956   5.361
21063WAT     H263432   8.727   3.073   5.332
21064WAT      O63433   9.725   6.352   1.157
21064WAT     H163434   9.816   6.353   1.115
21064WAT     H263435   9.696   6.446   1.175
21065WAT      O63436   4.959   8.857   0.072
21065WAT     H163437   5.058   8.870   0.072
21065WAT     H263438   4.927   8.845  -0.022
21066WAT      O63439   8.273   4.570   2.133
21066WAT     H163440   8.290   4.549   2.036
21066WAT     H263441   8.360   4.565   2.183
21067WAT      O63442   2.113   4.939   2.387
21067WAT     H163443   2.144   4.875   2.458
21067WAT     H263444   2.038   4.994   2.422
21068WAT      O63445   0.958   6.988   4.668
21068WAT     H163446   0.925   7.081   4.683
21068WAT     H263447   0.908   6.948   4.591
21069WAT      O63448   3.305   8.780   7.963
21069WAT     H163449   3.306   8.688   7.925
21069WAT     H263450   3.349   8.779   8.054
21070WAT      O63451   3.046   5.575   6.154
21070WAT     H163452   2.967   5.524   6.121
21070WAT     H263453   3.021   5.671   6.167
21071WAT      O63454   7.193   4.651   8.158
21071WAT     H163455   7.155   4.671   8.248
21071WAT     H263456   7.291   4.633   8.166
21072WAT      O63457   6.018   7.298   8.774
21072WAT     H163458   6.097   7.283   8.833
21072WAT     H263459   5.980   7.210   8.746
21073WAT      O63460   5.695   3.506   7.427
21073WAT     H163461   5.766   3.505   7.497
21073WAT     H263462   5.725   3.451   7.349
21074WAT      O63463   3.314   9.716   4.431
21074WAT     H163464   3.322   9.815   4.443
21074WAT     H263465   3.218   9.689   4.440
21075WAT      O63466   0.039   4.391   6.789
21075WAT     H163467  -0.039   4.358   6.736
21075WAT     H263468   0.019   4.383   6.887
21076WAT      O63469   0.089   4.687   2.679
21076WAT     H163470   0.033   4.605   2.666
21076WAT     H263471   0.111   4.728   2.590
21077WAT      O63472   4.050   9.371   0.113
21077WAT     H163473   3.998   9.296   0.072
21077WAT     H263474   4.061   9.354   0.211
21078WAT      O63475   7.753   1.816   6.187
21078WAT     H163476   7.781   1.904   6.149
21078WAT     H263477   7.654   1.805   6.178
21079WAT      O63478   1.885   1.379   4.475
21079WAT     H163479   1.945   1.459   4.482
21079WAT     H263480   1.800   1.405   4.429
21080WAT      O63481   3.459   7.319   9.807
21080WAT     H163482   3.362   7.298   9.813
21080WAT     H263483   3.487   7.322   9.711
21081WAT      O63484   8.611   1.032   0.940
21081WAT     H163485   8.643   1.090   0.865
21081WAT     H263486   8.665   0.948   0.942
21082WAT      O63487   1.229   8.350   2.535
21082WAT     H163488   1.301   8.282   2.545
21082WAT     H263489   1.195   8.349   2.441
21083WAT      O63490   9.139   0.678   9.524
21083WAT     H163491   9.093   0.682   9.435
21083WAT     H263492   9.071   0.689   9.596
21084WAT      O63493   1.965   7.059   4.126
21084WAT     H163494   1.882   7.115   4.122
21084WAT     H263495   2.040   7.114   4.160
21085WAT      O63496   0.478   9.278   6.707
21085WAT     H163497   0.459   9.289   6.610
21085WAT     H263498   0.572   9.308   6.726
21086WAT      O63499   0.716   2.184   1.423
21086WAT     H163500   0.731   2.119   1.498
21086WAT     H263501   0.713   2.276   1.460
21087WAT      O63502   3.991   8.216   5.109
21087WAT     H163503   3.950   8.298   5.068
21087WAT     H263504   3.918   8.153   5.136
21088WAT      O63505   6.832   5.000   7.488
21088WAT     H163506   6.748   4.975   7.535
21088WAT     H263507   6.897   4.923   7.491
21089WAT      O63508   3.004   6.904   4.366
21089WAT     H163509   3.030   7.000   4.375
21089WAT     H263510   2.975   6.870   4.455
21090WAT      O63511   4.275   2.498   5.227
21090WAT     H163512   4.260   2.536   5.318
21090WAT     H263513   4.359   2.537   5.188
21091WAT      O63514   8.583   1.225   3.430
21091WAT     H163515   8.628   1.263   3.510
21091WAT     H263516   8.484   1.236   3.439
21092WAT      O63517   1.982   1.127   4.438
21092WAT     H163518   1.953   1.219   4.466
21092WAT     H263519   1.917   1.060   4.473
21093WAT      O63520   2.535   0.465   0.570
21093WAT     H163521   2.551   0.378   0.524
21093WAT     H263522   2.608   0.529   0.547
21094WAT      O63523   7.539   4.169   6.584
21094WAT     H163524   7.527   4.244   6.649
21094WAT     H263525   7.608   4.106   6.619
21095WAT      O63526   7.894   6.449   3.578
21095WAT     H163527   7.875   6.382   3.650
21095WAT     H263528   7.992   6.467   3.574
21096WAT      O63529   8.557   3.651   6.052
21096WAT     H163530   8.538   3.555   6.032
21096WAT     H263531   8.502   3.709   5.992
21097WAT      O63532   4.132   8.677   0.834
21097WAT     H163533   4.163   8.660   0.740
21097WAT     H263534   4.154   8.771   0.859
21098WAT      O63535   3.558   4.199   7.295
21098WAT     H163536   3.567   4.187   7.394
21098WAT     H263537   3.498   4.128   7.258
21099WAT      O63538   5.043   9.522   3.306
21099WAT     H163539   5.081   9.553   3.219
21099WAT     H263540   5.114   9.476   3.359
21100WAT      O63541   4.858   3.885   0.673
21100WAT     H163542   4.857   3.789   0.701
21100WAT     H263543   4.945   3.927   0.701
21101WAT      O63544   1.745   7.717   5.807
21101WAT     H163545   1.797   7.755   5.884
21101WAT     H263546   1.800   7.647   5.761
21102WAT      O63547   3.777   3.182   6.850
21102WAT     H163548   3.852   3.214   6.793
21102WAT     H263549   3.719   3.260   6.876
21103WAT      O63550   4.974   6.158   0.179
21103WAT     H163551   5.008   6.142   0.087
21103WAT     H263552   5.024   6.235   0.220
21104WAT      O63553   5.079   6.165   2.638
21104WAT     H163554   5.000   6.106   2.652
21104WAT     H263555   5.049   6.254   2.603
21105WAT      O63556   0.610   5.734   8.184
21105WAT     H163557   0.645   5.819   8.145
21105WAT     H263558   0.612   5.740   8.284
21106WAT      O63559   8.902   0.340   2.054
21106WAT     H163560   8.924   0.422   2.000
21106WAT     H263561   8.960   0.337   2.136
21107WAT      O63562   5.789   1.807   4.762
21107WAT     H163563   5.880   1.813   4.802
21107WAT     H263564   5.796   1.805   4.662
21108WAT      O63565   8.127   1.551   4.888
21108WAT     H163566   8.167   1.607   4.816
21108WAT     H263567   8.105   1.608   4.967
21109WAT      O63568   9.774   1.182   4.465
21109WAT     H163569   9.710   1.221   4.399
21109WAT     H263570   9.728   1.110   4.517
21110WAT      O63571   8.297   7.904   6.412
21110WAT     H163572   8.257   7.926   6.323
21110WAT     H263573   8.362   7.976   6.437
21111WAT      O63574   7.172   3.525   5.846
21111WAT     H163575   7.102   3.543   5.777
21111WAT     H263576   7.129   3.497   5.931
21112WAT      O63577   2.246   6.585   0.130
21112WAT     H163578   2.276   6.574   0.225
21112WAT     H263579   2.325   6.609   0.074
21113WAT      O63580   1.036   4.103   8.364
21113WAT     H163581   0.989   4.106   8.452
21113WAT     H263582   0.988   4.161   8.298
21114WAT      O63583   0.557   3.587   5.186
21114WAT     H163584   0.476   3.591   5.245
21114WAT     H263585   0.588   3.492   5.178
21115WAT      O63586   7.513   5.175   0.975
21115WAT     H163587   7.599   5.226   0.982
21115WAT     H263588   7.478   5.157   1.067
21116WAT      O63589   7.364   0.432   7.289
21116WAT     H163590   7.270   0.466   7.293
21116WAT     H263591   7.427   0.509   7.296
21117WAT      O63592   2.367   2.383   5.791
21117WAT     H163593   2.426   2.377   5.711
21117WAT     H263594   2.284   2.434   5.767
21118WAT      O63595   8.027   1.878   1.003
21118WAT     H163596   8.108   1.934   0.994
21118WAT     H263597   7.957   1.928   1.054
21119WAT      O63598   4.172   1.280   9.592
21119WAT     H163599   4.142   1.191   9.558
21119WAT     H263600   4.134   1.352   9.535
21120WAT      O63601   3.322   8.520   2.354
21120WAT     H163602   3.350   8.456   2.283
21120WAT     H263603   3.241   8.569   2.324
21121WAT      O63604   4.521   3.012   9.594
21121WAT     H163605   4.495   3.023   9.690
21121WAT     H263606   4.463   3.071   9.537
21122WAT      O63607   1.517   1.401   1.171
21122WAT     H163608   1.501   1.359   1.260
21122WAT     H263609   1.484   1.496   1.172
21123WAT      O63610   2.001   9.709   5.981
21123WAT     H163611   2.081   9.676   6.031
21123WAT     H263612   2.030   9.746   5.893
21124WAT      O63613   1.237   5.199   9.662
21124WAT     H163614   1.201   5.124   9.607
21124WAT     H263615   1.162   5.258   9.691
21125WAT      O63616   7.668   3.547   5.368
21125WAT     H163617   7.586   3.494   5.344
21125WAT     H263618   7.643   3.619   5.433
21126WAT      O63619   0.770   7.548   7.394
21126WAT     H163620   0.750   7.640   7.362
21126WAT     H263621   0.750   7.482   7.322
21127WAT      O63622   7.780   6.773   2.181
21127WAT     H163623   7.869   6.750   2.143
21127WAT     H263624   7.718   6.802   2.108
21128WAT      O63625   9.219   1.008   7.664
21128WAT     H163626   9.276   1.068   7.719
21128WAT     H263627   9.233   0.913   7.692
21129WAT      O63628   5.899   0.268   7.399
21129WAT     H163629   5.867   0.342   7.459
21129WAT     H263630   5.934   0.306   7.314
21130WAT      O63631   8.951   0.972   0.535
21130WAT     H163632   8.860   0.948   0.500
21130WAT     H263633   9.016   0.901   0.508
21131WAT      O63634   8.074   0.820   2.030
21131WAT     H163635   8.159   0.873   2.029
21131WAT     H263636   8.030   0.828   2.119
21132WAT      O63637   2.538   9.461   8.228
21132WAT     H163638   2.512   9.405   8.149
21132WAT     H263639   2.535   9.405   8.311
21133WAT      O63640   8.811   4.011   6.087
21133WAT     H163641   8.748   4.068   6.034
21133WAT     H263642   8.853   4.067   6.159
21134WAT      O63643   4.835   5.801   0.369
21134WAT     H163644   4.806   5.895   0.389
21134WAT     H263645   4.858   5.794   0.272
21135WAT      O63646   0.664   6.576   9.776
21135WAT     H163647   0.600   6.530   9.714
21135WAT     H263648   0.756   6.570   9.738
21136WAT      O63649   0.141   4.326   7.305
21136WAT     H163650   0.123   4.238   7.350
21136WAT     H263651   0.122   4.400   7.370
21137WAT      O63652   6.133   4.862   8.669
21137WAT     H163653   6.059   4.914   8.626
21137WAT     H263654   6.156   4.902   8.757
21138WAT      O63655   0.788   7.764   4.760
21138WAT     H163656   0.862   7.825   4.789
21138WAT     H263657   0.702   7.815   4.754
21139WAT      O63658   9.370   9.450   6.540
21139WAT     H163659   9.381   9.539   6.584
21139WAT     H263660   9.285   9.450   6.487
21140WAT      O63661   3.999   0.367   2.673
21140WAT     H163662   4.043   0.310   2.742
21140WAT     H263663   3.904   0.337   2.661
21141WAT      O63664   7.300   0.458   9.547
21141WAT     H163665   7.352   0.507   9.478
21141WAT     H263666   7.306   0.359   9.530
21142WAT      O63667   4.581   2.241   6.579
21142WAT     H163668   4.497   2.238   6.633
21142WAT     H263669   4.628   2.328   6.595
21143WAT      O63670   7.651   7.631   7.556
21143WAT     H163671   7.614   7.565   7.490
21143WAT     H263672   7.586   7.643   7.630
21144WAT      O63673   4.646   4.090   4.976
21144WAT     H163674   4.685   4.181   4.990
21144WAT     H263675   4.551   4.098   4.946
21145WAT      O63676   7.941   7.767   5.387
21145WAT     H163677   8.014   7.700   5.398
21145WAT     H263678   7.930   7.788   5.290
21146WAT      O63679   8.211   3.553   2.216
21146WAT     H163680   8.210   3.596   2.306
21146WAT     H263681   8.297   3.575   2.169
21147WAT      O63682   9.638   5.880   2.477
21147WAT     H163683   9.710   5.822   2.516
21147WAT     H263684   9.550   5.854   2.517
21148WAT      O63685   6.488   3.194   6.260
21148WAT     H163686   6.440   3.202   6.347
21148WAT     H263687   6.444   3.123   6.204
21149WAT      O63688   4.581   8.781   5.590
21149WAT     H163689   4.532   8.828   5.665
21149WAT     H263690   4.516   8.757   5.518
21150WAT      O63691   8.702   8.847   2.844
21150WAT     H163692   8.622   8.831   2.785
21150WAT     H263693   8.684   8.810   2.935
21151WAT      O63694   2.202   7.668   7.684
21151WAT     H163695   2.106   7.640   7.685
21151WAT     H263696   2.247   7.641   7.769
21152WAT      O63697   0.837   9.496   1.265
21152WAT     H163698   0.833   9.587   1.305
21152WAT     H263699   0.745   9.456   1.264
21153WAT      O63700   5.668   3.050   0.999
21153WAT     H163701   5.649   3.122   1.065
21153WAT     H263702   5.625   3.072   0.912
21154WAT      O63703   4.931   0.539   3.871
21154WAT     H163704   4.923   0.483   3.789
21154WAT     H263705   4.928   0.636   3.846
21155WAT      O63706   8.641   7.803   9.405
21155WAT     H163707   8.631   7.870   9.478
21155WAT     H263708   8.671   7.715   9.443
21156WAT      O63709   7.556   0.853   6.155
21156WAT     H163710   7.468   0.896   6.137
21156WAT     H263711   7.548   0.790   6.232
21157WAT      O63712   5.405   8.098   6.636
21157WAT     H163713   5.395   8.027   6.706
21157WAT     H263714   5.315   8.132   6.610
21158WAT      O63715   6.224   8.876   9.807
21158WAT     H163716   6.177   8.909   9.889
21158WAT     H263717   6.303   8.934   9.789
21159WAT      O63718   0.875   6.261   5.428
21159WAT     H163719   0.801   6.288   5.367
21159WAT     H263720   0.958   6.312   5.404
21160WAT      O63721   7.984   4.188   8.341
21160WAT     H163722   8.009   4.150   8.430
21160WAT     H263723   8.038   4.271   8.324
21161WAT      O63724   9.477   9.515   7.211
21161WAT     H163725   9.452   9.499   7.115
21161WAT     H263726   9.557   9.575   7.215
21162WAT      O63727   3.235   3.993   5.391
21162WAT     H163728   3.261   3.991   5.294
21162WAT     H263729   3.298   4.052   5.441
21163WAT      O63730   5.552   6.743   7.140
21163WAT     H163731   5.651   6.736   7.150
21163WAT     H263732   5.519   6.671   7.080
21164WAT      O63733   2.884   0.530   6.588
21164WAT     H163734   2.878   0.628   6.609
21164WAT     H263735   2.824   0.508   6.511
21165WAT      O63736   2.160   1.585   0.215
21165WAT     H163737   2.130   1.663   0.270
21165WAT     H263738   2.123   1.500   0.253
21166WAT      O63739   5.255   2.202   1.715
21166WAT     H163740   5.342   2.241   1.684
21166WAT     H263741   5.240   2.114   1.670
21167WAT      O63742   5.482   0.542   5.472
21167WAT     H163743   5.530   0.469   5.522
21167WAT     H263744   5.545   0.618   5.455
21168WAT      O63745   7.878   2.594   9.265
21168WAT     H163746   7.961   2.635   9.229
21168WAT     H263747   7.828   2.662   9.319
21169WAT      O63748   1.310   5.147   8.464
21169WAT     H163749   1.347   5.062   8.427
21169WAT     H263750   1.289   5.135   8.561
21170WAT      O63751   6.979   4.001   0.234
21170WAT     H163752   6.976   3.947   0.319
21170WAT     H263753   6.923   3.956   0.164
21171WAT      O63754   9.291   5.518   8.583
21171WAT     H163755   9.261   5.610   8.609
21171WAT     H263756   9.379   5.499   8.626
21172WAT      O63757   0.551   2.728   0.178
21172WAT     H163758   0.510   2.680   0.100
21172WAT     H263759   0.488   2.800   0.209
21173WAT      O63760   4.035   8.535   3.741
21173WAT     H163761   4.132   8.533   3.768
21173WAT     H263762   4.012   8.449   3.696
21174WAT      O63763   1.813   6.046   1.039
21174WAT     H163764   1.836   5.970   0.978
21174WAT     H263765   1.818   6.015   1.134
21175WAT      O63766   0.671   3.095   6.233
21175WAT     H163767   0.720   3.118   6.318
21175WAT     H263768   0.636   3.179   6.192
21176WAT      O63769   6.613   5.794   1.034
21176WAT     H163770   6.532   5.753   1.075
21176WAT     H263771   6.586   5.854   0.958
21177WAT      O63772   9.032   7.902   7.336
21177WAT     H163773   9.087   7.936   7.259
21177WAT     H263774   8.980   7.978   7.375
21178WAT      O63775   7.697   1.584   7.286
21178WAT     H163776   7.711   1.589   7.187
21178WAT     H263777   7.690   1.489   7.314
21179WAT      O63778   5.790   0.039   3.770
21179WAT     H163779   5.768  -0.043   3.717
21179WAT     H263780   5.755   0.029   3.863
21180WAT      O63781   6.812   9.390   2.527
21180WAT     H163782   6.899   9.340   2.525
21180WAT     H263783   6.745   9.338   2.580
21181WAT      O63784   2.596   6.377   2.681
21181WAT     H163785   2.552   6.326   2.607
21181WAT     H263786   2.574   6.335   2.769
21182WAT      O63787   9.272   9.046   9.889
21182WAT     H163788   9.307   9.012   9.802
21182WAT     H263789   9.346   9.092   9.939
21183WAT      O63790   6.856   3.257   4.549
21183WAT     H163791   6.893   3.220   4.635
21183WAT     H263792   6.796   3.335   4.569
21184WAT      O63793   1.613   1.577   6.456
21184WAT     H163794   1.552   1.628   6.517
21184WAT     H263795   1.623   1.483   6.490
21185WAT      O63796   9.192   6.604   6.704
21185WAT     H163797   9.193   6.541   6.626
21185WAT     H263798   9.244   6.686   6.680
21186WAT      O63799   6.527   2.613   2.603
21186WAT     H163800   6.456   2.605   2.673
21186WAT     H263801   6.531   2.529   2.549
21187WAT      O63802   1.753   9.617   2.817
21187WAT     H163803   1.718   9.525   2.802
21187WAT     H263804   1.699   9.662   2.887
21188WAT      O63805   9.509   3.045   8.140
21188WAT     H163806   9.466   2.967   8.185
21188WAT     H263807   9.550   3.105   8.209
21189WAT      O63808   0.672   7.251   4.290
21189WAT     H163809   0.584   7.298   4.289
21189WAT     H263810   0.739   7.305   4.240
21190WAT      O63811   4.428   4.016   9.347
21190WAT     H163812   4.431   3.996   9.250
21190WAT     H263813   4.520   4.009   9.386
21191WAT      O63814   7.346   9.148   2.246
21191WAT     H163815   7.255   9.109   2.258
21191WAT     H263816   7.358   9.224   2.310
21192WAT      O63817   9.084   7.273   0.168
21192WAT     H163818   9.150   7.208   0.129
21192WAT     H263819   9.000   7.271   0.114
21193WAT      O63820   3.303   8.180   1.335
21193WAT     H163821   3.344   8.180   1.426
21193WAT     H263822   3.359   8.125   1.273
21194WAT      O63823   9.671   9.647   1.882
21194WAT     H163824   9.627   9.667   1.794
21194WAT     H263825   9.758   9.601   1.865
21195WAT      O63826   7.772   6.734   8.427
21195WAT     H163827   7.721   6.708   8.345
21195WAT     H263828   7.870   6.723   8.410
21196WAT      O63829   0.435   1.078   7.268
21196WAT     H163830   0.407   1.064   7.173
21196WAT     H263831   0.473   1.170   7.278
21197WAT      O63832   7.909   4.742   8.995
21197WAT     H163833   7.899   4.758   9.093
21197WAT     H263834   7.818   4.740   8.952
21198WAT      O63835   4.029   6.184   6.765
21198WAT     H163836   3.946   6.187   6.709
21198WAT     H263837   4.096   6.123   6.723
21199WAT      O63838   0.906   3.139   0.189
21199WAT     H163839   0.963   3.073   0.237
21199WAT     H263840   0.811   3.108   0.189
21200WAT      O63841   2.612   5.217   2.078
21200WAT     H163842   2.704   5.256   2.084
21200WAT     H263843   2.545   5.289   2.098
21201WAT      O63844   7.374   8.551   5.449
21201WAT     H163845   7.401   8.541   5.544
21201WAT     H263846   7.295   8.492   5.430
21202WAT      O63847   1.867   5.742   3.689
21202WAT     H163848   1.920   5.738   3.773
21202WAT     H263849   1.777   5.780   3.708
21203WAT      O63850   0.230   5.791   1.649
21203WAT     H163851   0.329   5.798   1.655
21203WAT     H263852   0.205   5.709   1.598
21204WAT      O63853   9.656   9.436   2.281
21204WAT     H163854   9.751   9.468   2.284
21204WAT     H263855   9.607   9.485   2.209
21205WAT      O63856   7.387   2.065   2.142
21205WAT     H163857   7.434   1.977   2.152
21205WAT     H263858   7.455   2.137   2.127
21206WAT      O63859   6.979   4.976   8.880
21206WAT     H163860   7.059   5.034   8.866
21206WAT     H263861   6.992   4.889   8.832
21207WAT      O63862   9.512   0.989   9.386
21207WAT     H163863   9.591   0.951   9.337
21207WAT     H263864   9.466   0.916   9.436
21208WAT      O63865   5.250   0.508   7.115
21208WAT     H163866   5.251   0.432   7.050
21208WAT     H263867   5.326   0.570   7.097
21209WAT      O63868   2.004   0.841   2.235
21209WAT     H163869   2.083   0.871   2.289
21209WAT     H263870   1.986   0.745   2.253
21210WAT      O63871   8.752   7.026   5.862
21210WAT     H163872   8.662   7.007   5.901
21210WAT     H263873   8.818   7.040   5.936
21211WAT      O63874   5.381   1.480   1.295
21211WAT     H163875   5.430   1.404   1.337
21211WAT     H263876   5.305   1.444   1.240
21212WAT      O63877   4.773   3.366   2.623
21212WAT     H163878   4.717   3.431   2.572
21212WAT     H263879   4.869   3.395   2.620
21213WAT      O63880   6.014   4.510   0.484
21213WAT     H163881   6.108   4.531   0.513
21213WAT     H263882   6.015   4.483   0.387
21214WAT      O63883   7.770   5.280   7.107
21214WAT     H163884   7.828   5.288   7.188
21214WAT     H263885   7.822   5.235   7.034
21215WAT      O63886   3.239   7.706   8.672
21215WAT     H163887   3.303   7.702   8.595
21215WAT     H263888   3.165   7.641   8.657
21216WAT      O63889   4.857   9.043   4.493
21216WAT     H163890   4.873   9.101   4.413
21216WAT     H263891   4.819   8.955   4.463
21217WAT      O63892   6.699   4.551   1.240
21217WAT     H163893   6.599   4.546   1.243
21217WAT     H263894   6.734   4.477   1.183
21218WAT      O63895   7.700   2.598   1.580
21218WAT     H163896   7.775   2.634   1.636
21218WAT     H263897   7.732   2.520   1.527
21219WAT      O63898   0.808   3.487   8.126
21219WAT     H163899   0.872   3.554   8.163
21219WAT     H263900   0.734   3.471   8.192
21220WAT      O63901   9.439   6.040   9.016
21220WAT     H163902   9.389   6.120   9.049
21220WAT     H263903   9.525   6.032   9.065
21221WAT      O63904   4.630   1.799   6.248
21221WAT     H163905   4.705   1.773   6.309
21221WAT     H263906   4.666   1.808   6.154
21222WAT      O63907   9.301   1.400   3.097
21222WAT     H163908   9.262   1.426   3.186
21222WAT     H263909   9.399   1.383   3.107
21223WAT      O63910   0.263   6.711   4.963
21223WAT     H163911   0.327   6.727   5.039
21223WAT     H263912   0.286   6.771   4.887
21224WAT      O63913   4.588   0.477   2.493
21224WAT     H163914   4.569   0.566   2.451
21224WAT     H263915   4.537   0.469   2.579
21225WAT      O63916   6.885   4.551   2.475
21225WAT     H163917   6.842   4.641   2.485
21225WAT     H263918   6.816   4.480   2.492
21226WAT      O63919   6.748   5.199   5.856
21226WAT     H163920   6.729   5.290   5.895
21226WAT     H263921   6.689   5.185   5.776
21227WAT      O63922   9.070   4.004   8.237
21227WAT     H163923   8.972   4.000   8.217
21227WAT     H263924   9.098   3.921   8.285
21228WAT      O63925   5.087   8.897   6.733
21228WAT     H163926   5.164   8.889   6.796
21228WAT     H263927   5.081   8.814   6.677
21229WAT      O63928   4.549   8.386   2.557
21229WAT     H163929   4.489   8.464   2.539
21229WAT     H263930   4.642   8.419   2.573
21230WAT      O63931   3.602   4.143   5.782
21230WAT     H163932   3.580   4.045   5.776
21230WAT     H263933   3.532   4.196   5.734
21231WAT      O63934   0.696   3.362   5.899
21231WAT     H163935   0.786   3.365   5.944
21231WAT     H263936   0.632   3.421   5.948
21232WAT      O63937   6.436   8.808   2.032
21232WAT     H163938   6.385   8.807   2.117
21232WAT     H263939   6.514   8.746   2.038
21233WAT      O63940   8.340   5.692   3.627
21233WAT     H163941   8.350   5.785   3.591
21233WAT     H263942   8.376   5.626   3.560
21234WAT      O63943   5.939   2.006   8.647
21234WAT     H163944   5.876   2.082   8.630
21234WAT     H263945   5.906   1.953   8.725
21235WAT      O63946   9.808   4.642   7.081
21235WAT     H163947   9.844   4.569   7.024
21235WAT     H263948   9.712   4.623   7.105
21236WAT      O63949   7.961   6.908   5.057
21236WAT     H163950   8.018   6.864   5.126
21236WAT     H263951   7.926   6.994   5.093
21237WAT      O63952   2.333   8.351   1.725
21237WAT     H163953   2.324   8.304   1.812
21237WAT     H263954   2.282   8.301   1.655
21238WAT      O63955   2.001   3.421   1.624
21238WAT     H163956   2.044   3.408   1.714
21238WAT     H263957   1.920   3.479   1.634
21239WAT      O63958   9.625   0.778   9.051
21239WAT     H163959   9.631   0.685   9.087
21239WAT     H263960   9.529   0.804   9.043
21240WAT      O63961   6.675   7.752   3.775
21240WAT     H163962   6.657   7.758   3.873
21240WAT     H263963   6.588   7.754   3.725
21241WAT      O63964   7.458   9.110   2.723
21241WAT     H163965   7.524   9.184   2.714
21241WAT     H263966   7.493   9.027   2.680
21242WAT      O63967   3.626   6.608   1.920
21242WAT     H163968   3.528   6.615   1.936
21242WAT     H263969   3.673   6.681   1.970
21243WAT      O63970   7.919   5.137   6.929
21243WAT     H163971   7.995   5.201   6.921
21243WAT     H263972   7.943   5.065   6.995
21244WAT      O63973   1.154   4.171   5.742
21244WAT     H163974   1.150   4.081   5.786
21244WAT     H263975   1.154   4.160   5.643
21245WAT      O63976   6.497   7.531   2.868
21245WAT     H163977   6.499   7.569   2.960
21245WAT     H263978   6.585   7.547   2.823
21246WAT      O63979   9.847   1.220   9.451
21246WAT     H163980   9.945   1.241   9.457
21246WAT     H263981   9.835   1.123   9.430
21247WAT      O63982   0.600   7.948   8.826
21247WAT     H163983   0.567   7.856   8.850
21247WAT     H263984   0.522   8.007   8.806
21248WAT      O63985   7.902   5.036   8.685
21248WAT     H163986   7.967   5.102   8.647
21248WAT     H263987   7.924   4.944   8.652
21249WAT      O63988   0.223   5.422   4.698
21249WAT     H163989   0.199   5.480   4.776
21249WAT     H263990   0.237   5.478   4.617
21250WAT      O63991   9.249   6.238   1.159
21250WAT     H163992   9.340   6.198   1.168
21250WAT     H263993   9.213   6.262   1.249
21251WAT      O63994   7.805   6.119   7.078
21251WAT     H163995   7.866   6.068   7.018
21251WAT     H263996   7.744   6.056   7.126
21252WAT      O63997   5.783   7.864   7.748
21252WAT     H163998   5.765   7.893   7.654
21252WAT     H263999   5.808   7.767   7.749
21253WAT      O64000   4.079   3.412   3.795
21253WAT     H164001   4.122   3.500   3.811
21253WAT     H264002   3.985   3.414   3.827
21254WAT      O64003   3.910   4.555   2.680
21254WAT     H164004   3.859   4.627   2.633
21254WAT     H264005   3.908   4.472   2.626
21255WAT      O64006   1.621   3.328   1.531
21255WAT     H164007   1.599   3.277   1.614
21255WAT     H264008   1.701   3.286   1.488
21256WAT      O64009   2.306   4.425   6.401
21256WAT     H164010   2.293   4.326   6.404
21256WAT     H264011   2.386   4.450   6.456
21257WAT      O64012   1.157   1.551   6.294
21257WAT     H164013   1.174   1.477   6.229
21257WAT     H264014   1.185   1.638   6.254
21258WAT      O64015   8.059   0.180   1.312
21258WAT     H164016   8.033   0.087   1.338
21258WAT     H264017   8.080   0.233   1.395
21259WAT      O64018   1.818   5.708   4.624
21259WAT     H164019   1.781   5.658   4.546
21259WAT     H264020   1.813   5.806   4.607
21260WAT      O64021   6.047   8.508   4.123
21260WAT     H164022   6.104   8.437   4.165
21260WAT     H264023   6.042   8.587   4.183
21261WAT      O64024   5.008   0.338   8.366
21261WAT     H164025   4.926   0.375   8.409
21261WAT     H264026   5.040   0.402   8.296
21262WAT      O64027   2.175   4.091   5.294
21262WAT     H164028   2.262   4.058   5.331
21262WAT     H264029   2.122   4.013   5.261
21263WAT      O64030   6.824   2.159   7.198
21263WAT     H164031   6.848   2.237   7.140
21263WAT     H264032   6.773   2.191   7.277
21264WAT      O64033   0.515   7.111   6.856
21264WAT     H164034   0.435   7.051   6.843
21264WAT     H264035   0.569   7.113   6.772
21265WAT      O64036   4.024   6.534   6.587
21265WAT     H164037   4.086   6.608   6.561
21265WAT     H264038   4.059   6.447   6.552
21266WAT      O64039   2.525   3.710   0.865
21266WAT     H164040   2.446   3.771   0.879
21266WAT     H264041   2.550   3.668   0.952
21267WAT      O64042   2.883   9.530   2.278
21267WAT     H164043   2.823   9.599   2.318
21267WAT     H264044   2.939   9.571   2.206
21268WAT      O64045   2.875   1.947   0.905
21268WAT     H164046   2.924   1.878   0.958
21268WAT     H264047   2.940   2.003   0.855
21269WAT      O64048   4.363   0.665   1.450
21269WAT     H164049   4.391   0.717   1.531
21269WAT     H264050   4.431   0.676   1.378
21270WAT      O64051   5.568   2.683   4.390
21270WAT     H164052   5.520   2.616   4.333
21270WAT     H264053   5.505   2.755   4.418
21271WAT      O64054   4.658   2.337   3.434
21271WAT     H164055   4.744   2.325   3.483
21271WAT     H264056   4.648   2.432   3.405
21272WAT      O64057   6.960   1.607   1.879
21272WAT     H164058   6.949   1.705   1.864
21272WAT     H264059   6.886   1.574   1.939
21273WAT      O64060   5.428   5.291   5.128
21273WAT     H164061   5.474   5.204   5.147
21273WAT     H264062   5.330   5.281   5.142
21274WAT      O64063   5.895   5.921   0.845
21274WAT     H164064   5.910   5.871   0.760
21274WAT     H264065   5.807   5.896   0.884
21275WAT      O64066   8.072   5.057   1.757
21275WAT     H164067   7.976   5.055   1.730
21275WAT     H264068   8.123   5.115   1.692
21276WAT      O64069   7.217   8.347   4.405
21276WAT     H164070   7.248   8.323   4.497
21276WAT     H264071   7.292   8.333   4.340
21277WAT      O64072   5.879   9.433   6.840
21277WAT     H164073   5.875   9.526   6.801
21277WAT     H264074   5.796   9.383   6.815
21278WAT      O64075   0.373   5.977   3.179
21278WAT     H164076   0.430   6.058   3.162
21278WAT     H264077   0.432   5.896   3.182
21279WAT      O64078   6.186   9.417   9.560
21279WAT     H164079   6.161   9.483   9.630
21279WAT     H264080   6.162   9.325   9.590
21280WAT      O64081   8.132   1.176   3.169
21280WAT     H164082   8.180   1.207   3.087
21280WAT     H264083   8.177   1.094   3.206
21281WAT      O64084   0.871   0.716   9.514
21281WAT     H164085   0.795   0.780   9.525
21281WAT     H264086   0.904   0.688   9.604
21282WAT      O64087   8.491   6.680   8.447
21282WAT     H164088   8.431   6.697   8.368
21282WAT     H264089   8.436   6.644   8.522
21283WAT      O64090   1.731   2.301   5.090
21283WAT     H164091   1.687   2.368   5.031
21283WAT     H264092   1.684   2.214   5.083
21284WAT      O64093   4.144   6.289   6.467
21284WAT     H164094   4.096   6.228   6.405
21284WAT     H264095   4.197   6.236   6.533
21285WAT      O64096   5.634   1.679   9.318
21285WAT     H164097   5.701   1.717   9.254
21285WAT     H264098   5.653   1.712   9.410
21286WAT      O64099   3.526   2.028   1.032
21286WAT     H164100   3.524   2.128   1.034
21286WAT     H264101   3.614   1.996   1.068
21287WAT      O64102   6.035   8.883   4.048
21287WAT     H164103   6.030   8.850   4.142
21287WAT     H264104   6.131   8.884   4.019
21288WAT      O64105   0.216   0.020   7.553
21288WAT     H164106   0.192   0.103   7.603
21288WAT     H264107   0.229  -0.055   7.618
21289WAT      O64108   9.454   4.577   5.163
21289WAT     H164109   9.463   4.663   5.212
21289WAT     H264110   9.371   4.530   5.192
21290WAT      O64111   8.417   3.087   5.437
21290WAT     H164112   8.328   3.121   5.465
21290WAT     H264113   8.408   3.035   5.352
21291WAT      O64114   8.712   0.953   5.259
21291WAT     H164115   8.757   0.897   5.190
21291WAT     H264116   8.764   0.950   5.344
21292WAT      O64117   6.670   5.403   8.449
21292WAT     H164118   6.724   5.417   8.531
21292WAT     H264119   6.621   5.316   8.455
21293WAT      O64120   3.055   5.910   1.493
21293WAT     H164121   3.141   5.861   1.485
21293WAT     H264122   2.979   5.846   1.484
21294WAT      O64123   8.032   0.618   5.080
21294WAT     H164124   8.114   0.638   5.135
21294WAT     H264125   8.051   0.643   4.984
21295WAT      O64126   6.663   4.125   9.636
21295WAT     H164127   6.611   4.183   9.573
21295WAT     H264128   6.655   4.030   9.608
21296WAT      O64129   0.796   2.244   3.200
21296WAT     H164130   0.808   2.234   3.101
21296WAT     H264131   0.786   2.340   3.223
21297WAT      O64132   2.847   1.248   4.526
21297WAT     H164133   2.922   1.220   4.466
21297WAT     H264134   2.762   1.248   4.474
21298WAT      O64135   2.810   0.526   9.204
21298WAT     H164136   2.725   0.492   9.164
21298WAT     H264137   2.886   0.468   9.175
21299WAT      O64138   9.457   4.164   2.348
21299WAT     H164139   9.557   4.164   2.353
21299WAT     H264140   9.419   4.179   2.439
21300WAT      O64141   0.349   6.515   4.504
21300WAT     H164142   0.356   6.540   4.407
21300WAT     H264143   0.262   6.548   4.540
21301WAT      O64144   6.516   8.465   5.260
21301WAT     H164145   6.552   8.372   5.266
21301WAT     H264146   6.444   8.468   5.190
21302WAT      O64147   9.534   6.028   7.634
21302WAT     H164148   9.627   6.043   7.666
21302WAT     H264149   9.509   5.932   7.647
21303WAT      O64150   2.916   8.080   5.250
21303WAT     H164151   2.998   8.138   5.254
21303WAT     H264152   2.853   8.118   5.183
21304WAT      O64153   6.801   0.076   2.275
21304WAT     H164154   6.827   0.099   2.369
21304WAT     H264155   6.718   0.020   2.276
21305WAT      O64156   3.444   8.445   4.525
21305WAT     H164157   3.456   8.529   4.578
21305WAT     H264158   3.528   8.424   4.475
21306WAT      O64159   7.386   7.206   0.232
21306WAT     H164160   7.376   7.173   0.326
21306WAT     H264161   7.337   7.292   0.220
21307WAT      O64162   3.577   2.014   8.368
21307WAT     H164163   3.657   2.072   8.352
21307WAT     H264164   3.497   2.054   8.323
21308WAT      O64165   4.742   6.208   5.954
21308WAT     H164166   4.688   6.292   5.963
21308WAT     H264167   4.818   6.225   5.892
21309WAT      O64168   9.354   4.809   3.134
21309WAT     H164169   9.264   4.820   3.093
21309WAT     H264170   9.372   4.712   3.149
21310WAT      O64171   4.288   0.425   1.493
21310WAT     H164172   4.307   0.523   1.489
21310WAT     H264173   4.359   0.375   1.444
21311WAT      O64174   5.810   9.693   5.438
21311WAT     H164175   5.873   9.762   5.403
21311WAT     H264176   5.735   9.680   5.374
21312WAT      O64177   8.162   6.802   5.207
21312WAT     H164178   8.082   6.753   5.241
21312WAT     H264179   8.187   6.873   5.272
21313WAT      O64180   8.393   0.869   6.647
21313WAT     H164181   8.411   0.905   6.556
21313WAT     H264182   8.401   0.769   6.646
21314WAT      O64183   1.694   5.305   0.537
21314WAT     H164184   1.651   5.234   0.593
21314WAT     H264185   1.779   5.335   0.580
21315WAT      O64186   5.014   8.624   2.046
21315WAT     H164187   4.941   8.668   2.099
21315WAT     H264188   4.979   8.539   2.007
21316WAT      O64189   3.053   7.126   0.716
21316WAT     H164190   3.100   7.204   0.759
21316WAT     H264191   2.968   7.158   0.675
21317WAT      O64192   6.587   8.592   1.835
21317WAT     H164193   6.493   8.610   1.806
21317WAT     H264194   6.647   8.595   1.756
21318WAT      O64195   2.838   8.736   2.004
21318WAT     H164196   2.889   8.788   1.936
21318WAT     H264197   2.899   8.713   2.081
21319WAT      O64198   8.195   7.454   1.376
21319WAT     H164199   8.238   7.483   1.291
21319WAT     H264200   8.193   7.531   1.440
21320WAT      O64201   7.052   7.356   3.796
21320WAT     H164202   6.986   7.431   3.787
21320WAT     H264203   7.004   7.269   3.790
21321WAT      O64204   8.356   9.154   8.898
21321WAT     H164205   8.381   9.063   8.931
21321WAT     H264206   8.420   9.221   8.935
21322WAT      O64207   9.276   3.944   3.712
21322WAT     H164208   9.250   3.848   3.722
21322WAT     H264209   9.305   3.980   3.801
21323WAT      O64210   2.254   5.850   3.152
21323WAT     H164211   2.318   5.791   3.103
21323WAT     H264212   2.180   5.877   3.091
21324WAT      O64213   2.085   0.139   2.548
21324WAT     H164214   2.096   0.051   2.502
21324WAT     H264215   2.162   0.154   2.610
21325WAT      O64216   1.341   2.679   9.142
21325WAT     H164217   1.334   2.746   9.217
21325WAT     H264218   1.414   2.614   9.163
21326WAT      O64219   7.221   7.428   9.090
21326WAT     H164220   7.240   7.462   9.182
21326WAT     H264221   7.245   7.498   9.022
21327WAT      O64222   3.452   1.464   8.441
21327WAT     H164223   3.460   1.560   8.416
21327WAT     H264224   3.469   1.454   8.540
21328WAT      O64225   3.804   3.197   2.110
21328WAT     H164226   3.886   3.247   2.136
21328WAT     H264227   3.829   3.123   2.047
21329WAT      O64228   4.153   7.749   4.257
21329WAT     H164229   4.124   7.785   4.169
21329WAT     H264230   4.243   7.705   4.248
21330WAT      O64231   4.815   4.413   2.006
21330WAT     H164232   4.778   4.479   1.940
21330WAT     H264233   4.817   4.455   2.097
21331WAT      O64234   5.281   5.491   0.616
21331WAT     H164235   5.257   5.554   0.542
21331WAT     H264236   5.372   5.513   0.651
21332WAT      O64237   5.838   0.100   3.328
21332WAT     H164238   5.900   0.035   3.371
21332WAT     H264239   5.836   0.185   3.380
21333WAT      O64240   3.225   9.799   0.319
21333WAT     H164241   3.199   9.780   0.224
21333WAT     H264242   3.148   9.841   0.367
21334WAT      O64243   5.463   8.231   8.228
21334WAT     H164244   5.554   8.223   8.268
21334WAT     H264245   5.450   8.324   8.193
21335WAT      O64246   9.091   1.190   4.381
21335WAT     H164247   9.183   1.217   4.409
21335WAT     H264248   9.077   1.093   4.400
21336WAT      O64249   8.242   4.560   7.177
21336WAT     H164250   8.313   4.629   7.163
21336WAT     H264251   8.153   4.597   7.151
21337WAT      O64252   8.799   3.663   0.537
21337WAT     H164253   8.734   3.707   0.599
21337WAT     H264254   8.759   3.656   0.446
21338WAT      O64255   3.028   5.118   8.314
21338WAT     H164256   3.021   5.214   8.287
21338WAT     H264257   3.094   5.110   8.388
21339WAT      O64258   5.950   4.044   5.024
21339WAT     H164259   5.855   4.028   5.050
21339WAT     H264260   5.975   3.985   4.947
21340WAT      O64261   3.439   2.700   5.818
21340WAT     H164262   3.356   2.748   5.845
21340WAT     H264263   3.496   2.685   5.898
21341WAT      O64264   3.384   4.674   6.582
21341WAT     H164265   3.377   4.774   6.590
21341WAT     H264266   3.301   4.632   6.619
21342WAT      O64267   7.214   5.630   3.737
21342WAT     H164268   7.263   5.570   3.800
21342WAT     H264269   7.218   5.724   3.770
21343WAT      O64270   5.100   2.736   9.153
21343WAT     H164271   5.120   2.747   9.055
21343WAT     H264272   5.002   2.719   9.164
21344WAT      O64273   1.980   9.163   9.143
21344WAT     H164274   1.965   9.115   9.056
21344WAT     H264275   1.892   9.179   9.188
21345WAT      O64276   2.226   9.232   1.426
21345WAT     H164277   2.231   9.208   1.523
21345WAT     H264278   2.237   9.331   1.415
21346WAT      O64279   2.030   8.792   4.528
21346WAT     H164280   2.120   8.815   4.490
21346WAT     H264281   2.029   8.812   4.626
21347WAT      O64282   3.199   9.237   4.408
21347WAT     H164283   3.202   9.137   4.398
21347WAT     H264284   3.290   9.271   4.430
21348WAT      O64285   3.776   2.532   4.536
21348WAT     H164286   3.731   2.509   4.450
21348WAT     H264287   3.873   2.506   4.531
21349WAT      O64288   0.050   4.575   6.160
21349WAT     H164289   0.036   4.644   6.089
21349WAT     H264290   0.132   4.597   6.213
21350WAT      O64291   5.395   2.273   0.668
21350WAT     H164292   5.463   2.322   0.613
21350WAT     H264293   5.438   2.237   0.750
21351WAT      O64294   0.871   6.249   7.617
21351WAT     H164295   0.949   6.188   7.607
21351WAT     H264296   0.881   6.302   7.702
21352WAT      O64297   1.257   7.431   5.229
21352WAT     H164298   1.178   7.399   5.176
21352WAT     H264299   1.257   7.385   5.318
21353WAT      O64300   8.782   7.713   4.951
21353WAT     H164301   8.816   7.685   5.042
21353WAT     H264302   8.761   7.810   4.952
21354WAT      O64303   3.374   2.570   4.275
21354WAT     H164304   3.464   2.531   4.252
21354WAT     H264305   3.356   2.559   4.372
21355WAT      O64306   3.501   1.026   9.353
21355WAT     H164307   3.554   0.986   9.279
21355WAT     H264308   3.557   1.030   9.436
21356WAT      O64309   6.075   9.688   3.156
21356WAT     H164310   6.069   9.773   3.103
21356WAT     H264311   6.034   9.614   3.104
21357WAT      O64312   9.015   9.059   3.678
21357WAT     H164313   9.089   9.033   3.615
21357WAT     H264314   9.005   8.989   3.748
21358WAT      O64315   6.931   2.267   2.932
21358WAT     H164316   6.857   2.236   2.872
21358WAT     H264317   6.995   2.323   2.879
21359WAT      O64318   0.633   5.847   6.949
21359WAT     H164319   0.640   5.922   6.883
21359WAT     H264320   0.548   5.857   7.002
21360WAT      O64321   6.050   6.253   9.817
21360WAT     H164322   6.112   6.270   9.741
21360WAT     H264323   6.092   6.286   9.902
21361WAT      O64324   2.092   1.582   4.512
21361WAT     H164325   2.026   1.638   4.561
21361WAT     H264326   2.169   1.561   4.572
21362WAT      O64327   9.580   2.554   8.520
21362WAT     H164328   9.602   2.547   8.422
21362WAT     H264329   9.663   2.540   8.574
21363WAT      O64330   5.934   0.314   9.167
21363WAT     H164331   5.909   0.370   9.089
21363WAT     H264332   5.966   0.372   9.242
21364WAT      O64333   6.746   4.662   1.789
21364WAT     H164334   6.654   4.627   1.811
21364WAT     H264335   6.769   4.736   1.851
21365WAT      O64336   6.600   4.911   7.570
21365WAT     H164337   6.546   4.943   7.648
21365WAT     H264338   6.617   4.813   7.579
21366WAT      O64339   9.526   4.284   7.908
21366WAT     H164340   9.596   4.212   7.897
21366WAT     H264341   9.496   4.286   8.004
21367WAT      O64342   0.565   0.697   4.250
21367WAT     H164343   0.558   0.644   4.166
21367WAT     H264344   0.627   0.649   4.314
21368WAT      O64345   0.862   1.497   5.178
21368WAT     H164346   0.950   1.507   5.132
21368WAT     H264347   0.804   1.435   5.125
21369WAT      O64348   2.468   4.341   0.376
21369WAT     H164349   2.565   4.318   0.383
21369WAT     H264350   2.417   4.260   0.347
21370WAT      O64351   5.298   8.211   5.256
21370WAT     H164352   5.389   8.244   5.282
21370WAT     H264353   5.233   8.233   5.328
21371WAT      O64354   0.079   8.524   8.658
21371WAT     H164355   0.028   8.455   8.608
21371WAT     H264356   0.018   8.597   8.687
21372WAT      O64357   4.827   8.406   0.469
21372WAT     H164358   4.848   8.429   0.374
21372WAT     H264359   4.728   8.412   0.484
21373WAT      O64360   7.025   2.373   9.327
21373WAT     H164361   7.083   2.335   9.255
21373WAT     H264362   7.080   2.431   9.387
21374WAT      O64363   4.965   4.394   0.084
21374WAT     H164364   4.882   4.447   0.064
21374WAT     H264365   4.940   4.310   0.132
21375WAT      O64366   3.175   7.610   8.370
21375WAT     H164367   3.171   7.610   8.270
21375WAT     H264368   3.249   7.670   8.400
21376WAT      O64369   3.009   0.369   9.621
21376WAT     H164370   3.019   0.399   9.715
21376WAT     H264371   2.923   0.402   9.584
21377WAT      O64372   5.754   6.282   0.339
21377WAT     H164373   5.717   6.372   0.316
21377WAT     H264374   5.818   6.291   0.415
21378WAT      O64375   4.446   4.512   1.400
21378WAT     H164376   4.349   4.495   1.382
21378WAT     H264377   4.498   4.428   1.386
21379WAT      O64378   8.870   2.342   1.603
21379WAT     H164379   8.900   2.414   1.541
21379WAT     H264380   8.814   2.382   1.676
21380WAT      O64381   8.054   6.399   8.657
21380WAT     H164382   7.978   6.432   8.714
21380WAT     H264383   8.094   6.318   8.699
21381WAT      O64384   8.508   3.493   8.000
21381WAT     H164385   8.466   3.578   7.967
21381WAT     H264386   8.443   3.443   8.056
21382WAT      O64387   2.380   0.674   0.616
21382WAT     H164388   2.418   0.767   0.621
21382WAT     H264389   2.455   0.608   0.610
21383WAT      O64390   4.414   7.622   0.849
21383WAT     H164391   4.505   7.586   0.828
21383WAT     H264392   4.345   7.554   0.825
21384WAT      O64393   3.458   3.468   2.286
21384WAT     H164394   3.498   3.398   2.227
21384WAT     H264395   3.426   3.544   2.229
21385WAT      O64396   1.404   6.020   0.225
21385WAT     H164397   1.389   6.070   0.311
21385WAT     H264398   1.501   5.999   0.216
21386WAT      O64399   6.799   6.192   2.473
21386WAT     H164400   6.781   6.271   2.532
21386WAT     H264401   6.875   6.213   2.412
21387WAT      O64402   6.806   5.886   3.801
21387WAT     H164403   6.888   5.941   3.787
21387WAT     H264404   6.730   5.925   3.750
21388WAT      O64405   5.223   0.229   4.762
21388WAT     H164406   5.171   0.303   4.803
21388WAT     H264407   5.265   0.173   4.834
21389WAT      O64408   5.494   8.118   6.287
21389WAT     H164409   5.474   8.037   6.341
21389WAT     H264410   5.409   8.167   6.268
21390WAT      O64411   9.090   7.982   6.106
21390WAT     H164412   9.126   7.899   6.063
21390WAT     H264413   9.033   7.957   6.184
21391WAT      O64414   3.750   4.737   9.559
21391WAT     H164415   3.751   4.798   9.480
21391WAT     H264416   3.817   4.770   9.626
21392WAT      O64417   1.613   4.137   7.635
21392WAT     H164418   1.621   4.173   7.542
21392WAT     H264419   1.685   4.175   7.692
21393WAT      O64420   6.934   3.721   4.929
21393WAT     H164421   6.925   3.786   5.004
21393WAT     H264422   6.944   3.628   4.966
21394WAT      O64423   6.530   6.336   4.025
21394WAT     H164424   6.483   6.413   3.982
21394WAT     H264425   6.618   6.366   4.062
21395WAT      O64426   8.048   0.306   9.507
21395WAT     H164427   8.134   0.269   9.472
21395WAT     H264428   8.007   0.242   9.571
21396WAT      O64429   8.602   9.321   9.568
21396WAT     H164430   8.577   9.287   9.658
21396WAT     H264431   8.674   9.263   9.529
21397WAT      O64432   7.224   4.121   2.568
21397WAT     H164433   7.264   4.184   2.635
21397WAT     H264434   7.250   4.028   2.590
21398WAT      O64435   8.207   4.935   3.947
21398WAT     H164436   8.146   4.980   3.883
21398WAT     H264437   8.159   4.858   3.991
21399WAT      O64438   2.496   1.101   7.657
21399WAT     H164439   2.590   1.135   7.650
21399WAT     H264440   2.483   1.027   7.591
21400WAT      O64441   3.596   2.329   8.534
21400WAT     H164442   3.649   2.288   8.460
21400WAT     H264443   3.619   2.426   8.542
21401WAT      O64444   0.448   5.013   0.876
21401WAT     H164445   0.405   5.091   0.922
21401WAT     H264446   0.540   5.000   0.912
21402WAT      O64447   2.734   2.041   7.095
21402WAT     H164448   2.694   2.098   7.023
21402WAT     H264449   2.720   2.086   7.184
21403WAT      O64450   2.706   2.519   2.485
21403WAT     H164451   2.730   2.532   2.388
21403WAT     H264452   2.680   2.424   2.500
21404WAT      O64453   4.292   3.454   1.725
21404WAT     H164454   4.274   3.533   1.668
21404WAT     H264455   4.365   3.399   1.683
21405WAT      O64456   3.094   9.543   0.844
21405WAT     H164457   3.031   9.546   0.767
21405WAT     H264458   3.126   9.449   0.857
21406WAT      O64459   0.184   0.226   4.827
21406WAT     H164460   0.272   0.202   4.870
21406WAT     H264461   0.202   0.283   4.747
21407WAT      O64462   8.038   0.291   8.638
21407WAT     H164463   7.970   0.279   8.566
21407WAT     H264464   8.123   0.246   8.611
21408WAT      O64465   1.273   8.816   8.211
21408WAT     H164466   1.263   8.769   8.298
21408WAT     H264467   1.337   8.892   8.221
21409WAT      O64468   5.404   3.473   2.406
21409WAT     H164469   5.384   3.529   2.326
21409WAT     H264470   5.337   3.399   2.413
21410WAT      O64471   2.596   5.166   0.901
21410WAT     H164472   2.572   5.154   0.805
21410WAT     H264473   2.571   5.258   0.931
21411WAT      O64474   3.995   1.199   3.521
21411WAT     H164475   4.005   1.246   3.433
21411WAT     H264476   4.085   1.189   3.563
21412WAT      O64477   2.649   1.246   8.443
21412WAT     H164478   2.660   1.161   8.494
21412WAT     H264479   2.725   1.307   8.464
21413WAT      O64480   6.217   1.405   1.961
21413WAT     H164481   6.281   1.363   2.026
21413WAT     H264482   6.253   1.396   1.868
21414WAT      O64483   0.977   0.010   8.282
21414WAT     H164484   0.983   0.080   8.211
21414WAT     H264485   0.971  -0.080   8.239
21415WAT      O64486   0.628   2.431   5.946
21415WAT     H164487   0.597   2.352   5.893
21415WAT     H264488   0.581   2.513   5.916
21416WAT      O64489   0.517   6.106   8.173
21416WAT     H164490   0.600   6.056   8.149
21416WAT     H264491   0.521   6.198   8.135
21417WAT      O64492   7.945   8.266   6.662
21417WAT     H164493   7.870   8.201   6.673
21417WAT     H264494   7.986   8.255   6.572
21418WAT      O64495   1.170   3.103   5.591
21418WAT     H164496   1.100   3.109   5.663
21418WAT     H264497   1.256   3.140   5.625
21419WAT      O64498   6.084   1.450   7.640
21419WAT     H164499   6.133   1.363   7.634
21419WAT     H264500   6.133   1.519   7.587
21420WAT      O64501   4.243   4.234   9.350
21420WAT     H164502   4.328   4.181   9.356
21420WAT     H264503   4.188   4.199   9.274
21421WAT      O64504   4.173   8.110   3.518
21421WAT     H164505   4.271   8.111   3.538
21421WAT     H264506   4.156   8.156   3.432
21422WAT      O64507   9.220   3.334   1.441
21422WAT     H164508   9.156   3.307   1.512
21422WAT     H264509   9.205   3.431   1.418
21423WAT      O64510   2.267   6.003   6.174
21423WAT     H164511   2.216   6.053   6.244
21423WAT     H264512   2.326   5.935   6.217
21424WAT      O64513   3.701   0.411   8.662
21424WAT     H164514   3.645   0.377   8.586
21424WAT     H264515   3.778   0.350   8.677
21425WAT      O64516   9.133   0.667   6.323
21425WAT     H164517   9.047   0.642   6.278
21425WAT     H264518   9.158   0.595   6.389
21426WAT      O64519   9.618   7.909   1.906
21426WAT     H164520   9.674   7.916   1.824
21426WAT     H264521   9.672   7.866   1.979
21427WAT      O64522   4.115   0.284   0.072
21427WAT     H164523   4.055   0.352   0.030
21427WAT     H264524   4.059   0.218   0.123
21428WAT      O64525   0.588   9.579   6.003
21428WAT     H164526   0.667   9.628   6.041
21428WAT     H264527   0.509   9.640   6.003
21429WAT      O64528   4.427   1.074   8.475
21429WAT     H164529   4.345   1.017   8.474
21429WAT     H264530   4.441   1.110   8.568
21430WAT      O64531   8.618   4.082   0.265
21430WAT     H164532   8.543   4.081   0.198
21430WAT     H264533   8.594   4.144   0.340
21431WAT      O64534   6.707   7.690   6.929
21431WAT     H164535   6.692   7.622   7.001
21431WAT     H264536   6.728   7.643   6.843
21432WAT      O64537   8.131   7.976   1.038
21432WAT     H164538   8.034   7.962   1.017
21432WAT     H264539   8.152   8.074   1.034
21433WAT      O64540   6.028   7.468   9.747
21433WAT     H164541   5.998   7.430   9.834
21433WAT     H264542   6.017   7.567   9.748
21434WAT      O64543   7.897   1.551   3.597
21434WAT     H164544   7.926   1.582   3.506
21434WAT     H264545   7.797   1.546   3.600
21435WAT      O64546   4.224   0.967   9.345
21435WAT     H164547   4.278   1.010   9.273
21435WAT     H264548   4.229   0.868   9.335
21436WAT      O64549   2.295   2.248   8.233
21436WAT     H164550   2.345   2.193   8.166
21436WAT     H264551   2.287   2.342   8.200
21437WAT      O64552   0.920   2.467   8.355
21437WAT     H164553   0.821   2.476   8.349
21437WAT     H264554   0.955   2.529   8.425
21438WAT      O64555   2.484   6.548   6.507
21438WAT     H164556   2.468   6.638   6.548
21438WAT     H264557   2.582   6.528   6.507
21439WAT      O64558   5.504   4.405   5.781
21439WAT     H164559   5.586   4.415   5.837
21439WAT     H264560   5.465   4.495   5.762
21440WAT      O64561   6.673   0.441   8.499
21440WAT     H164562   6.718   0.432   8.588
21440WAT     H264563   6.665   0.350   8.457
21441WAT      O64564   7.642   6.795   1.954
21441WAT     H164565   7.569   6.764   1.893
21441WAT     H264566   7.723   6.818   1.901
21442WAT      O64567   1.370   7.972   5.402
21442WAT     H164568   1.374   8.012   5.493
21442WAT     H264569   1.332   7.879   5.408
21443WAT      O64570   7.724   8.041   7.045
21443WAT     H164571   7.777   8.019   6.964
21443WAT     H264572   7.758   8.126   7.086
21444WAT      O64573   9.486   4.726   8.232
21444WAT     H164574   9.578   4.695   8.210
21444WAT     H264575   9.458   4.797   8.168
21445WAT      O64576   9.280   8.102   5.632
21445WAT     H164577   9.321   8.057   5.552
21445WAT     H264578   9.247   8.032   5.696
21446WAT      O64579   1.699   7.725   1.670
21446WAT     H164580   1.622   7.789   1.672
21446WAT     H264581   1.691   7.660   1.746
21447WAT      O64582   1.558   3.720   9.344
21447WAT     H164583   1.575   3.663   9.263
21447WAT     H264584   1.606   3.808   9.333
21448WAT      O64585   9.813   4.234   5.839
21448WAT     H164586   9.730   4.218   5.893
21448WAT     H264587   9.882   4.280   5.895
21449WAT      O64588   9.613   3.483   7.522
21449WAT     H164589   9.654   3.573   7.532
21449WAT     H264590   9.661   3.418   7.581
21450WAT      O64591   7.869   1.406   5.233
21450WAT     H164592   7.961   1.420   5.270
21450WAT     H264593   7.876   1.383   5.136
21451WAT      O64594   8.413   0.568   1.024
21451WAT     H164595   8.355   0.502   0.975
21451WAT     H264596   8.452   0.632   0.958
21452WAT      O64597   6.169   9.214   0.089
21452WAT     H164598   6.107   9.292   0.097
21452WAT     H264599   6.181   9.191  -0.008
21453WAT      O64600   2.451   1.041   5.566
21453WAT     H164601   2.467   0.952   5.524
21453WAT     H264602   2.535   1.094   5.566
21454WAT      O64603   2.890   1.124   8.645
21454WAT     H164604   2.958   1.110   8.573
21454WAT     H264605   2.913   1.205   8.698
21455WAT      O64606   0.333   2.260   8.671
21455WAT     H164607   0.416   2.215   8.705
21455WAT     H264608   0.346   2.286   8.576
21456WAT      O64609   5.317   6.852   8.122
21456WAT     H164610   5.390   6.880   8.184
21456WAT     H264611   5.240   6.816   8.175
21457WAT      O64612   1.062   1.305   9.079
21457WAT     H164613   1.144   1.300   9.022
21457WAT     H264614   1.001   1.229   9.056
21458WAT      O64615   5.068   0.333   7.531
21458WAT     H164616   5.096   0.247   7.573
21458WAT     H264617   5.084   0.329   7.432
21459WAT      O64618   3.718   6.992   3.229
21459WAT     H164619   3.655   6.983   3.152
21459WAT     H264620   3.790   7.058   3.205
21460WAT      O64621   2.291   3.170   4.663
21460WAT     H164622   2.238   3.174   4.578
21460WAT     H264623   2.231   3.150   4.740
21461WAT      O64624   5.302   2.392   6.700
21461WAT     H164625   5.224   2.342   6.663
21461WAT     H264626   5.356   2.331   6.759
21462WAT      O64627   4.704   8.270   5.967
21462WAT     H164628   4.746   8.189   6.007
21462WAT     H264629   4.762   8.350   5.986
21463WAT      O64630   0.621   0.636   1.297
21463WAT     H164631   0.715   0.665   1.280
21463WAT     H264632   0.564   0.662   1.219
21464WAT      O64633   0.667   6.943   4.985
21464WAT     H164634   0.650   7.001   4.905
21464WAT     H264635   0.678   6.848   4.956
21465WAT      O64636   6.724   6.642   3.535
21465WAT     H164637   6.659   6.599   3.598
21465WAT     H264638   6.806   6.669   3.585
21466WAT      O64639   6.585   3.527   3.996
21466WAT     H164640   6.533   3.612   4.007
21466WAT     H264641   6.626   3.526   3.905
21467WAT      O64642   8.474   3.932   5.960
21467WAT     H164643   8.566   3.914   5.927
21467WAT     H264644   8.478   3.969   6.053
21468WAT      O64645   7.483   5.199   8.186
21468WAT     H164646   7.392   5.189   8.145
21468WAT     H264647   7.553   5.188   8.114
21469WAT      O64648   8.952   5.831   9.801
21469WAT     H164649   8.903   5.877   9.727
21469WAT     H264650   9.047   5.816   9.775
21470WAT      O64651   9.588   7.209   9.702
21470WAT     H164652   9.609   7.267   9.780
21470WAT     H264653   9.578   7.114   9.732
21471WAT      O64654   0.435   4.928   6.653
21471WAT     H164655   0.441   4.844   6.708
21471WAT     H264656   0.456   4.907   6.558
21472WAT      O64657   2.718   7.778   8.148
21472WAT     H164658   2.655   7.724   8.093
21472WAT     H264659   2.674   7.863   8.176
21473WAT      O64660   8.831   7.533   1.120
21473WAT     H164661   8.763   7.606   1.125
21473WAT     H264662   8.868   7.527   1.028
21474WAT      O64663   4.204   4.005   5.943
21474WAT     H164664   4.198   4.100   5.971
21474WAT     H264665   4.113   3.963   5.947
21475WAT      O64666   2.590   6.319   9.085
21475WAT     H164667   2.511   6.268   9.051
21475WAT     H264668   2.634   6.267   9.158
21476WAT      O64669   6.171   3.666   6.068
21476WAT     H164670   6.208   3.581   6.106
21476WAT     H264671   6.131   3.648   5.979
21477WAT      O64672   1.442   4.913   9.709
21477WAT     H164673   1.379   4.943   9.638
21477WAT     H264674   1.527   4.881   9.667
21478WAT      O64675   9.383   9.707   2.240
21478WAT     H164676   9.421   9.642   2.175
21478WAT     H264677   9.441   9.711   2.321
21479WAT      O64678   3.949   0.806   6.226
21479WAT     H164679   3.954   0.894   6.273
21479WAT     H264680   4.041   0.773   6.206
21480WAT      O64681   3.193   3.809   2.462
21480WAT     H164682   3.101   3.837   2.491
21480WAT     H264683   3.186   3.747   2.384
21481WAT      O64684   8.390   0.609   3.248
21481WAT     H164685   8.454   0.596   3.173
21481WAT     H264686   8.322   0.677   3.222
21482WAT      O64687   1.281   7.765   2.009
21482WAT     H164688   1.342   7.694   2.043
21482WAT     H264689   1.223   7.727   1.937
21483WAT      O64690   1.496   0.755   5.901
21483WAT     H164691   1.503   0.689   5.825
21483WAT     H264692   1.522   0.846   5.868
21484WAT      O64693   1.235   4.976   9.517
21484WAT     H164694   1.194   4.888   9.541
21484WAT     H264695   1.208   5.002   9.424
21485WAT      O64696   6.090   8.517   6.243
21485WAT     H164697   6.035   8.446   6.199
21485WAT     H264698   6.084   8.506   6.343
21486WAT      O64699   1.124   8.807   7.243
21486WAT     H164700   1.080   8.892   7.212
21486WAT     H264701   1.215   8.800   7.203
21487WAT      O64702   3.271   8.316   5.669
21487WAT     H164703   3.194   8.260   5.640
21487WAT     H264704   3.306   8.282   5.757
21488WAT      O64705   6.521   5.849   8.270
21488WAT     H164706   6.578   5.783   8.220
21488WAT     H264707   6.426   5.837   8.243
21489WAT      O64708   8.880   9.678   1.068
21489WAT     H164709   8.885   9.662   0.970
21489WAT     H264710   8.891   9.592   1.117
21490WAT      O64711   0.301   3.369   0.931
21490WAT     H164712   0.258   3.406   1.014
21490WAT     H264713   0.342   3.444   0.879
21491WAT      O64714   0.335   5.715   9.058
21491WAT     H164715   0.369   5.650   9.126
21491WAT     H264716   0.351   5.808   9.090
21492WAT      O64717   7.680   4.550   9.471
21492WAT     H164718   7.608   4.482   9.482
21492WAT     H264719   7.741   4.548   9.551
21493WAT      O64720   2.319   2.510   4.078
21493WAT     H164721   2.411   2.502   4.117
21493WAT     H264722   2.326   2.510   3.978
21494WAT      O64723   7.017   3.537   8.671
21494WAT     H164724   7.109   3.576   8.666
21494WAT     H264725   6.952   3.608   8.697
21495WAT      O64726   7.510   1.326   0.464
21495WAT     H164727   7.419   1.292   0.485
21495WAT     H264728   7.535   1.301   0.371
21496WAT      O64729   3.414   2.367   8.870
21496WAT     H164730   3.491   2.397   8.925
21496WAT     H264731   3.351   2.443   8.855
21497WAT      O64732   4.000   3.921   6.264
21497WAT     H164733   4.004   4.012   6.224
21497WAT     H264734   3.916   3.876   6.235
21498WAT      O64735   1.005   0.231   5.631
21498WAT     H164736   0.926   0.230   5.692
21498WAT     H264737   0.992   0.165   5.557
21499WAT      O64738   6.961   3.603   3.066
21499WAT     H164739   6.992   3.589   3.160
21499WAT     H264740   6.948   3.700   3.049
21500WAT      O64741   7.972   7.079   6.094
21500WAT     H164742   7.910   7.052   6.020
21500WAT     H264743   7.965   7.013   6.169
21501WAT      O64744   3.623   7.086   6.738
21501WAT     H164745   3.635   7.165   6.678
21501WAT     H264746   3.707   7.032   6.738
21502WAT      O64747   3.518   1.298   7.770
21502WAT     H164748   3.554   1.389   7.747
21502WAT     H264749   3.566   1.263   7.851
21503WAT      O64750   7.204   1.590   5.539
21503WAT     H164751   7.247   1.664   5.591
21503WAT     H264752   7.196   1.509   5.597
21504WAT      O64753   2.307   8.317   8.927
21504WAT     H164754   2.374   8.383   8.961
21504WAT     H264755   2.286   8.251   8.998
21505WAT      O64756   8.159   0.273   2.447
21505WAT     H164757   8.255   0.245   2.451
21505WAT     H264758   8.107   0.204   2.396
21506WAT      O64759   8.057   2.787   6.488
21506WAT     H164760   8.139   2.844   6.493
21506WAT     H264761   8.001   2.816   6.410
21507WAT      O64762   0.045   6.204   2.410
21507WAT     H164763  -0.050   6.234   2.399
21507WAT     H264764   0.088   6.256   2.483
21508WAT      O64765   2.895   1.883   1.271
21508WAT     H164766   2.895   1.983   1.272
21508WAT     H264767   2.966   1.850   1.208
21509WAT      O64768   7.850   2.585   0.606
21509WAT     H164769   7.762   2.538   0.615
21509WAT     H264770   7.835   2.684   0.611
21510WAT      O64771   7.836   8.844   7.078
21510WAT     H164772   7.792   8.827   6.990
21510WAT     H264773   7.934   8.853   7.065
21511WAT      O64774   8.791   0.647   6.750
21511WAT     H164775   8.716   0.632   6.814
21511WAT     H264776   8.872   0.678   6.799
21512WAT      O64777   3.437   8.999   2.031
21512WAT     H164778   3.455   8.901   2.036
21512WAT     H264779   3.441   9.038   2.123
21513WAT      O64780   9.352   0.352   0.196
21513WAT     H164781   9.424   0.311   0.140
21513WAT     H264782   9.269   0.298   0.189
21514WAT      O64783   1.047   0.829   6.686
21514WAT     H164784   0.958   0.792   6.659
21514WAT     H264785   1.064   0.809   6.782
21515WAT      O64786   4.700   2.355   5.227
21515WAT     H164787   4.772   2.360   5.297
21515WAT     H264788   4.671   2.260   5.215
21516WAT      O64789   7.102   2.528   7.889
21516WAT     H164790   7.189   2.573   7.906
21516WAT     H264791   7.034   2.596   7.861
21517WAT      O64792   9.284   6.591   6.050
21517WAT     H164793   9.256   6.509   6.001
21517WAT     H264794   9.292   6.668   5.986
21518WAT      O64795   0.149   9.210   0.840
21518WAT     H164796   0.201   9.285   0.881
21518WAT     H264797   0.190   9.185   0.752
21519WAT      O64798   5.639   4.409   4.165
21519WAT     H164799   5.650   4.323   4.116
21519WAT     H264800   5.706   4.414   4.240
21520WAT      O64801   2.208   5.133   9.189
21520WAT     H164802   2.138   5.101   9.252
21520WAT     H264803   2.269   5.197   9.236
21521WAT      O64804   7.559   3.145   5.058
21521WAT     H164805   7.599   3.225   5.013
21521WAT     H264806   7.468   3.167   5.091
21522WAT      O64807   6.450   4.577   3.268
21522WAT     H164808   6.380   4.505   3.258
21522WAT     H264809   6.484   4.577   3.362
21523WAT      O64810   5.538   0.855   6.657
21523WAT     H164811   5.604   0.925   6.683
21523WAT     H264812   5.580   0.765   6.667
21524WAT      O64813   8.749   1.138   8.752
21524WAT     H164814   8.727   1.233   8.772
21524WAT     H264815   8.833   1.112   8.801
21525WAT      O64816   2.422   4.444   3.735
21525WAT     H164817   2.512   4.489   3.737
21525WAT     H264818   2.423   4.366   3.798
21526WAT      O64819   5.209   2.435   8.835
21526WAT     H164820   5.251   2.471   8.918
21526WAT     H264821   5.117   2.472   8.826
21527WAT      O64822   2.822   0.609   9.756
21527WAT     H164823   2.852   0.529   9.809
21527WAT     H264824   2.800   0.582   9.663
21528WAT      O64825   3.409   1.010   8.616
21528WAT     H164826   3.401   1.006   8.716
21528WAT     H264827   3.443   0.922   8.582
21529WAT      O64828   2.051   8.987   2.328
21529WAT     H164829   2.054   8.998   2.229
21529WAT     H264830   1.979   9.045   2.365
21530WAT      O64831   4.461   4.779   1.524
21530WAT     H164832   4.450   4.687   1.487
21530WAT     H264833   4.390   4.796   1.592
21531WAT      O64834   9.808   7.585   9.350
21531WAT     H164835   9.798   7.636   9.436
21531WAT     H264836   9.812   7.487   9.370
21532WAT      O64837   9.534   6.595   9.308
21532WAT     H164838   9.446   6.578   9.352
21532WAT     H264839   9.592   6.650   9.368
21533WAT      O64840   8.288   9.095   5.425
21533WAT     H164841   8.223   9.059   5.493
21533WAT     H264842   8.269   9.054   5.336
21534WAT      O64843   9.098   8.672   0.305
21534WAT     H164844   9.076   8.575   0.295
21534WAT     H264845   9.151   8.703   0.227
21535WAT      O64846   7.918   2.196   0.635
21535WAT     H164847   7.934   2.268   0.703
21535WAT     H264848   7.937   2.107   0.675
21536WAT      O64849   1.803   0.011   7.324
21536WAT     H164850   1.834  -0.013   7.232
21536WAT     H264851   1.717  -0.036   7.343
21537WAT      O64852   9.386   1.843   7.352
21537WAT     H164853   9.406   1.937   7.325
21537WAT     H264854   9.297   1.839   7.399
21538WAT      O64855   1.829   5.231   3.663
21538WAT     H164856   1.828   5.313   3.605
21538WAT     H264857   1.814   5.257   3.758
21539WAT      O64858   6.926   9.109   9.537
21539WAT     H164859   6.977   9.150   9.461
21539WAT     H264860   6.892   9.019   9.509
21540WAT      O64861   7.230   1.122   7.715
21540WAT     H164862   7.325   1.091   7.717
21540WAT     H264863   7.220   1.195   7.648
21541WAT      O64864   2.984   2.750   3.298
21541WAT     H164865   2.988   2.770   3.396
21541WAT     H264866   2.911   2.684   3.281
21542WAT      O64867   4.988   7.433   1.918
21542WAT     H164868   5.066   7.372   1.904
21542WAT     H264869   5.011   7.502   1.986
21543WAT      O64870   5.231   4.026   4.496
21543WAT     H164871   5.149   3.981   4.460
21543WAT     H264872   5.281   3.963   4.555
21544WAT      O64873   8.438   7.822   2.129
21544WAT     H164874   8.460   7.818   2.031
21544WAT     H264875   8.359   7.881   2.143
21545WAT      O64876   0.241   8.093   6.759
21545WAT     H164877   0.299   8.164   6.800
21545WAT     H264878   0.170   8.136   6.703
21546WAT      O64879   6.768   8.346   9.862
21546WAT     H164880   6.734   8.280   9.929
21546WAT     H264881   6.716   8.431   9.868
21547WAT      O64882   6.910   0.873   2.179
21547WAT     H164883   6.814   0.871   2.209
21547WAT     H264884   6.959   0.797   2.221
21548WAT      O64885   9.405   3.500   9.609
21548WAT     H164886   9.393   3.534   9.703
21548WAT     H264887   9.483   3.545   9.567
21549WAT      O64888   4.216   0.966   7.883
21549WAT     H164889   4.147   0.943   7.814
21549WAT     H264890   4.176   1.024   7.953
21550WAT      O64891   6.204   0.621   6.749
21550WAT     H164892   6.202   0.697   6.683
21550WAT     H264893   6.216   0.535   6.699
21551WAT      O64894   5.476   2.202   6.794
21551WAT     H164895   5.574   2.220   6.783
21551WAT     H264896   5.444   2.148   6.716
21552WAT      O64897   1.146   0.171   6.584
21552WAT     H164898   1.203   0.195   6.505
21552WAT     H264899   1.185   0.209   6.667
21553WAT      O64900   0.556   5.310   2.610
21553WAT     H164901   0.593   5.247   2.678
21553WAT     H264902   0.476   5.269   2.567
21554WAT      O64903   6.439   1.637   4.532
21554WAT     H164904   6.480   1.547   4.551
21554WAT     H264905   6.499   1.689   4.471
21555WAT      O64906   9.630   6.680   5.136
21555WAT     H164907   9.637   6.749   5.065
21555WAT     H264908   9.578   6.602   5.102
21556WAT      O64909   5.127   1.298   4.175
21556WAT     H164910   5.125   1.245   4.260
21556WAT     H264911   5.190   1.255   4.110
21557WAT      O64912   6.844   7.613   0.117
21557WAT     H164913   6.927   7.560   0.101
21557WAT     H264914   6.868   7.709   0.129
21558WAT      O64915   5.316   4.236   5.952
21558WAT     H164916   5.312   4.138   5.934
21558WAT     H264917   5.377   4.280   5.885
21559WAT      O64918   6.964   9.175   2.883
21559WAT     H164919   7.050   9.202   2.838
21559WAT     H264920   6.975   9.181   2.982
21560WAT      O64921   4.723   8.533   9.285
21560WAT     H164922   4.748   8.473   9.361
21560WAT     H264923   4.674   8.480   9.216
21561WAT      O64924   4.469   1.940   2.683
21561WAT     H164925   4.509   1.883   2.611
21561WAT     H264926   4.475   1.893   2.771
21562WAT      O64927   0.439   0.862   4.872
21562WAT     H164928   0.354   0.910   4.848
21562WAT     H264929   0.463   0.884   4.967
21563WAT      O64930   7.111   0.482   7.352
21563WAT     H164931   7.127   0.448   7.445
21563WAT     H264932   7.094   0.581   7.356
21564WAT      O64933   7.812   3.429   0.513
21564WAT     H164934   7.857   3.504   0.562
21564WAT     H264935   7.763   3.372   0.579
21565WAT      O64936   7.829   8.929   3.936
21565WAT     H164937   7.880   8.934   4.021
21565WAT     H264938   7.889   8.952   3.859
21566WAT      O64939   0.509   5.627   0.090
21566WAT     H164940   0.495   5.600  -0.005
21566WAT     H264941   0.544   5.720   0.094
21567WAT      O64942   1.823   9.836   5.690
21567WAT     H164943   1.921   9.833   5.706
21567WAT     H264944   1.794   9.930   5.677
21568WAT      O64945   3.432   2.747   1.092
21568WAT     H164946   3.360   2.678   1.089
21568WAT     H264947   3.472   2.748   1.184
21569WAT      O64948   7.686   3.322   4.892
21569WAT     H164949   7.764   3.362   4.939
21569WAT     H264950   7.625   3.394   4.860
21570WAT      O64951   3.669   0.224   4.843
21570WAT     H164952   3.609   0.164   4.789
21570WAT     H264953   3.757   0.178   4.858
21571WAT      O64954   7.790   3.517   1.397
21571WAT     H164955   7.815   3.431   1.352
21571WAT     H264956   7.711   3.557   1.351
21572WAT      O64957   0.506   0.853   2.238
21572WAT     H164958   0.508   0.756   2.263
21572WAT     H264959   0.553   0.906   2.308
21573WAT      O64960   7.062   5.659   2.471
21573WAT     H164961   7.100   5.683   2.560
21573WAT     H264962   7.089   5.565   2.448
21574WAT      O64963   6.644   4.910   0.091
21574WAT     H164964   6.641   4.871   0.183
21574WAT     H264965   6.702   4.991   0.091
21575WAT      O64966   5.667   7.575   2.015
21575WAT     H164967   5.652   7.670   2.042
21575WAT     H264968   5.641   7.563   1.919
21576WAT      O64969   6.522   0.355   4.060
21576WAT     H164970   6.460   0.389   4.130
21576WAT     H264971   6.611   0.334   4.101
21577WAT      O64972   7.916   3.984   9.350
21577WAT     H164973   7.883   4.075   9.373
21577WAT     H264974   7.877   3.917   9.413
21578WAT      O64975   6.430   6.937   6.445
21578WAT     H164976   6.369   6.913   6.521
21578WAT     H264977   6.516   6.888   6.455
21579WAT      O64978   2.309   1.152   0.944
21579WAT     H164979   2.278   1.225   0.883
21579WAT     H264980   2.409   1.157   0.954
21580WAT      O64981   5.130   5.467   7.062
21580WAT     H164982   5.202   5.535   7.049
21580WAT     H264983   5.049   5.512   7.100
21581WAT      O64984   6.316   5.928   1.223
21581WAT     H164985   6.383   5.905   1.293
21581WAT     H264986   6.242   5.861   1.224
21582WAT      O64987   4.334   1.291   2.751
21582WAT     H164988   4.321   1.338   2.664
21582WAT     H264989   4.424   1.247   2.752
21583WAT      O64990   2.779   9.680   3.437
21583WAT     H164991   2.811   9.591   3.406
21583WAT     H264992   2.854   9.746   3.434
21584WAT      O64993   0.913   6.014   8.267
21584WAT     H164994   0.900   6.112   8.283
21584WAT     H264995   0.893   5.964   8.352
21585WAT      O64996   5.243   8.698   0.239
21585WAT     H164997   5.263   8.607   0.202
21585WAT     H264998   5.197   8.690   0.327
21586WAT      O64999   2.618   7.486   1.889
21586WAT     H165000   2.555   7.509   1.815
21586WAT     H265001   2.704   7.452   1.849
21587WAT      O65002   1.980   4.061   0.220
21587WAT     H165003   1.887   4.027   0.225
21587WAT     H265004   2.044   3.985   0.207
21588WAT      O65005   9.472   4.959   6.571
21588WAT     H165006   9.495   5.053   6.548
21588WAT     H265007   9.542   4.898   6.533
21589WAT      O65008   7.183   5.285   8.402
21589WAT     H165009   7.249   5.342   8.451
21589WAT     H265010   7.230   5.211   8.354
21590WAT      O65011   4.039   0.636   5.569
21590WAT     H165012   4.105   0.612   5.641
21590WAT     H265013   3.997   0.724   5.592
21591WAT      O65014   5.464   5.113   3.406
21591WAT     H165015   5.388   5.178   3.398
21591WAT     H265016   5.550   5.160   3.392
21592WAT      O65017   4.075   1.949   7.816
21592WAT     H165018   4.010   2.015   7.780
21592WAT     H265019   4.032   1.898   7.891
21593WAT      O65020   8.470   2.279   8.258
21593WAT     H165021   8.548   2.246   8.311
21593WAT     H265022   8.485   2.374   8.231
21594WAT      O65023   8.211   9.463   2.840
21594WAT     H165024   8.175   9.553   2.867
21594WAT     H265025   8.263   9.472   2.755
21595WAT      O65026   6.323   4.058   5.763
21595WAT     H165027   6.224   4.051   5.755
21595WAT     H265028   6.348   4.152   5.788
21596WAT      O65029   7.675   2.948   6.127
21596WAT     H165030   7.688   2.881   6.054
21596WAT     H265031   7.738   3.024   6.113
21597WAT      O65032   5.457   8.516   0.419
21597WAT     H165033   5.510   8.554   0.495
21597WAT     H265034   5.361   8.541   0.430
21598WAT      O65035   3.692   9.301   5.445
21598WAT     H165036   3.672   9.393   5.480
21598WAT     H265037   3.638   9.233   5.494
21599WAT      O65038   3.233   0.698   0.661
21599WAT     H165039   3.169   0.755   0.611
21599WAT     H265040   3.327   0.728   0.642
21600WAT      O65041   2.109   4.269   2.200
21600WAT     H165042   2.114   4.219   2.287
21600WAT     H265043   2.013   4.291   2.180
21601WAT      O65044   4.441   5.703   6.630
21601WAT     H165045   4.437   5.608   6.659
21601WAT     H265046   4.427   5.708   6.531
21602WAT      O65047   9.542   5.205   6.510
21602WAT     H165048   9.611   5.235   6.576
21602WAT     H265049   9.476   5.279   6.494
21603WAT      O65050   1.396   7.138   3.911
21603WAT     H165051   1.396   7.040   3.890
21603WAT     H265052   1.363   7.190   3.833
21604WAT      O65053   2.845   5.453   0.917
21604WAT     H165054   2.890   5.534   0.881
21604WAT     H265055   2.860   5.376   0.855
21605WAT      O65056   9.068   9.693   4.045
21605WAT     H165057   8.987   9.747   4.019
21605WAT     H265058   9.144   9.716   3.984
21606WAT      O65059   6.246   8.067   5.484
21606WAT     H165060   6.242   8.146   5.424
21606WAT     H265061   6.342   8.041   5.500
21607WAT      O65062   4.841   2.031   8.008
21607WAT     H165063   4.922   2.023   8.066
21607WAT     H265064   4.775   2.093   8.050
21608WAT      O65065   5.179   2.938   0.285
21608WAT     H165066   5.264   2.949   0.335
21608WAT     H265067   5.191   2.971   0.191
21609WAT      O65068   1.081   6.751   6.077
21609WAT     H165069   1.075   6.651   6.087
21609WAT     H265070   1.110   6.791   6.164
21610WAT      O65071   2.209   0.260   9.386
21610WAT     H165072   2.112   0.270   9.408
21610WAT     H265073   2.220   0.236   9.290
21611WAT      O65074   8.807   1.593   7.783
21611WAT     H165075   8.830   1.652   7.861
21611WAT     H265076   8.750   1.517   7.815
21612WAT      O65077   5.849   6.445   6.342
21612WAT     H165078   5.927   6.486   6.388
21612WAT     H265079   5.775   6.431   6.408
21613WAT      O65080   3.008   9.675   8.559
21613WAT     H165081   2.913   9.701   8.544
21613WAT     H265082   3.013   9.579   8.586
21614WAT      O65083   2.795   3.865   3.775
21614WAT     H165084   2.785   3.811   3.858
21614WAT     H265085   2.872   3.829   3.721
21615WAT      O65086   9.640   6.593   3.599
21615WAT     H165087   9.719   6.645   3.632
21615WAT     H265088   9.605   6.535   3.672
21616WAT      O65089   1.146   2.112   2.647
21616WAT     H165090   1.168   2.124   2.744
21616WAT     H265091   1.221   2.148   2.591
21617WAT      O65092   0.204   8.547   4.798
21617WAT     H165093   0.106   8.528   4.791
21617WAT     H265094   0.217   8.636   4.842
21618WAT      O65095   9.551   6.724   0.747
21618WAT     H165096   9.542   6.776   0.662
21618WAT     H265097   9.588   6.633   0.727
21619WAT      O65098   9.800   5.552   4.632
21619WAT     H165099   9.858   5.625   4.666
21619WAT     H265100   9.778   5.489   4.706
21620WAT      O65101   4.862   9.313   3.969
21620WAT     H165102   4.826   9.300   4.061
21620WAT     H265103   4.912   9.232   3.940
21621WAT      O65104   3.227   5.144   9.757
21621WAT     H165105   3.247   5.069   9.693
21621WAT     H265106   3.247   5.114   9.850
21622WAT      O65107   1.133   9.121   4.891
21622WAT     H165108   1.105   9.119   4.987
21622WAT     H265109   1.148   9.028   4.858
21623WAT      O65110   2.277   6.468   9.481
21623WAT     H165111   2.192   6.429   9.516
21623WAT     H265112   2.299   6.551   9.532
21624WAT      O65113   1.190   1.380   6.082
21624WAT     H165114   1.222   1.375   5.987
21624WAT     H265115   1.232   1.306   6.134
21625WAT      O65116   5.794   7.990   0.543
21625WAT     H165117   5.781   8.075   0.593
21625WAT     H265118   5.885   7.988   0.503
21626WAT      O65119   1.725   2.127   8.268
21626WAT     H165120   1.816   2.167   8.264
21626WAT     H265121   1.696   2.119   8.364
21627WAT      O65122   1.334   8.586   3.362
21627WAT     H165123   1.355   8.489   3.373
21627WAT     H265124   1.253   8.596   3.303
21628WAT      O65125   8.511   5.943   3.822
21628WAT     H165126   8.511   6.033   3.866
21628WAT     H265127   8.550   5.875   3.885
21629WAT      O65128   1.250   4.173   6.835
21629WAT     H165129   1.155   4.168   6.865
21629WAT     H265130   1.309   4.133   6.905
21630WAT      O65131   1.922   6.869   6.096
21630WAT     H165132   1.866   6.787   6.083
21630WAT     H265133   1.888   6.942   6.037
21631WAT      O65134   6.523   1.893   4.997
21631WAT     H165135   6.526   1.848   4.908
21631WAT     H265136   6.443   1.952   5.003
21632WAT      O65137   9.151   2.461   5.165
21632WAT     H165138   9.173   2.364   5.163
21632WAT     H265139   9.142   2.492   5.260
21633WAT      O65140   5.849   3.765   8.371
21633WAT     H165141   5.881   3.754   8.465
21633WAT     H265142   5.750   3.751   8.367
21634WAT      O65143   9.625   0.603   9.619
21634WAT     H165144   9.525   0.608   9.624
21634WAT     H265145   9.661   0.689   9.584
21635WAT      O65146   6.138   6.049   3.535
21635WAT     H165147   6.113   6.105   3.456
21635WAT     H265148   6.057   6.034   3.592
21636WAT      O65149   5.667   3.971   0.883
21636WAT     H165150   5.686   3.982   0.785
21636WAT     H265151   5.681   4.059   0.929
21637WAT      O65152   8.825   4.693   5.527
21637WAT     H165153   8.738   4.682   5.575
21637WAT     H265154   8.808   4.700   5.429
21638WAT      O65155   2.822   1.553   5.036
21638WAT     H165156   2.763   1.598   5.102
21638WAT     H265157   2.770   1.533   4.953
21639WAT      O65158   8.054   3.711   7.010
21639WAT     H165159   8.010   3.751   7.090
21639WAT     H265160   8.142   3.757   6.993
21640WAT      O65161   9.177   8.726   2.847
21640WAT     H165162   9.092   8.691   2.808
21640WAT     H265163   9.157   8.798   2.914
21641WAT      O65164   9.797   7.453   2.931
21641WAT     H165165   9.710   7.481   2.890
21641WAT     H265166   9.795   7.354   2.948
21642WAT      O65167   8.081   1.293   6.819
21642WAT     H165168   8.086   1.241   6.733
21642WAT     H265169   7.990   1.331   6.830
21643WAT      O65170   2.834   7.742   4.458
21643WAT     H165171   2.760   7.703   4.512
21643WAT     H265172   2.873   7.820   4.506
21644WAT      O65173   0.848   4.121   5.413
21644WAT     H165174   0.895   4.174   5.484
21644WAT     H265175   0.767   4.078   5.452
21645WAT      O65176   7.808   3.533   5.766
21645WAT     H165177   7.742   3.466   5.799
21645WAT     H265178   7.836   3.592   5.841
21646WAT      O65179   6.741   6.832   4.310
21646WAT     H165180   6.702   6.917   4.274
21646WAT     H265181   6.668   6.764   4.319
21647WAT      O65182   0.226   0.495   1.318
21647WAT     H165183   0.205   0.555   1.395
21647WAT     H265184   0.320   0.461   1.327
21648WAT      O65185   3.037   2.891   6.404
21648WAT     H165186   3.007   2.933   6.319
21648WAT     H265187   2.980   2.924   6.479
21649WAT      O65188   0.037   8.848   1.926
21649WAT     H165189   0.064   8.900   1.845
21649WAT     H265190   0.093   8.876   2.004
21650WAT      O65191   7.162   7.765   0.949
21650WAT     H165192   7.084   7.706   0.928
21650WAT     H265193   7.235   7.710   0.989
21651WAT      O65194   0.484   5.548   3.094
21651WAT     H165195   0.418   5.612   3.054
21651WAT     H265196   0.441   5.497   3.168
21652WAT      O65197   3.877   8.888   3.947
21652WAT     H165198   3.972   8.860   3.936
21652WAT     H265199   3.872   8.968   4.007
21653WAT      O65200   7.865   2.540   1.952
21653WAT     H165201   7.851   2.478   1.875
21653WAT     H265202   7.955   2.523   1.993
21654WAT      O65203   7.875   8.569   5.226
21654WAT     H165204   7.779   8.590   5.210
21654WAT     H265205   7.931   8.612   5.155
21655WAT      O65206   3.306   0.984   2.872
21655WAT     H165207   3.275   0.952   2.961
21655WAT     H265208   3.397   0.947   2.852
21656WAT      O65209   7.294   3.105   4.467
21656WAT     H165210   7.389   3.085   4.491
21656WAT     H265211   7.236   3.030   4.500
21657WAT      O65212   0.139   1.651   9.313
21657WAT     H165213   0.178   1.743   9.302
21657WAT     H265214   0.054   1.657   9.365
21658WAT      O65215   4.738   0.131   4.613
21658WAT     H165216   4.799   0.053   4.598
21658WAT     H265217   4.791   0.211   4.641
21659WAT      O65218   9.491   9.391   0.994
21659WAT     H165219   9.452   9.461   0.934
21659WAT     H265220   9.490   9.424   1.089
21660WAT      O65221   5.712   4.395   5.366
21660WAT     H165222   5.776   4.445   5.425
21660WAT     H265223   5.729   4.420   5.271
21661WAT      O65224   0.075   3.128   8.427
21661WAT     H165225   0.030   3.122   8.339
21661WAT     H265226   0.174   3.123   8.415
21662WAT      O65227   7.588   1.558   8.345
21662WAT     H165228   7.605   1.474   8.293
21662WAT     H265229   7.613   1.637   8.289
21663WAT      O65230   3.237   2.370   6.767
21663WAT     H165231   3.218   2.463   6.736
21663WAT     H265232   3.154   2.331   6.808
21664WAT      O65233   8.899   0.225   6.178
21664WAT     H165234   8.849   0.243   6.093
21664WAT     H265235   8.997   0.237   6.163
21665WAT      O65236   9.113   8.383   3.814
21665WAT     H165237   9.112   8.480   3.791
21665WAT     H265238   9.206   8.356   3.840
21666WAT      O65239   9.497   8.897   5.894
21666WAT     H165240   9.522   8.953   5.973
21666WAT     H265241   9.420   8.839   5.918
21667WAT      O65242   9.342   1.511   7.733
21667WAT     H165243   9.391   1.425   7.719
21667WAT     H265244   9.246   1.498   7.709
21668WAT      O65245   6.666   0.801   9.240
21668WAT     H165246   6.731   0.783   9.313
21668WAT     H265247   6.614   0.884   9.262
21669WAT      O65248   5.562   4.633   7.641
21669WAT     H165249   5.655   4.662   7.616
21669WAT     H265250   5.504   4.713   7.655
21670WAT      O65251   7.092   4.764   3.205
21670WAT     H165252   7.153   4.685   3.202
21670WAT     H265253   7.078   4.791   3.301
21671WAT      O65254   6.580   3.067   3.824
21671WAT     H165255   6.551   3.068   3.920
21671WAT     H265256   6.680   3.064   3.819
21672WAT      O65257   7.416   7.521   2.447
21672WAT     H165258   7.438   7.504   2.351
21672WAT     H265259   7.448   7.612   2.473
21673WAT      O65260   0.338   0.273   5.975
21673WAT     H165261   0.416   0.216   5.950
21673WAT     H265262   0.357   0.319   6.062
21674WAT      O65263   8.460   9.739   3.388
21674WAT     H165264   8.373   9.771   3.425
21674WAT     H265265   8.456   9.641   3.372
21675WAT      O65266   8.580   4.299   5.350
21675WAT     H165267   8.585   4.208   5.309
21675WAT     H265268   8.624   4.298   5.440
21676WAT      O65269   4.372   7.686   6.710
21676WAT     H165270   4.348   7.679   6.807
21676WAT     H265271   4.289   7.697   6.656
21677WAT      O65272   0.192   1.473   6.636
21677WAT     H165273   0.196   1.468   6.536
21677WAT     H265274   0.256   1.543   6.668
21678WAT      O65275   2.562   6.673   7.819
21678WAT     H165276   2.564   6.753   7.759
21678WAT     H265277   2.647   6.668   7.871
21679WAT      O65278   5.515   2.985   8.104
21679WAT     H165279   5.440   2.957   8.044
21679WAT     H265280   5.524   2.921   8.180
21680WAT      O65281   7.911   7.421   2.976
21680WAT     H165282   7.849   7.352   3.014
21680WAT     H265283   7.991   7.429   3.034
21681WAT      O65284   7.749   6.737   5.082
21681WAT     H165285   7.728   6.676   5.005
21681WAT     H265286   7.812   6.808   5.051
21682WAT      O65287   2.266   7.361   7.014
21682WAT     H165288   2.236   7.313   7.097
21682WAT     H265289   2.231   7.454   7.015
21683WAT      O65290   1.292   4.146   4.122
21683WAT     H165291   1.337   4.112   4.204
21683WAT     H265292   1.292   4.246   4.123
21684WAT      O65293   7.648   4.662   9.199
21684WAT     H165294   7.595   4.739   9.164
21684WAT     H265295   7.683   4.683   9.290
21685WAT      O65296   2.431   8.533   5.539
21685WAT     H165297   2.521   8.576   5.548
21685WAT     H265298   2.375   8.555   5.619
21686WAT      O65299   4.002   4.956   6.015
21686WAT     H165300   4.048   4.980   5.929
21686WAT     H265301   4.019   5.027   6.083
21687WAT      O65302   6.075   4.166   4.420
21687WAT     H165303   6.004   4.194   4.485
21687WAT     H265304   6.155   4.133   4.470
21688WAT      O65305   9.639   3.305   3.096
21688WAT     H165306   9.715   3.360   3.062
21688WAT     H265307   9.553   3.354   3.085
21689WAT      O65308   8.862   5.166   9.328
21689WAT     H165309   8.951   5.193   9.364
21689WAT     H265310   8.836   5.229   9.255
21690WAT      O65311   5.225   7.342   4.984
21690WAT     H165312   5.264   7.385   4.903
21690WAT     H265313   5.210   7.411   5.055
21691WAT      O65314   6.529   7.837   1.715
21691WAT     H165315   6.607   7.897   1.732
21691WAT     H265316   6.455   7.859   1.778
21692WAT      O65317   7.235   6.866   5.982
21692WAT     H165318   7.209   6.770   5.973
21692WAT     H265319   7.234   6.893   6.078
21693WAT      O65320   2.321   7.839   1.221
21693WAT     H165321   2.312   7.756   1.167
21693WAT     H265322   2.264   7.911   1.181
21694WAT      O65323   2.753   0.484   3.744
21694WAT     H165324   2.709   0.486   3.655
21694WAT     H265325   2.840   0.533   3.740
21695WAT      O65326   3.645   1.725   5.896
21695WAT     H165327   3.741   1.753   5.887
21695WAT     H265328   3.641   1.637   5.944
21696WAT      O65329   1.440   1.911   5.804
21696WAT     H165330   1.514   1.939   5.865
21696WAT     H265331   1.436   1.811   5.800
21697WAT      O65332   5.671   3.325   1.129
21697WAT     H165333   5.626   3.345   1.042
21697WAT     H265334   5.705   3.410   1.169
21698WAT      O65335   3.208   1.200   5.727
21698WAT     H165336   3.131   1.253   5.763
21698WAT     H265337   3.195   1.103   5.750
21699WAT      O65338   4.631   2.646   9.615
21699WAT     H165339   4.543   2.663   9.571
21699WAT     H265340   4.705   2.669   9.553
21700WAT      O65341   0.548   4.773   8.405
21700WAT     H165342   0.472   4.810   8.351
21700WAT     H265343   0.626   4.757   8.346
21701WAT      O65344   8.913   4.237   8.461
21701WAT     H165345   8.904   4.311   8.395
21701WAT     H265346   8.844   4.167   8.442
21702WAT      O65347   6.092   0.754   3.453
21702WAT     H165348   6.049   0.698   3.382
21702WAT     H265349   6.126   0.694   3.526
21703WAT      O65350   4.617   5.305   1.149
21703WAT     H165351   4.520   5.307   1.173
21703WAT     H265352   4.639   5.217   1.108
21704WAT      O65353   0.585   5.397   8.305
21704WAT     H165354   0.673   5.356   8.282
21704WAT     H265355   0.600   5.486   8.349
21705WAT      O65356   1.353   2.845   9.335
21705WAT     H165357   1.311   2.808   9.418
21705WAT     H265358   1.310   2.933   9.312
21706WAT      O65359   5.058   6.740   1.356
21706WAT     H165360   5.005   6.670   1.308
21706WAT     H265361   5.148   6.749   1.314
21707WAT      O65362   2.735   2.220   8.586
21707WAT     H165363   2.649   2.263   8.613
21707WAT     H265364   2.808   2.253   8.645
21708WAT      O65365   2.474   6.870   9.310
21708WAT     H165366   2.407   6.812   9.264
21708WAT     H265367   2.535   6.912   9.242
21709WAT      O65368   3.718   2.329   5.350
21709WAT     H165369   3.669   2.375   5.276
21709WAT     H265370   3.652   2.285   5.411
21710WAT      O65371   2.296   9.438   8.047
21710WAT     H165372   2.287   9.355   8.102
21710WAT     H265373   2.270   9.517   8.103
21711WAT      O65374   1.007   7.118   2.359
21711WAT     H165375   0.992   7.213   2.385
21711WAT     H265376   1.056   7.071   2.432
21712WAT      O65377   1.817   0.170   2.494
21712WAT     H165378   1.904   0.218   2.492
21712WAT     H265379   1.832   0.072   2.485
21713WAT      O65380   1.773   8.778   6.065
21713WAT     H165381   1.808   8.868   6.093
21713WAT     H265382   1.768   8.774   5.966
21714WAT      O65383   6.266   3.044   2.586
21714WAT     H165384   6.287   2.949   2.566
21714WAT     H265385   6.168   3.056   2.598
21715WAT      O65386   0.223   5.171   2.717
21715WAT     H165387   0.229   5.271   2.718
21715WAT     H265388   0.135   5.143   2.755
21716WAT      O65389   2.501   1.573   1.731
21716WAT     H165390   2.428   1.517   1.692
21716WAT     H265391   2.506   1.557   1.830
21717WAT      O65392   0.123   2.745   6.972
21717WAT     H165393   0.059   2.680   6.930
21717WAT     H265394   0.198   2.763   6.908
21718WAT      O65395   5.720   3.238   6.724
21718WAT     H165396   5.714   3.170   6.651
21718WAT     H265397   5.816   3.252   6.748
21719WAT      O65398   3.000   0.890   5.391
21719WAT     H165399   2.995   0.979   5.436
21719WAT     H265400   3.092   0.852   5.403
21720WAT      O65401   6.826   5.593   8.313
21720WAT     H165402   6.776   5.509   8.331
21720WAT     H265403   6.865   5.629   8.399
21721WAT      O65404   2.557   8.430   1.917
21721WAT     H165405   2.515   8.379   1.842
21721WAT     H265406   2.590   8.519   1.883
21722WAT      O65407   9.521   1.651   9.134
21722WAT     H165408   9.514   1.565   9.184
21722WAT     H265409   9.607   1.697   9.160
21723WAT      O65410   8.885   0.803   4.284
21723WAT     H165411   8.792   0.769   4.298
21723WAT     H265412   8.940   0.732   4.240
21724WAT      O65413   6.266   1.601   1.409
21724WAT     H165414   6.281   1.667   1.483
21724WAT     H265415   6.284   1.509   1.443
21725WAT      O65416   1.142   0.068   5.994
21725WAT     H165417   1.219   0.023   6.040
21725WAT     H265418   1.174   0.108   5.908
21726WAT      O65419   8.045   1.307   9.635
21726WAT     H165420   7.952   1.300   9.669
21726WAT     H265421   8.046   1.362   9.551
21727WAT      O65422   7.793   5.261   9.210
21727WAT     H165423   7.858   5.202   9.161
21727WAT     H265424   7.727   5.299   9.145
21728WAT      O65425   9.855   1.048   6.064
21728WAT     H165426   9.863   0.960   6.017
21728WAT     H265427   9.930   1.058   6.128
21729WAT      O65428   2.210   4.467   2.412
21729WAT     H165429   2.229   4.393   2.475
21729WAT     H265430   2.172   4.430   2.327
21730WAT      O65431   7.601   8.619   6.872
21730WAT     H165432   7.639   8.536   6.832
21730WAT     H265433   7.627   8.698   6.816
21731WAT      O65434   5.228   2.247   7.560
21731WAT     H165435   5.178   2.317   7.612
21731WAT     H265436   5.189   2.157   7.579
21732WAT      O65437   2.434   7.839   1.960
21732WAT     H165438   2.361   7.853   1.893
21732WAT     H265439   2.512   7.794   1.915
21733WAT      O65440   6.725   6.167   6.346
21733WAT     H165441   6.709   6.068   6.349
21733WAT     H265442   6.775   6.195   6.428
21734WAT      O65443   5.874   5.285   9.375
21734WAT     H165444   5.890   5.322   9.283
21734WAT     H265445   5.834   5.356   9.432
21735WAT      O65446   6.908   7.386   9.711
21735WAT     H165447   6.999   7.382   9.671
21735WAT     H265448   6.843   7.424   9.645
21736WAT      O65449   2.393   7.170   9.427
21736WAT     H165450   2.418   7.076   9.402
21736WAT     H265451   2.469   7.231   9.406
21737WAT      O65452   8.015   4.283   4.436
21737WAT     H165453   8.103   4.245   4.464
21737WAT     H265454   7.989   4.247   4.347
21738WAT      O65455   2.372   2.209   8.915
21738WAT     H165456   2.359   2.262   8.999
21738WAT     H265457   2.284   2.173   8.884
21739WAT      O65458   8.608   1.576   5.257
21739WAT     H165459   8.681   1.507   5.251
21739WAT     H265460   8.583   1.589   5.353
21740WAT      O65461   1.295   7.847   6.792
21740WAT     H165462   1.391   7.835   6.767
21740WAT     H265463   1.240   7.777   6.747
21741WAT      O65464   2.401   2.001   9.898
21741WAT     H165465   2.472   2.008   9.827
21741WAT     H265466   2.333   1.933   9.869
21742WAT      O65467   3.366   0.481   2.515
21742WAT     H165468   3.317   0.546   2.573
21742WAT     H265469   3.301   0.416   2.476
21743WAT      O65470   7.316   1.368   9.104
21743WAT     H165471   7.370   1.303   9.051
21743WAT     H265472   7.376   1.440   9.140
21744WAT      O65473   0.445   3.594   9.218
21744WAT     H165474   0.392   3.560   9.140
21744WAT     H265475   0.449   3.694   9.214
21745WAT      O65476   3.356   4.668   7.040
21745WAT     H165477   3.445   4.697   7.004
21745WAT     H265478   3.369   4.594   7.106
21746WAT      O65479   1.352   0.976   1.978
21746WAT     H165480   1.441   0.929   1.979
21746WAT     H265481   1.285   0.921   2.027
21747WAT      O65482   6.387   1.637   7.636
21747WAT     H165483   6.336   1.653   7.552
21747WAT     H265484   6.475   1.684   7.632
21748WAT      O65485   7.703   1.029   3.624
21748WAT     H165486   7.795   1.023   3.662
21748WAT     H265487   7.678   1.125   3.611
21749WAT      O65488   9.664   7.379   0.518
21749WAT     H165489   9.684   7.306   0.583
21749WAT     H265490   9.578   7.423   0.543
21750WAT      O65491   7.957   2.826   3.955
21750WAT     H165492   7.858   2.823   3.967
21750WAT     H265493   7.995   2.900   4.009
21751WAT      O65494   7.815   6.484   3.914
21751WAT     H165495   7.824   6.398   3.865
21751WAT     H265496   7.861   6.477   4.003
21752WAT      O65497   7.454   5.235   4.230
21752WAT     H165498   7.522   5.271   4.293
21752WAT     H265499   7.363   5.240   4.272
21753WAT      O65500   9.583   7.905   9.739
21753WAT     H165501   9.546   7.832   9.682
21753WAT     H265502   9.655   7.954   9.688
21754WAT      O65503   0.143   2.144   2.844
21754WAT     H165504   0.091   2.181   2.920
21754WAT     H265505   0.233   2.187   2.841
21755WAT      O65506   2.010   6.198   1.528
21755WAT     H165507   1.984   6.209   1.624
21755WAT     H265508   2.103   6.231   1.515
21756WAT      O65509   9.407   2.070   4.886
21756WAT     H165510   9.343   2.054   4.810
21756WAT     H265511   9.455   1.984   4.906
21757WAT      O65512   5.193   4.451   5.304
21757WAT     H165513   5.152   4.482   5.391
21757WAT     H265514   5.121   4.447   5.234
21758WAT      O65515   6.666   9.232   1.350
21758WAT     H165516   6.751   9.263   1.308
21758WAT     H265517   6.646   9.139   1.320
21759WAT      O65518   2.834   2.604   6.914
21759WAT     H165519   2.819   2.652   6.828
21759WAT     H265520   2.822   2.505   6.900
21760WAT      O65521   2.722   8.117   9.365
21760WAT     H165522   2.752   8.207   9.399
21760WAT     H265523   2.687   8.127   9.272
21761WAT      O65524   9.819   3.899   0.195
21761WAT     H165525   9.783   3.863   0.280
21761WAT     H265526   9.798   3.996   0.187
21762WAT      O65527   2.963   8.592   9.791
21762WAT     H165528   3.019   8.674   9.803
21762WAT     H265529   2.973   8.533   9.872
21763WAT      O65530   6.438   5.205   9.705
21763WAT     H165531   6.402   5.164   9.621
21763WAT     H265532   6.538   5.214   9.697
21764WAT      O65533   8.856   9.314   2.204
21764WAT     H165534   8.781   9.275   2.150
21764WAT     H265535   8.826   9.325   2.298
21765WAT      O65536   8.653   8.493   2.866
21765WAT     H165537   8.594   8.525   2.940
21765WAT     H265538   8.631   8.544   2.783
21766WAT      O65539   9.626   0.397   5.923
21766WAT     H165540   9.677   0.374   6.005
21766WAT     H265541   9.666   0.349   5.844
21767WAT      O65542   2.191   1.685   0.548
21767WAT     H165543   2.282   1.717   0.575
21767WAT     H265544   2.140   1.760   0.507
21768WAT      O65545   6.819   5.996   7.408
21768WAT     H165546   6.739   6.017   7.465
21768WAT     H265547   6.898   5.980   7.467
21769WAT      O65548   1.419   8.763   3.567
21769WAT     H165549   1.390   8.703   3.492
21769WAT     H265550   1.512   8.739   3.595
21770WAT      O65551   3.900   1.822   9.315
21770WAT     H165552   3.840   1.893   9.353
21770WAT     H265553   3.848   1.737   9.304
21771WAT      O65554   7.529   7.272   5.742
21771WAT     H165555   7.513   7.188   5.793
21771WAT     H265556   7.449   7.292   5.685
21772WAT      O65557   2.419   7.242   2.590
21772WAT     H165558   2.496   7.240   2.653
21772WAT     H265559   2.453   7.239   2.496
21773WAT      O65560   8.240   5.501   9.508
21773WAT     H165561   8.328   5.465   9.478
21773WAT     H265562   8.251   5.594   9.543
21774WAT      O65563   3.803   8.585   3.114
21774WAT     H165564   3.804   8.676   3.156
21774WAT     H265565   3.739   8.585   3.037
21775WAT      O65566   7.782   7.470   4.353
21775WAT     H165567   7.700   7.418   4.377
21775WAT     H265568   7.824   7.429   4.272
21776WAT      O65569   1.388   2.148   7.540
21776WAT     H165570   1.351   2.112   7.625
21776WAT     H265571   1.350   2.239   7.522
21777WAT      O65572   5.371   8.972   4.818
21777WAT     H165573   5.438   9.021   4.764
21777WAT     H265574   5.282   9.016   4.809
21778WAT      O65575   9.700   2.701   3.012
21778WAT     H165576   9.686   2.739   2.921
21778WAT     H265577   9.632   2.629   3.029
21779WAT      O65578   0.536   7.480   5.706
21779WAT     H165579   0.547   7.424   5.788
21779WAT     H265580   0.618   7.471   5.649
21780WAT      O65581   7.267   5.919   6.585
21780WAT     H165582   7.337   5.989   6.595
21780WAT     H265583   7.302   5.832   6.620
21781WAT      O65584   5.321   7.076   7.311
21781WAT     H165585   5.370   7.130   7.243
21781WAT     H265586   5.245   7.130   7.349
21782WAT      O65587   5.395   8.640   4.248
21782WAT     H165588   5.474   8.611   4.194
21782WAT     H265589   5.385   8.740   4.240
21783WAT      O65590   6.328   7.994   9.680
21783WAT     H165591   6.315   7.895   9.682
21783WAT     H265592   6.337   8.025   9.586
21784WAT      O65593   4.052   7.966   7.282
21784WAT     H165594   3.975   7.993   7.340
21784WAT     H265595   4.073   7.870   7.299
21785WAT      O65596   1.825   1.030   3.817
21785WAT     H165597   1.821   0.996   3.723
21785WAT     H265598   1.740   1.004   3.864
21786WAT      O65599   8.814   6.349   2.429
21786WAT     H165600   8.910   6.341   2.403
21786WAT     H265601   8.790   6.275   2.492
21787WAT      O65602   3.440   2.103   5.703
21787WAT     H165603   3.452   2.155   5.618
21787WAT     H265604   3.451   2.006   5.684
21788WAT      O65605   1.892   1.266   9.789
21788WAT     H165606   1.819   1.200   9.770
21788WAT     H265607   1.877   1.348   9.733
21789WAT      O65608   0.501   3.823   1.291
21789WAT     H165609   0.517   3.897   1.357
21789WAT     H265610   0.418   3.773   1.316
21790WAT      O65611   8.800   3.949   8.245
21790WAT     H165612   8.706   3.960   8.213
21790WAT     H265613   8.807   3.867   8.302
21791WAT      O65614   7.724   5.707   3.571
21791WAT     H165615   7.676   5.760   3.641
21791WAT     H265616   7.814   5.748   3.555
21792WAT      O65617   4.502   4.559   1.793
21792WAT     H165618   4.598   4.585   1.787
21792WAT     H265619   4.486   4.508   1.878
21793WAT      O65620   4.966   8.516   0.894
21793WAT     H165621   4.988   8.612   0.909
21793WAT     H265622   4.991   8.463   0.975
21794WAT      O65623   8.343   8.324   2.917
21794WAT     H165624   8.343   8.224   2.929
21794WAT     H265625   8.340   8.346   2.820
21795WAT      O65626   2.432   9.120   3.170
21795WAT     H165627   2.341   9.144   3.139
21795WAT     H265628   2.455   9.173   3.252
21796WAT      O65629   0.294   3.647   5.309
21796WAT     H165630   0.255   3.558   5.334
21796WAT     H265631   0.267   3.670   5.215
21797WAT      O65632   2.899   4.426   6.548
21797WAT     H165633   2.884   4.443   6.451
21797WAT     H265634   2.919   4.329   6.563
21798WAT      O65635   9.279   8.480   7.387
21798WAT     H165636   9.255   8.543   7.314
21798WAT     H265637   9.249   8.518   7.475
21799WAT      O65638   0.633   4.964   2.560
21799WAT     H165639   0.556   4.958   2.625
21799WAT     H265640   0.719   4.959   2.611
21800WAT      O65641   3.898   2.923   0.216
21800WAT     H165642   3.854   2.983   0.283
21800WAT     H265643   3.897   2.829   0.250
21801WAT      O65644   2.360   6.305   8.235
21801WAT     H165645   2.369   6.326   8.137
21801WAT     H265646   2.411   6.373   8.288
21802WAT      O65647   3.090   0.951   0.117
21802WAT     H165648   3.065   0.974   0.023
21802WAT     H265649   3.077   0.853   0.132
21803WAT      O65650   0.733   1.007   1.580
21803WAT     H165651   0.719   1.033   1.676
21803WAT     H265652   0.669   0.934   1.555
21804WAT      O65653   8.324   6.275   4.257
21804WAT     H165654   8.405   6.266   4.199
21804WAT     H265655   8.273   6.357   4.230
21805WAT      O65656   8.776   6.282   4.612
21805WAT     H165657   8.781   6.358   4.547
21805WAT     H265658   8.692   6.288   4.664
21806WAT      O65659   2.968   7.593   0.089
21806WAT     H165660   2.936   7.635   0.174
21806WAT     H265661   2.945   7.495   0.089
21807WAT      O65662   9.737   5.128   6.982
21807WAT     H165663   9.773   5.205   6.930
21807WAT     H265664   9.797   5.049   6.969
21808WAT      O65665   9.235   4.085   9.757
21808WAT     H165666   9.156   4.108   9.700
21808WAT     H265667   9.313   4.140   9.729
21809WAT      O65668   0.948   9.588   4.875
21809WAT     H165669   0.918   9.653   4.944
21809WAT     H265670   0.965   9.499   4.918
21810WAT      O65671   4.990   2.501   5.133
21810WAT     H165672   4.966   2.592   5.166
21810WAT     H265673   4.908   2.444   5.130
21811WAT      O65674   1.337   6.631   8.290
21811WAT     H165675   1.378   6.678   8.212
21811WAT     H265676   1.335   6.692   8.369
21812WAT      O65677   6.093   3.986   5.248
21812WAT     H165678   6.051   4.010   5.160
21812WAT     H265679   6.192   4.000   5.243
21813WAT      O65680   0.096   3.939   8.985
21813WAT     H165681   0.153   4.021   8.983
21813WAT     H265682   0.119   3.880   8.907
21814WAT      O65683   4.239   6.225   9.825
21814WAT     H165684   4.146   6.215   9.859
21814WAT     H265685   4.261   6.323   9.818
21815WAT      O65686   1.958   1.752   3.835
21815WAT     H165687   2.057   1.743   3.848
21815WAT     H265688   1.914   1.664   3.850
21816WAT      O65689   4.259   5.441   9.662
21816WAT     H165690   4.288   5.355   9.620
21816WAT     H265691   4.163   5.457   9.641
21817WAT      O65692   3.592   2.938   9.619
21817WAT     H165693   3.611   2.920   9.522
21817WAT     H265694   3.498   2.969   9.629
21818WAT      O65695   4.547   5.724   0.941
21818WAT     H165696   4.507   5.810   0.972
21818WAT     H265697   4.646   5.732   0.938
21819WAT      O65698   4.223   0.022   1.778
21819WAT     H165699   4.168   0.090   1.826
21819WAT     H265700   4.307   0.004   1.828
21820WAT      O65701   4.732   9.734   5.122
21820WAT     H165702   4.635   9.741   5.148
21820WAT     H265703   4.784   9.697   5.200
21821WAT      O65704   2.275   7.530   8.336
21821WAT     H165705   2.176   7.532   8.348
21821WAT     H265706   2.316   7.464   8.399
21822WAT      O65707   9.837   9.458   2.668
21822WAT     H165708   9.841   9.556   2.686
21822WAT     H265709   9.744   9.424   2.684
21823WAT      O65710   3.242   5.656   6.519
21823WAT     H165711   3.339   5.681   6.527
21823WAT     H265712   3.215   5.603   6.599
21824WAT      O65713   0.927   1.125   6.428
21824WAT     H165714   0.860   1.051   6.417
21824WAT     H265715   0.999   1.114   6.359
21825WAT      O65716   7.284   4.241   7.291
21825WAT     H165717   7.269   4.195   7.204
21825WAT     H265718   7.198   4.280   7.323
21826WAT      O65719   6.837   5.744   5.055
21826WAT     H165720   6.886   5.765   5.139
21826WAT     H265721   6.758   5.687   5.076
21827WAT      O65722   5.040   7.798   2.676
21827WAT     H165723   5.076   7.839   2.760
21827WAT     H265724   5.063   7.701   2.674
21828WAT      O65725   8.856   7.195   6.081
21828WAT     H165726   8.821   7.129   6.148
21828WAT     H265727   8.923   7.255   6.125
21829WAT      O65728   0.088   0.217   9.263
21829WAT     H165729   0.155   0.160   9.312
21829WAT     H265730   0.023   0.255   9.329
21830WAT      O65731   4.972   7.888   7.989
21830WAT     H165732   4.947   7.983   8.004
21830WAT     H265733   5.036   7.859   8.061
21831WAT      O65734   0.556   0.279   6.199
21831WAT     H165735   0.570   0.368   6.155
21831WAT     H265736   0.611   0.274   6.282
21832WAT      O65737   7.946   6.105   9.839
21832WAT     H165738   7.961   6.199   9.811
21832WAT     H265739   7.855   6.096   9.880
21833WAT      O65740   4.324   0.909   8.866
21833WAT     H165741   4.308   0.839   8.797
21833WAT     H265742   4.419   0.941   8.861
21834WAT      O65743   1.249   3.763   6.702
21834WAT     H165744   1.249   3.842   6.640
21834WAT     H265745   1.338   3.758   6.748
21835WAT      O65746   9.458   6.812   9.536
21835WAT     H165747   9.546   6.847   9.503
21835WAT     H265748   9.474   6.738   9.601
21836WAT      O65749   1.842   4.471   2.400
21836WAT     H165750   1.812   4.430   2.314
21836WAT     H265751   1.813   4.566   2.403
21837WAT      O65752   6.655   3.070   6.796
21837WAT     H165753   6.727   3.022   6.847
21837WAT     H265754   6.580   3.006   6.776
21838WAT      O65755   5.332   3.635   7.769
21838WAT     H165756   5.373   3.581   7.842
21838WAT     H265757   5.300   3.575   7.696
21839WAT      O65758   2.929   5.643   0.730
21839WAT     H165759   3.015   5.694   0.728
21839WAT     H265760   2.854   5.702   0.700
21840WAT      O65761   1.106   1.420   3.644
21840WAT     H165762   1.032   1.433   3.578
21840WAT     H265763   1.172   1.495   3.635
21841WAT      O65764   0.248   1.440   9.757
21841WAT     H165765   0.241   1.535   9.786
21841WAT     H265766   0.159   1.396   9.762
21842WAT      O65767   1.672   9.030   3.018
21842WAT     H165768   1.573   9.039   3.024
21842WAT     H265769   1.695   8.948   2.964
21843WAT      O65770   4.411   9.387   0.945
21843WAT     H165771   4.391   9.353   0.854
21843WAT     H265772   4.326   9.413   0.991
21844WAT      O65773   1.831   3.412   8.581
21844WAT     H165774   1.907   3.421   8.646
21844WAT     H265775   1.791   3.502   8.563
21845WAT      O65776   6.662   5.130   2.218
21845WAT     H165777   6.640   5.032   2.214
21845WAT     H265778   6.725   5.147   2.293
21846WAT      O65779   4.888   1.746   5.424
21846WAT     H165780   4.919   1.688   5.498
21846WAT     H265781   4.791   1.730   5.407
21847WAT      O65782   8.346   3.374   4.251
21847WAT     H165783   8.419   3.320   4.294
21847WAT     H265784   8.356   3.371   4.152
21848WAT      O65785   4.411   8.852   6.739
21848WAT     H165786   4.342   8.803   6.686
21848WAT     H265787   4.502   8.829   6.706
21849WAT      O65788   0.751   1.511   7.329
21849WAT     H165789   0.789   1.518   7.422
21849WAT     H265790   0.756   1.601   7.285
21850WAT      O65791   7.151   1.198   3.987
21850WAT     H165792   7.093   1.280   3.987
21850WAT     H265793   7.236   1.217   4.034
21851WAT      O65794   3.568   3.344   1.147
21851WAT     H165795   3.565   3.406   1.068
21851WAT     H265796   3.491   3.364   1.207
21852WAT      O65797   9.860   2.608   0.714
21852WAT     H165798   9.767   2.576   0.696
21852WAT     H265799   9.925   2.547   0.669
21853WAT      O65800   7.507   8.363   4.363
21853WAT     H165801   7.528   8.376   4.266
21853WAT     H265802   7.550   8.279   4.395
21854WAT      O65803   1.471   5.866   0.748
21854WAT     H165804   1.459   5.965   0.747
21854WAT     H265805   1.476   5.832   0.654
21855WAT      O65806   4.423   5.668   8.954
21855WAT     H165807   4.383   5.739   8.896
21855WAT     H265808   4.358   5.592   8.962
21856WAT      O65809   2.259   2.940   2.397
21856WAT     H165810   2.358   2.933   2.395
21856WAT     H265811   2.231   3.031   2.366
21857WAT      O65812   2.364   0.653   6.916
21857WAT     H165813   2.402   0.617   6.832
21857WAT     H265814   2.393   0.597   6.994
21858WAT      O65815   3.938   4.214   6.139
21858WAT     H165816   3.928   4.236   6.236
21858WAT     H265817   3.848   4.210   6.097
21859WAT      O65818   1.912   8.577   2.170
21859WAT     H165819   1.905   8.669   2.133
21859WAT     H265820   2.000   8.537   2.143
21860WAT      O65821   2.142   7.956   8.881
21860WAT     H165822   2.147   7.985   8.976
21860WAT     H265823   2.097   8.026   8.826
21861WAT      O65824   3.555   6.498   8.150
21861WAT     H165825   3.578   6.593   8.130
21861WAT     H265826   3.456   6.487   8.150
21862WAT      O65827   1.229   4.927   1.566
21862WAT     H165828   1.215   4.960   1.473
21862WAT     H265829   1.154   4.866   1.591
21863WAT      O65830   6.622   5.377   5.305
21863WAT     H165831   6.523   5.359   5.304
21863WAT     H265832   6.649   5.405   5.397
21864WAT      O65833   0.910   5.103   8.913
21864WAT     H165834   0.990   5.107   8.853
21864WAT     H265835   0.827   5.099   8.858
21865WAT      O65836   7.833   6.008   6.136
21865WAT     H165837   7.925   6.045   6.152
21865WAT     H265838   7.813   6.008   6.038
21866WAT      O65839   3.805   3.753   4.827
21866WAT     H165840   3.746   3.672   4.833
21866WAT     H265841   3.753   3.834   4.853
21867WAT      O65842   2.949   4.959   7.716
21867WAT     H165843   2.975   4.940   7.811
21867WAT     H265844   3.031   4.981   7.664
21868WAT      O65845   1.792   5.481   3.574
21868WAT     H165846   1.861   5.506   3.507
21868WAT     H265847   1.789   5.549   3.647
21869WAT      O65848   8.411   0.700   5.585
21869WAT     H165849   8.325   0.675   5.630
21869WAT     H265850   8.466   0.618   5.570
21870WAT      O65851   8.568   2.822   4.944
21870WAT     H165852   8.626   2.742   4.960
21870WAT     H265853   8.625   2.905   4.943
21871WAT      O65854   6.328   8.728   6.197
21871WAT     H165855   6.295   8.798   6.134
21871WAT     H265856   6.377   8.658   6.146
21872WAT      O65857   2.884   7.324   0.050
21872WAT     H165858   2.928   7.263   0.116
21872WAT     H265859   2.801   7.279   0.014
21873WAT      O65860   9.783   7.107   0.894
21873WAT     H165861   9.804   7.048   0.815
21873WAT     H265862   9.790   7.054   0.978
21874WAT      O65863   4.702   8.192   9.328
21874WAT     H165864   4.621   8.136   9.343
21874WAT     H265865   4.752   8.203   9.414
21875WAT      O65866   4.771   3.493   4.090
21875WAT     H165867   4.767   3.582   4.044
21875WAT     H265868   4.693   3.437   4.061
21876WAT      O65869   1.900   7.410   5.945
21876WAT     H165870   1.969   7.362   6.000
21876WAT     H265871   1.809   7.385   5.977
21877WAT      O65872   8.608   1.338   2.156
21877WAT     H165873   8.612   1.416   2.218
21877WAT     H265874   8.693   1.333   2.104
21878WAT      O65875   4.944   4.254   3.373
21878WAT     H165876   4.868   4.312   3.343
21878WAT     H265877   4.982   4.290   3.458
21879WAT      O65878   8.094   0.597   6.181
21879WAT     H165879   8.191   0.619   6.185
21879WAT     H265880   8.048   0.658   6.116
21880WAT      O65881   8.308   1.404   5.536
21880WAT     H165882   8.370   1.438   5.607
21880WAT     H265883   8.328   1.450   5.450
21881WAT      O65884   1.195   6.462   7.553
21881WAT     H165885   1.107   6.497   7.518
21881WAT     H265886   1.245   6.418   7.478
21882WAT      O65887   4.530   0.330   8.990
21882WAT     H165888   4.551   0.352   8.894
21882WAT     H265889   4.612   0.341   9.045
21883WAT      O65890   8.334   0.911   9.452
21883WAT     H165891   8.426   0.882   9.426
21883WAT     H265892   8.305   0.986   9.393
21884WAT      O65893   4.877   3.124   3.717
21884WAT     H165894   4.844   3.216   3.697
21884WAT     H265895   4.855   3.064   3.640
21885WAT      O65896   5.781   9.407   7.945
21885WAT     H165897   5.865   9.435   7.992
21885WAT     H265898   5.784   9.441   7.850
21886WAT      O65899   6.631   0.800   3.946
21886WAT     H165900   6.545   0.836   3.981
21886WAT     H265901   6.622   0.701   3.930
21887WAT      O65902   0.403   6.798   7.136
21887WAT     H165903   0.416   6.841   7.226
21887WAT     H265904   0.319   6.833   7.095
21888WAT      O65905   1.523   5.470   5.790
21888WAT     H165906   1.573   5.555   5.770
21888WAT     H265907   1.549   5.437   5.881
21889WAT      O65908   4.591   2.465   8.371
21889WAT     H165909   4.608   2.483   8.274
21889WAT     H265910   4.616   2.371   8.393
21890WAT      O65911   1.584   3.945   9.083
21890WAT     H165912   1.490   3.920   9.063
21890WAT     H265913   1.614   4.018   9.021
21891WAT      O65914   6.811   4.688   4.098
21891WAT     H165915   6.796   4.753   4.172
21891WAT     H265916   6.820   4.738   4.011
21892WAT      O65917   3.806   1.982   6.089
21892WAT     H165918   3.827   1.907   6.026
21892WAT     H265919   3.753   2.053   6.042
21893WAT      O65920   9.146   2.273   1.374
21893WAT     H165921   9.123   2.363   1.336
21893WAT     H265922   9.245   2.267   1.388
21894WAT      O65923   2.806   5.839   3.931
21894WAT     H165924   2.851   5.750   3.924
21894WAT     H265925   2.764   5.847   4.021
21895WAT      O65926   7.016   5.708   8.033
21895WAT     H165927   7.104   5.721   7.987
21895WAT     H265928   7.018   5.754   8.122
21896WAT      O65929   2.680   5.287   0.190
21896WAT     H165930   2.734   5.206   0.165
21896WAT     H265931   2.603   5.297   0.126
21897WAT      O65932   8.105   2.344   6.333
21897WAT     H165933   8.121   2.402   6.413
21897WAT     H265934   8.006   2.335   6.318
21898WAT      O65935   8.217   8.364   4.435
21898WAT     H165936   8.123   8.334   4.448
21898WAT     H265937   8.277   8.285   4.425
21899WAT      O65938   1.497   1.277   1.413
21899WAT     H165939   1.576   1.291   1.473
21899WAT     H265940   1.424   1.234   1.465
21900WAT      O65941   5.353   8.682   9.602
21900WAT     H165942   5.263   8.655   9.635
21900WAT     H265943   5.399   8.604   9.560
21901WAT      O65944   8.074   7.839   4.795
21901WAT     H165945   8.086   7.933   4.762
21901WAT     H265946   8.159   7.806   4.834
21902WAT      O65947   5.082   9.586   0.749
21902WAT     H165948   5.131   9.642   0.815
21902WAT     H265949   5.061   9.497   0.790
21903WAT      O65950   7.786   6.407   1.908
21903WAT     H165951   7.791   6.328   1.970
21903WAT     H265952   7.706   6.462   1.932
21904WAT      O65953   5.030   4.749   8.589
21904WAT     H165954   4.933   4.749   8.614
21904WAT     H265955   5.040   4.783   8.495
21905WAT      O65956   1.916   0.111   9.225
21905WAT     H165957   1.905   0.189   9.287
21905WAT     H265958   1.901   0.026   9.276
21906WAT      O65959   0.562   7.853   3.674
21906WAT     H165960   0.470   7.886   3.653
21906WAT     H265961   0.583   7.874   3.770
21907WAT      O65962   3.033   0.785   0.456
21907WAT     H165963   2.948   0.759   0.409
21907WAT     H265964   3.049   0.883   0.442
21908WAT      O65965   1.166   3.323   2.723
21908WAT     H165966   1.152   3.243   2.782
21908WAT     H265967   1.077   3.360   2.696
21909WAT      O65968   9.318   6.039   7.134
21909WAT     H165969   9.372   6.043   7.050
21909WAT     H265970   9.245   5.971   7.124
21910WAT      O65971   4.473   7.952   2.061
21910WAT     H165972   4.417   8.001   1.994
21910WAT     H265973   4.436   7.968   2.153
21911WAT      O65974   7.704   7.502   0.785
21911WAT     H165975   7.633   7.449   0.740
21911WAT     H265976   7.662   7.563   0.853
21912WAT      O65977   6.810   6.067   0.841
21912WAT     H165978   6.791   6.095   0.935
21912WAT     H265979   6.729   6.083   0.785
21913WAT      O65980   8.689   3.901   5.558
21913WAT     H165981   8.780   3.867   5.537
21913WAT     H265982   8.627   3.825   5.577
21914WAT      O65983   1.206   5.998   2.732
21914WAT     H165984   1.277   6.068   2.736
21914WAT     H265985   1.232   5.928   2.666
21915WAT      O65986   1.865   5.626   7.151
21915WAT     H165987   1.871   5.536   7.195
21915WAT     H265988   1.898   5.696   7.214
21916WAT      O65989   1.014   0.745   8.632
21916WAT     H165990   1.049   0.701   8.549
21916WAT     H265991   0.932   0.797   8.611
21917WAT      O65992   7.756   2.239   7.305
21917WAT     H165993   7.708   2.153   7.322
21917WAT     H265994   7.754   2.260   7.207
21918WAT      O65995   0.490   4.753   4.402
21918WAT     H165996   0.549   4.697   4.345
21918WAT     H265997   0.396   4.719   4.397
21919WAT      O65998   9.845   0.793   1.712
21919WAT     H165999   9.759   0.746   1.695
21919WAT     H266000   9.833   0.891   1.702
21920WAT      O66001   9.135   9.416   8.822
21920WAT     H166002   9.122   9.360   8.905
21920WAT     H266003   9.076   9.496   8.827
21921WAT      O66004   8.098   8.741   3.901
21921WAT     H166005   8.086   8.799   3.820
21921WAT     H266006   8.064   8.790   3.982
21922WAT      O66007   0.879   3.829   2.608
21922WAT     H166008   0.838   3.897   2.668
21922WAT     H266009   0.877   3.862   2.513
21923WAT      O66010   7.433   1.650   6.432
21923WAT     H166011   7.468   1.742   6.415
21923WAT     H266012   7.506   1.583   6.419
21924WAT      O66013   5.670   3.501   6.285
21924WAT     H166014   5.752   3.444   6.283
21924WAT     H266015   5.668   3.554   6.369
21925WAT      O66016   5.586   2.984   9.104
21925WAT     H166017   5.500   2.997   9.055
21925WAT     H266018   5.649   2.932   9.048
21926WAT      O66019   7.049   0.439   1.946
21926WAT     H166020   6.978   0.417   1.880
21926WAT     H266021   7.132   0.468   1.897
21927WAT      O66022   5.451   5.183   4.008
21927WAT     H166023   5.437   5.098   4.059
21927WAT     H266024   5.393   5.255   4.047
21928WAT      O66025   4.297   9.713   4.946
21928WAT     H166026   4.271   9.808   4.931
21928WAT     H266027   4.368   9.687   4.881
21929WAT      O66028   3.343   4.924   6.281
21929WAT     H166029   3.372   4.904   6.375
21929WAT     H266030   3.284   5.005   6.281
21930WAT      O66031   8.722   7.895   2.207
21930WAT     H166032   8.626   7.909   2.229
21930WAT     H266033   8.730   7.844   2.121
21931WAT      O66034   1.520   7.839   3.742
21931WAT     H166035   1.474   7.920   3.776
21931WAT     H266036   1.603   7.866   3.694
21932WAT      O66037   0.715   9.183   3.884
21932WAT     H166038   0.633   9.209   3.935
21932WAT     H266039   0.700   9.094   3.841
21933WAT      O66040   8.557   7.060   7.839
21933WAT     H166041   8.548   7.136   7.775
21933WAT     H266042   8.625   7.083   7.909
21934WAT      O66043   3.408   5.297   6.525
21934WAT     H166044   3.332   5.317   6.463
21934WAT     H266045   3.485   5.261   6.472
21935WAT      O66046   1.586   0.157   0.252
21935WAT     H166047   1.564   0.070   0.207
21935WAT     H266048   1.527   0.169   0.332
21936WAT      O66049   4.958   3.817   9.637
21936WAT     H166050   4.994   3.826   9.544
21936WAT     H266051   4.967   3.905   9.685
21937WAT      O66052   5.722   1.025   6.799
21937WAT     H166053   5.753   1.105   6.748
21937WAT     H266054   5.798   0.987   6.851
21938WAT      O66055   7.236   0.897   1.883
21938WAT     H166056   7.141   0.925   1.898
21938WAT     H266057   7.273   0.860   1.969
21939WAT      O66058   2.570   1.822   5.785
21939WAT     H166059   2.610   1.905   5.745
21939WAT     H266060   2.495   1.790   5.728
21940WAT      O66061   6.818   4.764   2.632
21940WAT     H166062   6.877   4.844   2.641
21940WAT     H266063   6.828   4.706   2.713
21941WAT      O66064   6.129   2.379   7.483
21941WAT     H166065   6.052   2.317   7.470
21941WAT     H266066   6.139   2.402   7.580
21942WAT      O66067   7.004   2.870   3.806
21942WAT     H166068   6.943   2.950   3.811
21942WAT     H266069   7.001   2.820   3.893
21943WAT      O66070   1.600   3.335   6.748
21943WAT     H166071   1.578   3.242   6.776
21943WAT     H266072   1.574   3.398   6.821
21944WAT      O66073   5.136   0.361   3.383
21944WAT     H166074   5.103   0.448   3.346
21944WAT     H266075   5.059   0.297   3.391
21945WAT      O66076   4.730   4.284   8.517
21945WAT     H166077   4.650   4.336   8.549
21945WAT     H266078   4.803   4.292   8.585
21946WAT      O66079   9.361   2.789   2.216
21946WAT     H166080   9.403   2.815   2.129
21946WAT     H266081   9.367   2.865   2.280
21947WAT      O66082   9.207   4.633   2.359
21947WAT     H166083   9.216   4.716   2.304
21947WAT     H266084   9.265   4.561   2.320
21948WAT      O66085   3.139   0.242   2.730
21948WAT     H166086   3.135   0.320   2.792
21948WAT     H266087   3.163   0.273   2.638
21949WAT      O66088   2.679   4.262   1.957
21949WAT     H166089   2.620   4.181   1.953
21949WAT     H266090   2.758   4.249   1.896
21950WAT      O66091   2.725   0.558   4.685
21950WAT     H166092   2.674   0.473   4.699
21950WAT     H266093   2.673   0.635   4.721
21951WAT      O66094   0.987   1.715   0.196
21951WAT     H166095   0.950   1.807   0.183
21951WAT     H266096   1.030   1.709   0.286
21952WAT      O66097   6.989   6.655   1.558
21952WAT     H166098   6.970   6.578   1.496
21952WAT     H266099   6.933   6.647   1.640
21953WAT      O66100   4.259   5.000   6.167
21953WAT     H166101   4.286   4.933   6.098
21953WAT     H266102   4.252   4.954   6.256
21954WAT      O66103   5.534   8.124   8.735
21954WAT     H166104   5.551   8.043   8.791
21954WAT     H266105   5.478   8.099   8.656
21955WAT      O66106   7.050   9.263   7.479
21955WAT     H166107   7.007   9.186   7.433
21955WAT     H266108   7.146   9.270   7.450
21956WAT      O66109   8.893   3.762   2.322
21956WAT     H166110   8.914   3.675   2.369
21956WAT     H266111   8.847   3.743   2.235
21957WAT      O66112   2.796   6.679   7.978
21957WAT     H166113   2.861   6.690   7.903
21957WAT     H266114   2.837   6.625   8.051
21958WAT      O66115   3.746   3.276   3.004
21958WAT     H166116   3.753   3.186   2.962
21958WAT     H266117   3.810   3.339   2.959
21959WAT      O66118   0.350   2.124   4.249
21959WAT     H166119   0.444   2.115   4.216
21959WAT     H266120   0.337   2.065   4.328
21960WAT      O66121   8.692   5.402   3.354
21960WAT     H166122   8.683   5.359   3.264
21960WAT     H266123   8.751   5.346   3.411
21961WAT      O66124   3.756   4.303   1.030
21961WAT     H166125   3.809   4.306   0.946
21961WAT     H266126   3.806   4.250   1.099
21962WAT      O66127   8.462   8.504   6.555
21962WAT     H166128   8.437   8.518   6.459
21962WAT     H266129   8.390   8.452   6.600
21963WAT      O66130   4.317   7.973   9.155
21963WAT     H166131   4.288   8.068   9.146
21963WAT     H266132   4.333   7.934   9.065
21964WAT      O66133   4.214   6.448   8.213
21964WAT     H166134   4.181   6.537   8.181
21964WAT     H266135   4.225   6.450   8.312
21965WAT      O66136   9.339   8.540   0.725
21965WAT     H166137   9.259   8.576   0.677
21965WAT     H266138   9.369   8.605   0.795
21966WAT      O66139   0.501   3.527   7.262
21966WAT     H166140   0.502   3.606   7.324
21966WAT     H266141   0.542   3.449   7.307
21967WAT      O66142   9.745   0.850   0.150
21967WAT     H166143   9.725   0.881   0.243
21967WAT     H266144   9.809   0.774   0.153
21968WAT      O66145   5.495   6.381   9.034
21968WAT     H166146   5.482   6.283   9.046
21968WAT     H266147   5.556   6.415   9.106
21969WAT      O66148   8.470   9.384   6.305
21969WAT     H166149   8.494   9.320   6.232
21969WAT     H266150   8.408   9.340   6.370
21970WAT      O66151   6.727   0.285   0.547
21970WAT     H166152   6.654   0.331   0.496
21970WAT     H266153   6.807   0.345   0.552
21971WAT      O66154   7.204   9.769   5.000
21971WAT     H166155   7.133   9.737   4.938
21971WAT     H266156   7.176   9.752   5.095
21972WAT      O66157   1.394   0.440   1.137
21972WAT     H166158   1.372   0.343   1.140
21972WAT     H266159   1.461   0.462   1.208
21973WAT      O66160   0.942   1.569   3.407
21973WAT     H166161   0.886   1.652   3.410
21973WAT     H266162   1.015   1.580   3.341
21974WAT      O66163   4.889   3.744   8.537
21974WAT     H166164   4.790   3.757   8.546
21974WAT     H266165   4.930   3.825   8.496
21975WAT      O66166   5.446   1.658   1.085
21975WAT     H166167   5.482   1.585   1.143
21975WAT     H266168   5.500   1.741   1.099
21976WAT      O66169   1.997   2.294   5.046
21976WAT     H166170   2.023   2.201   5.017
21976WAT     H266171   1.898   2.297   5.061
21977WAT      O66172   7.697   6.062   8.793
21977WAT     H166173   7.797   6.066   8.786
21977WAT     H266174   7.669   6.087   8.886
21978WAT      O66175   7.522   7.074   2.639
21978WAT     H166176   7.501   7.050   2.733
21978WAT     H266177   7.436   7.083   2.587
21979WAT      O66178   1.410   5.735   5.479
21979WAT     H166179   1.347   5.658   5.466
21979WAT     H266180   1.467   5.745   5.398
21980WAT      O66181   7.583   5.570   8.517
21980WAT     H166182   7.607   5.626   8.437
21980WAT     H266183   7.502   5.516   8.495
21981WAT      O66184   3.815   1.049   1.555
21981WAT     H166185   3.868   1.094   1.627
21981WAT     H266186   3.741   0.996   1.597
21982WAT      O66187   9.164   0.936   6.367
21982WAT     H166188   9.159   0.837   6.354
21982WAT     H266189   9.246   0.959   6.419
21983WAT      O66190   8.634   3.633   3.368
21983WAT     H166191   8.568   3.624   3.293
21983WAT     H266192   8.696   3.555   3.367
21984WAT      O66193   0.656   2.671   2.736
21984WAT     H166194   0.660   2.573   2.715
21984WAT     H266195   0.614   2.684   2.826
21985WAT      O66196   8.644   1.998   7.240
21985WAT     H166197   8.559   2.048   7.256
21985WAT     H266198   8.722   2.055   7.265
21986WAT      O66199   4.892   7.076   1.906
21986WAT     H166200   4.830   7.154   1.920
21986WAT     H266201   4.933   7.050   1.993
21987WAT      O66202   0.965   1.098   8.450
21987WAT     H166203   0.876   1.074   8.489
21987WAT     H266204   0.966   1.196   8.428
21988WAT      O66205   5.367   8.020   8.061
21988WAT     H166206   5.432   7.991   7.992
21988WAT     H266207   5.414   8.071   8.133
21989WAT      O66208   7.456   5.113   1.216
21989WAT     H166209   7.501   5.118   1.305
21989WAT     H266210   7.416   5.022   1.204
21990WAT      O66211   1.358   1.320   0.544
21990WAT     H166212   1.453   1.341   0.520
21990WAT     H266213   1.356   1.275   0.633
21991WAT      O66214   2.486   6.990   6.485
21991WAT     H166215   2.448   6.960   6.398
21991WAT     H266216   2.584   7.006   6.474
21992WAT      O66217   0.228   7.614   0.578
21992WAT     H166218   0.247   7.697   0.629
21992WAT     H266219   0.139   7.577   0.605
21993WAT      O66220   0.697   4.873   7.565
21993WAT     H166221   0.687   4.773   7.564
21993WAT     H266222   0.683   4.906   7.658
21994WAT      O66223   4.093   3.260   1.848
21994WAT     H166224   4.167   3.318   1.817
21994WAT     H266225   4.126   3.199   1.921
21995WAT      O66226   9.070   6.860   1.958
21995WAT     H166227   9.039   6.858   1.863
21995WAT     H266228   9.040   6.945   2.002
21996WAT      O66229   3.127   7.661   6.835
21996WAT     H166230   3.135   7.632   6.739
21996WAT     H266231   3.218   7.676   6.873
21997WAT      O66232   5.044   5.017   2.824
21997WAT     H166233   5.129   5.030   2.874
21997WAT     H266234   5.048   4.931   2.773
21998WAT      O66235   3.821   3.796   2.144
21998WAT     H166236   3.888   3.744   2.090
21998WAT     H266237   3.857   3.808   2.237
21999WAT      O66238   7.874   0.369   6.241
21999WAT     H166239   7.916   0.459   6.252
21999WAT     H266240   7.776   0.379   6.226
22000WAT      O66241   6.252   3.777   9.047
22000WAT     H166242   6.307   3.780   9.130
22000WAT     H266243   6.178   3.845   9.053
22001WAT      O66244   1.328   4.774   7.967
22001WAT     H166245   1.352   4.862   7.927
22001WAT     H266246   1.228   4.768   7.976
22002WAT      O66247   5.817   4.721   4.510
22002WAT     H166248   5.872   4.702   4.429
22002WAT     H266249   5.870   4.778   4.573
22003WAT      O66250   6.382   8.797   2.905
22003WAT     H166251   6.301   8.741   2.919
22003WAT     H266252   6.458   8.740   2.876
22004WAT      O66253   1.534   7.550   1.300
22004WAT     H166254   1.553   7.486   1.226
22004WAT     H266255   1.524   7.643   1.263
22005WAT      O66256   8.208   0.082   8.551
22005WAT     H166257   8.297   0.067   8.596
22005WAT     H266258   8.198   0.017   8.476
22006WAT      O66259   1.528   3.531   8.330
22006WAT     H166260   1.516   3.609   8.269
22006WAT     H266261   1.611   3.543   8.384
22007WAT      O66262   1.657   1.354   2.001
22007WAT     H166263   1.694   1.439   1.962
22007WAT     H266264   1.625   1.295   1.927
22008WAT      O66265   1.869   1.370   7.889
22008WAT     H166266   1.911   1.460   7.894
22008WAT     H266267   1.804   1.367   7.812
22009WAT      O66268   1.282   0.852   6.285
22009WAT     H166269   1.361   0.900   6.324
22009WAT     H266270   1.285   0.756   6.312
22010WAT      O66271   9.361   9.047   1.343
22010WAT     H166272   9.309   9.125   1.308
22010WAT     H266273   9.455   9.052   1.310
22011WAT      O66274   3.090   2.347   8.966
22011WAT     H166275   3.034   2.275   8.924
22011WAT     H266276   3.110   2.323   9.061
22012WAT      O66277   2.903   6.456   8.096
22012WAT     H166278   2.818   6.410   8.071
22012WAT     H266279   2.974   6.433   8.029
22013WAT      O66280   9.236   4.627   0.848
22013WAT     H166281   9.270   4.624   0.942
22013WAT     H266282   9.295   4.687   0.794
22014WAT      O66283   8.231   4.169   7.434
22014WAT     H166284   8.134   4.180   7.455
22014WAT     H266285   8.275   4.114   7.506
22015WAT      O66286   5.144   9.362   5.445
22015WAT     H166287   5.091   9.284   5.477
22015WAT     H266288   5.195   9.337   5.363
22016WAT      O66289   2.934   0.660   4.503
22016WAT     H166290   2.892   0.665   4.593
22016WAT     H266291   2.892   0.585   4.451
22017WAT      O66292   4.211   8.719   2.919
22017WAT     H166293   4.190   8.673   3.005
22017WAT     H266294   4.128   8.758   2.880
22018WAT      O66295   5.489   6.911   9.566
22018WAT     H166296   5.442   6.985   9.518
22018WAT     H266297   5.536   6.853   9.500
22019WAT      O66298   2.741   8.231   2.495
22019WAT     H166299   2.785   8.269   2.415
22019WAT     H266300   2.800   8.243   2.575
22020WAT      O66301   9.241   5.781   2.111
22020WAT     H166302   9.247   5.733   2.023
22020WAT     H266303   9.284   5.726   2.182
22021WAT      O66304   8.064   0.261   0.768
22021WAT     H166305   8.140   0.224   0.821
22021WAT     H266306   8.040   0.197   0.694
22022WAT      O66307   0.163   2.899   1.761
22022WAT     H166308   0.251   2.875   1.801
22022WAT     H266309   0.177   2.966   1.688
22023WAT      O66310   5.527   6.147   0.921
22023WAT     H166311   5.430   6.157   0.943
22023WAT     H266312   5.554   6.051   0.931
22024WAT      O66313   4.559   2.718   9.875
22024WAT     H166314   4.595   2.702   9.783
22024WAT     H266315   4.516   2.808   9.879
22025WAT      O66316   6.301   6.216   0.117
22025WAT     H166317   6.335   6.300   0.075
22025WAT     H266318   6.312   6.222   0.216
22026WAT      O66319   0.652   7.741   7.860
22026WAT     H166320   0.618   7.651   7.887
22026WAT     H266321   0.684   7.790   7.942
22027WAT      O66322   7.968   0.016   9.867
22027WAT     H166323   7.891   0.002   9.930
22027WAT     H266324   7.935   0.058   9.783
22028WAT      O66325   0.480   4.850   2.953
22028WAT     H166326   0.528   4.762   2.952
22028WAT     H266327   0.414   4.851   3.028
22029WAT      O66328   7.890   2.539   4.389
22029WAT     H166329   7.951   2.585   4.452
22029WAT     H266330   7.937   2.524   4.302
22030WAT      O66331   6.966   7.519   2.094
22030WAT     H166332   6.929   7.453   2.160
22030WAT     H266333   7.038   7.573   2.138
22031WAT      O66334   1.851   5.951   1.303
22031WAT     H166335   1.796   5.878   1.344
22031WAT     H266336   1.845   6.032   1.361
22032WAT      O66337   4.117   8.198   6.352
22032WAT     H166338   4.129   8.183   6.451
22032WAT     H266339   4.079   8.289   6.337
22033WAT      O66340   0.984   6.466   8.877
22033WAT     H166341   1.006   6.539   8.813
22033WAT     H266342   0.920   6.402   8.835
22034WAT      O66343   1.264   8.657   8.441
22034WAT     H166344   1.344   8.597   8.438
22034WAT     H266345   1.181   8.600   8.446
22035WAT      O66346   8.784   8.676   0.056
22035WAT     H166347   8.712   8.719   0.000
22035WAT     H266348   8.766   8.694   0.153
22036WAT      O66349   5.360   6.260   9.336
22036WAT     H166350   5.270   6.220   9.324
22036WAT     H266351   5.424   6.218   9.272
22037WAT      O66352   9.106   9.734   5.470
22037WAT     H166353   9.058   9.651   5.496
22037WAT     H266354   9.040   9.805   5.446
22038WAT      O66355   4.288   7.943   2.268
22038WAT     H166356   4.295   8.027   2.323
22038WAT     H266357   4.240   7.873   2.321
22039WAT      O66358   9.609   9.350   9.492
22039WAT     H166359   9.575   9.330   9.400
22039WAT     H266360   9.605   9.449   9.507
22040WAT      O66361   2.686   2.227   8.970
22040WAT     H166362   2.770   2.189   8.929
22040WAT     H266363   2.632   2.272   8.899
22041WAT      O66364   3.830   5.681   1.107
22041WAT     H166365   3.897   5.611   1.084
22041WAT     H266366   3.862   5.735   1.184
22042WAT      O66367   4.517   9.503   5.349
22042WAT     H166368   4.589   9.563   5.385
22042WAT     H266369   4.472   9.456   5.425
22043WAT      O66370   3.081   4.417   5.316
22043WAT     H166371   3.038   4.336   5.276
22043WAT     H266372   3.026   4.498   5.295
22044WAT      O66373   4.827   5.886   9.138
22044WAT     H166374   4.780   5.798   9.133
22044WAT     H266375   4.919   5.877   9.099
22045WAT      O66376   4.598   3.849   2.545
22045WAT     H166377   4.675   3.894   2.590
22045WAT     H266378   4.587   3.757   2.582
22046WAT      O66379   2.075   0.436   2.555
22046WAT     H166380   2.132   0.496   2.610
22046WAT     H266381   2.115   0.344   2.554
22047WAT      O66382   5.416   6.285   4.995
22047WAT     H166383   5.348   6.298   5.068
22047WAT     H266384   5.402   6.196   4.952
22048WAT      O66385   4.093   8.847   9.589
22048WAT     H166386   4.074   8.896   9.674
22048WAT     H266387   4.182   8.875   9.553
22049WAT      O66388   2.633   2.573   5.218
22049WAT     H166389   2.558   2.627   5.256
22049WAT     H266390   2.628   2.575   5.119
22050WAT      O66391   0.812   6.918   4.466
22050WAT     H166392   0.727   6.869   4.487
22050WAT     H266393   0.791   6.998   4.409
22051WAT      O66394   3.132   8.559   4.326
22051WAT     H166395   3.156   8.476   4.376
22051WAT     H266396   3.213   8.593   4.277
22052WAT      O66397   5.147   4.725   4.529
22052WAT     H166398   5.099   4.771   4.604
22052WAT     H266399   5.129   4.774   4.444
22053WAT      O66400   4.157   9.670   7.187
22053WAT     H166401   4.166   9.645   7.283
22053WAT     H266402   4.130   9.590   7.134
22054WAT      O66403   4.411   9.358   5.103
22054WAT     H166404   4.316   9.341   5.128
22054WAT     H266405   4.460   9.398   5.180
22055WAT      O66406   6.670   2.288   3.328
22055WAT     H166407   6.614   2.345   3.388
22055WAT     H266408   6.703   2.343   3.251
22056WAT      O66409   7.132   8.976   4.907
22056WAT     H166410   7.082   8.891   4.922
22056WAT     H266411   7.102   9.045   4.974
22057WAT      O66412   5.443   1.022   2.398
22057WAT     H166413   5.364   1.000   2.340
22057WAT     H266414   5.495   1.096   2.356
22058WAT      O66415   9.850   1.029   6.881
22058WAT     H166416   9.846   1.120   6.921
22058WAT     H266417   9.815   0.962   6.947
22059WAT      O66418   4.522   5.727   1.563
22059WAT     H166419   4.531   5.628   1.556
22059WAT     H266420   4.587   5.771   1.500
22060WAT      O66421   4.163   9.215   9.276
22060WAT     H166422   4.068   9.185   9.283
22060WAT     H266423   4.212   9.157   9.212
22061WAT      O66424   1.679   9.245   2.112
22061WAT     H166425   1.642   9.280   2.198
22061WAT     H266426   1.604   9.224   2.049
22062WAT      O66427   6.131   9.141   2.709
22062WAT     H166428   6.100   9.229   2.746
22062WAT     H266429   6.112   9.138   2.611
22063WAT      O66430   6.067   6.071   9.447
22063WAT     H166431   5.984   6.126   9.454
22063WAT     H266432   6.126   6.090   9.525
22064WAT      O66433   1.553   5.543   8.090
22064WAT     H166434   1.619   5.468   8.090
22064WAT     H266435   1.602   5.630   8.103
22065WAT      O66436   0.317   9.727   9.583
22065WAT     H166437   0.323   9.634   9.621
22065WAT     H266438   0.384   9.786   9.628
22066WAT      O66439   9.765   3.500   6.771
22066WAT     H166440   9.824   3.419   6.770
22066WAT     H266441   9.691   3.488   6.704
22067WAT      O66442   8.847   5.969   2.232
22067WAT     H166443   8.835   5.984   2.330
22067WAT     H266444   8.878   5.875   2.216
22068WAT      O66445   7.891   6.853   9.070
22068WAT     H166446   7.855   6.815   8.985
22068WAT     H266447   7.827   6.833   9.144
22069WAT      O66448   4.551   1.074   0.056
22069WAT     H166449   4.621   1.097   0.123
22069WAT     H266450   4.461   1.097   0.093
22070WAT      O66451   0.714   8.629   2.823
22070WAT     H166452   0.810   8.648   2.843
22070WAT     H266453   0.676   8.570   2.895
22071WAT      O66454   9.263   4.459   1.407
22071WAT     H166455   9.298   4.414   1.489
22071WAT     H266456   9.334   4.458   1.337
22072WAT      O66457   0.732   8.879   4.037
22072WAT     H166458   0.735   8.791   3.989
22072WAT     H266459   0.823   8.900   4.073
22073WAT      O66460   4.970   7.540   5.088
22073WAT     H166461   4.875   7.556   5.115
22073WAT     H266462   4.992   7.443   5.101
22074WAT      O66463   0.584   5.010   0.272
22074WAT     H166464   0.559   4.924   0.317
22074WAT     H266465   0.511   5.077   0.283
22075WAT      O66466   0.573   3.391   9.849
22075WAT     H166467   0.528   3.452   9.914
22075WAT     H266468   0.567   3.297   9.883
22076WAT      O66469   8.841   2.456   2.627
22076WAT     H166470   8.934   2.433   2.656
22076WAT     H266471   8.831   2.438   2.530
22077WAT      O66472   7.498   0.431   8.740
22077WAT     H166473   7.433   0.448   8.667
22077WAT     H266474   7.571   0.500   8.737
22078WAT      O66475   0.459   8.419   4.729
22078WAT     H166476   0.369   8.427   4.684
22078WAT     H266477   0.488   8.510   4.759
22079WAT      O66478   0.782   3.096   2.547
22079WAT     H166479   0.800   3.142   2.461
22079WAT     H266480   0.869   3.076   2.593
22080WAT      O66481   3.248   6.617   3.881
22080WAT     H166482   3.347   6.605   3.891
22080WAT     H266483   3.223   6.710   3.908
22081WAT      O66484   7.696   6.783   4.305
22081WAT     H166485   7.727   6.688   4.300
22081WAT     H266486   7.612   6.793   4.253
22082WAT      O66487   2.942   4.889   1.442
22082WAT     H166488   2.938   4.920   1.537
22082WAT     H266489   2.880   4.811   1.430
22083WAT      O66490   8.917   9.559   2.069
22083WAT     H166491   8.905   9.476   2.125
22083WAT     H266492   8.984   9.619   2.112
22084WAT      O66493   5.161   3.607   9.612
22084WAT     H166494   5.143   3.552   9.694
22084WAT     H266495   5.084   3.668   9.595
22085WAT      O66496   5.366   0.391   0.504
22085WAT     H166497   5.461   0.419   0.518
22085WAT     H266498   5.305   0.455   0.551
22086WAT      O66499   6.723   8.880   2.963
22086WAT     H166500   6.770   8.947   3.020
22086WAT     H266501   6.676   8.813   3.022
22087WAT      O66502   6.360   3.992   3.810
22087WAT     H166503   6.299   3.983   3.731
22087WAT     H266504   6.346   4.081   3.853
22088WAT      O66505   5.831   7.054   4.897
22088WAT     H166506   5.785   7.071   4.810
22088WAT     H266507   5.811   6.961   4.928
22089WAT      O66508   4.171   0.959   4.706
22089WAT     H166509   4.215   1.036   4.753
22089WAT     H266510   4.104   0.994   4.640
22090WAT      O66511   7.029   3.439   8.362
22090WAT     H166512   6.941   3.483   8.350
22090WAT     H266513   7.017   3.340   8.365
22091WAT      O66514   5.368   2.979   6.908
22091WAT     H166515   5.369   3.035   6.991
22091WAT     H266516   5.461   2.953   6.883
22092WAT      O66517   0.956   1.421   1.979
22092WAT     H166518   1.045   1.443   2.018
22092WAT     H266519   0.965   1.407   1.880
22093WAT      O66520   3.515   5.651   7.359
22093WAT     H166521   3.600   5.699   7.338
22093WAT     H266522   3.529   5.553   7.347
22094WAT      O66523   9.612   8.979   7.466
22094WAT     H166524   9.620   9.025   7.555
22094WAT     H266525   9.702   8.975   7.422
22095WAT      O66526   6.778   2.625   0.400
22095WAT     H166527   6.715   2.605   0.325
22095WAT     H266528   6.861   2.668   0.363
22096WAT      O66529   5.727   3.866   6.575
22096WAT     H166530   5.724   3.966   6.571
22096WAT     H266531   5.653   3.833   6.634
22097WAT      O66532   1.267   9.190   6.860
22097WAT     H166533   1.263   9.254   6.937
22097WAT     H266534   1.278   9.097   6.895
22098WAT      O66535   7.262   1.760   1.820
22098WAT     H166536   7.249   1.705   1.738
22098WAT     H266537   7.205   1.724   1.894
22099WAT      O66538   7.644   5.973   7.246
22099WAT     H166539   7.607   5.969   7.339
22099WAT     H266540   7.575   5.939   7.181
22100WAT      O66541   1.401   8.354   3.946
22100WAT     H166542   1.447   8.386   3.863
22100WAT     H266543   1.435   8.406   4.024
22101WAT      O66544   1.984   8.159   2.803
22101WAT     H166545   2.000   8.078   2.859
22101WAT     H266546   2.072   8.196   2.773
22102WAT      O66547   4.505   4.635   7.175
22102WAT     H166548   4.595   4.678   7.169
22102WAT     H266549   4.444   4.693   7.229
22103WAT      O66550   5.714   8.453   4.527
22103WAT     H166551   5.748   8.466   4.434
22103WAT     H266552   5.791   8.431   4.588
22104WAT      O66553   7.650   6.124   9.104
22104WAT     H166554   7.727   6.063   9.124
22104WAT     H266555   7.647   6.198   9.172
22105WAT      O66556   3.398   1.569   1.183
22105WAT     H166557   3.352   1.501   1.126
22105WAT     H266558   3.438   1.640   1.124
22106WAT      O66559   2.087   8.534   5.428
22106WAT     H166560   1.994   8.508   5.401
22106WAT     H266561   2.150   8.518   5.352
22107WAT      O66562   8.522   7.384   9.299
22107WAT     H166563   8.481   7.306   9.347
22107WAT     H266564   8.485   7.390   9.207
22108WAT      O66565   9.605   7.845   3.017
22108WAT     H166566   9.524   7.837   3.074
22108WAT     H266567   9.647   7.935   3.031
22109WAT      O66568   6.316   3.058   6.096
22109WAT     H166569   6.340   3.142   6.047
22109WAT     H266570   6.225   3.028   6.068
22110WAT      O66571   8.231   2.750   6.803
22110WAT     H166572   8.132   2.751   6.793
22110WAT     H266573   8.259   2.812   6.877
22111WAT      O66574   7.040   3.049   1.705
22111WAT     H166575   6.958   3.005   1.742
22111WAT     H266576   7.016   3.094   1.618
22112WAT      O66577   6.830   3.109   7.145
22112WAT     H166578   6.872   3.097   7.056
22112WAT     H266579   6.831   3.206   7.169
22113WAT      O66580   4.862   0.955   1.864
22113WAT     H166581   4.962   0.950   1.864
22113WAT     H266582   4.824   0.882   1.808
22114WAT      O66583   1.020   1.495   7.055
22114WAT     H166584   1.055   1.458   7.141
22114WAT     H266585   0.986   1.588   7.069
22115WAT      O66586   3.748   2.573   0.019
22115WAT     H166587   3.806   2.541  -0.056
22115WAT     H266588   3.670   2.623  -0.019
22116WAT      O66589   8.783   4.218   2.949
22116WAT     H166590   8.739   4.305   2.928
22116WAT     H266591   8.813   4.174   2.865
22117WAT      O66592   8.107   2.401   9.662
22117WAT     H166593   8.126   2.389   9.565
22117WAT     H266594   8.177   2.354   9.716
22118WAT      O66595   4.539   5.769   9.327
22118WAT     H166596   4.596   5.768   9.409
22118WAT     H266597   4.561   5.689   9.271
22119WAT      O66598   7.281   8.701   8.809
22119WAT     H166599   7.265   8.739   8.900
22119WAT     H266600   7.371   8.728   8.776
22120WAT      O66601   3.267   1.989   1.179
22120WAT     H166602   3.251   1.902   1.226
22120WAT     H266603   3.281   1.972   1.082
22121WAT      O66604   1.389   7.941   5.033
22121WAT     H166605   1.388   7.858   5.088
22121WAT     H266606   1.299   7.954   4.992
22122WAT      O66607   9.636   7.879   1.563
22122WAT     H166608   9.630   7.970   1.604
22122WAT     H266609   9.637   7.810   1.635
22123WAT      O66610   8.379   1.434   5.250
22123WAT     H166611   8.451   1.503   5.250
22123WAT     H266612   8.401   1.363   5.183
22124WAT      O66613   5.348   3.775   3.515
22124WAT     H166614   5.427   3.713   3.508
22124WAT     H266615   5.268   3.731   3.474
22125WAT      O66616   7.491   2.304   7.151
22125WAT     H166617   7.574   2.299   7.096
22125WAT     H266618   7.475   2.399   7.178
22126WAT      O66619   6.192   3.988   9.700
22126WAT     H166620   6.148   3.946   9.620
22126WAT     H266621   6.240   4.071   9.671
22127WAT      O66622   0.725   8.223   0.943
22127WAT     H166623   0.652   8.157   0.960
22127WAT     H266624   0.697   8.286   0.871
22128WAT      O66625   7.989   2.542   0.094
22128WAT     H166626   7.955   2.448   0.090
22128WAT     H266627   7.926   2.603   0.046
22129WAT      O66628   6.948   5.033   5.729
22129WAT     H166629   6.914   4.995   5.643
22129WAT     H266630   6.873   5.080   5.777
22130WAT      O66631   1.199   9.489   0.751
22130WAT     H166632   1.229   9.583   0.733
22130WAT     H266633   1.247   9.454   0.831
22131WAT      O66634   4.056   7.729   6.853
22131WAT     H166635   4.080   7.751   6.758
22131WAT     H266636   3.997   7.801   6.890
22132WAT      O66637   3.492   5.026   4.722
22132WAT     H166638   3.396   5.040   4.748
22132WAT     H266639   3.498   4.951   4.657
22133WAT      O66640   8.310   1.867   0.025
22133WAT     H166641   8.217   1.897   0.046
22133WAT     H266642   8.334   1.896  -0.068
22134WAT      O66643   8.719   2.848   7.940
22134WAT     H166644   8.803   2.876   7.893
22134WAT     H266645   8.740   2.821   8.033
22135WAT      O66646   2.216   0.458   8.191
22135WAT     H166647   2.308   0.494   8.181
22135WAT     H266648   2.170   0.503   8.267
22136WAT      O66649   9.057   6.177   7.155
22136WAT     H166650   9.021   6.083   7.163
22136WAT     H266651   9.157   6.174   7.148
22137WAT      O66652   0.177   0.204   6.978
22137WAT     H166653   0.261   0.246   6.945
22137WAT     H266654   0.108   0.275   6.993
22138WAT      O66655   1.474   8.764   6.566
22138WAT     H166656   1.536   8.694   6.602
22138WAT     H266657   1.474   8.843   6.628
22139WAT      O66658   1.037   6.898   8.975
22139WAT     H166659   1.051   6.873   9.071
22139WAT     H266660   0.941   6.884   8.951
22140WAT      O66661   0.224   0.331   9.052
22140WAT     H166662   0.211   0.275   8.970
22140WAT     H266663   0.184   0.283   9.130
22141WAT      O66664   7.573   4.808   5.220
22141WAT     H166665   7.549   4.729   5.277
22141WAT     H266666   7.672   4.806   5.202
22142WAT      O66667   9.593   5.800   5.343
22142WAT     H166668   9.615   5.714   5.296
22142WAT     H266669   9.563   5.868   5.276
22143WAT      O66670   3.934   6.997   2.620
22143WAT     H166671   3.990   7.079   2.631
22143WAT     H266672   3.891   6.975   2.708
22144WAT      O66673   6.782   1.334   7.764
22144WAT     H166674   6.834   1.249   7.761
22144WAT     H266675   6.757   1.354   7.859
22145WAT      O66676   4.651   4.513   6.822
22145WAT     H166677   4.572   4.482   6.875
22145WAT     H266678   4.630   4.506   6.724
22146WAT      O66679   5.595   2.410   4.693
22146WAT     H166680   5.552   2.497   4.718
22146WAT     H266681   5.591   2.348   4.771
22147WAT      O66682   2.304   5.323   1.893
22147WAT     H166683   2.206   5.337   1.907
22147WAT     H266684   2.352   5.342   1.979
22148WAT      O66685   5.613   7.226   1.697
22148WAT     H166686   5.567   7.244   1.610
22148WAT     H266687   5.588   7.135   1.730
22149WAT      O66688   9.655   3.143   0.035
22149WAT     H166689   9.665   3.145  -0.065
22149WAT     H266690   9.702   3.063   0.072
22150WAT      O66691   2.679   2.391   0.081
22150WAT     H166692   2.627   2.435   0.008
22150WAT     H266693   2.735   2.317   0.042
22151WAT      O66694   7.837   2.450   5.596
22151WAT     H166695   7.797   2.523   5.540
22151WAT     H266696   7.770   2.419   5.663
22152WAT      O66697   2.220   0.954   6.928
22152WAT     H166698   2.163   1.035   6.920
22152WAT     H266699   2.182   0.894   6.999
22153WAT      O66700   8.116   5.010   7.509
22153WAT     H166701   8.126   5.053   7.419
22153WAT     H266702   8.063   4.926   7.500
22154WAT      O66703   7.759   5.467   5.290
22154WAT     H166704   7.741   5.410   5.370
22154WAT     H266705   7.834   5.429   5.238
22155WAT      O66706   9.477   0.048   1.670
22155WAT     H166707   9.457   0.118   1.601
22155WAT     H266708   9.429   0.070   1.755
22156WAT      O66709   1.892   3.137   7.107
22156WAT     H166710   1.885   3.146   7.008
22156WAT     H266711   1.978   3.178   7.138
22157WAT      O66712   1.773   2.909   4.859
22157WAT     H166713   1.820   2.990   4.823
22157WAT     H266714   1.676   2.928   4.868
22158WAT      O66715   0.103   0.770   1.269
22158WAT     H166716   0.182   0.756   1.209
22158WAT     H266717   0.067   0.863   1.256
22159WAT      O66718   6.564   8.542   9.512
22159WAT     H166719   6.612   8.536   9.424
22159WAT     H266720   6.522   8.454   9.533
22160WAT      O66721   5.804   6.409   2.847
22160WAT     H166722   5.773   6.390   2.940
22160WAT     H266723   5.845   6.327   2.808
22161WAT      O66724   1.247   5.539   8.575
22161WAT     H166725   1.322   5.531   8.641
22161WAT     H266726   1.284   5.535   8.482
22162WAT      O66727   1.575   5.772   3.276
22162WAT     H166728   1.648   5.718   3.319
22162WAT     H266729   1.615   5.829   3.204
22163WAT      O66730   1.605   1.372   8.331
22163WAT     H166731   1.584   1.368   8.233
22163WAT     H266732   1.684   1.431   8.346
22164WAT      O66733   6.214   2.247   5.977
22164WAT     H166734   6.132   2.233   6.034
22164WAT     H266735   6.191   2.231   5.881
22165WAT      O66736   7.797   9.044   6.052
22165WAT     H166737   7.890   9.055   6.085
22165WAT     H266738   7.792   9.070   5.956
22166WAT      O66739   5.827   4.199   4.124
22166WAT     H166740   5.901   4.264   4.141
22166WAT     H266741   5.835   4.122   4.187
22167WAT      O66742   8.487   3.939   8.721
22167WAT     H166743   8.490   3.845   8.755
22167WAT     H266744   8.487   3.938   8.621
22168WAT      O66745   8.114   9.467   6.541
22168WAT     H166746   8.200   9.512   6.565
22168WAT     H266747   8.110   9.377   6.585
22169WAT      O66748   7.135   6.520   6.727
22169WAT     H166749   7.126   6.429   6.767
22169WAT     H266750   7.224   6.528   6.683
22170WAT      O66751   6.590   1.439   5.496
22170WAT     H166752   6.577   1.499   5.575
22170WAT     H266753   6.506   1.387   5.480
22171WAT      O66754   9.845   6.982   5.621
22171WAT     H166755   9.900   7.064   5.608
22171WAT     H266756   9.787   6.967   5.541
22172WAT      O66757   4.260   7.615   7.964
22172WAT     H166758   4.330   7.570   8.019
22172WAT     H266759   4.302   7.652   7.881
22173WAT      O66760   5.955   8.586   9.792
22173WAT     H166761   5.874   8.633   9.756
22173WAT     H266762   6.006   8.545   9.716
22174WAT      O66763   9.257   7.863   5.760
22174WAT     H166764   9.348   7.823   5.751
22174WAT     H266765   9.222   7.844   5.852
22175WAT      O66766   0.899   2.479   5.850
22175WAT     H166767   0.814   2.506   5.805
22175WAT     H266768   0.878   2.411   5.920
22176WAT      O66769   7.213   9.698   9.384
22176WAT     H166770   7.118   9.729   9.372
22176WAT     H266771   7.275   9.776   9.378
22177WAT      O66772   5.511   7.888   4.351
22177WAT     H166773   5.510   7.928   4.259
22177WAT     H266774   5.566   7.945   4.411
22178WAT      O66775   8.973   1.071   5.692
22178WAT     H166776   8.906   1.123   5.744
22178WAT     H266777   9.024   1.132   5.632
22179WAT      O66778   5.412   1.733   3.011
22179WAT     H166779   5.391   1.695   3.100
22179WAT     H266780   5.462   1.819   3.022
22180WAT      O66781   1.881   6.447   7.660
22180WAT     H166782   1.960   6.485   7.612
22180WAT     H266783   1.905   6.357   7.696
22181WAT      O66784   0.565   0.328   5.704
22181WAT     H166785   0.494   0.327   5.634
22181WAT     H266786   0.538   0.391   5.778
22182WAT      O66787   5.807   3.405   2.260
22182WAT     H166788   5.728   3.388   2.202
22182WAT     H266789   5.776   3.418   2.355
22183WAT      O66790   2.472   4.862   2.157
22183WAT     H166791   2.530   4.902   2.228
22183WAT     H266792   2.385   4.912   2.154
22184WAT      O66793   9.437   6.748   3.519
22184WAT     H166794   9.410   6.810   3.593
22184WAT     H266795   9.522   6.702   3.543
22185WAT      O66796   6.157   2.774   1.481
22185WAT     H166797   6.069   2.769   1.529
22185WAT     H266798   6.146   2.740   1.388
22186WAT      O66799   0.883   7.106   7.449
22186WAT     H166800   0.894   7.205   7.464
22186WAT     H266801   0.789   7.080   7.470
22187WAT      O66802   0.806   3.410   4.734
22187WAT     H166803   0.722   3.463   4.750
22187WAT     H266804   0.818   3.396   4.635
22188WAT      O66805   3.423   2.222   7.989
22188WAT     H166806   3.498   2.271   7.943
22188WAT     H266807   3.340   2.229   7.934
22189WAT      O66808   0.992   8.888   6.912
22189WAT     H166809   1.024   8.961   6.973
22189WAT     H266810   0.956   8.928   6.828
22190WAT      O66811   9.362   3.171   5.686
22190WAT     H166812   9.439   3.230   5.661
22190WAT     H266813   9.277   3.224   5.679
22191WAT      O66814   6.436   7.637   7.571
22191WAT     H166815   6.350   7.639   7.520
22191WAT     H266816   6.469   7.730   7.585
22192WAT      O66817   5.921   0.371   8.864
22192WAT     H166818   5.826   0.343   8.876
22192WAT     H266819   5.926   0.470   8.848
22193WAT      O66820   9.174   0.120   3.504
22193WAT     H166821   9.153   0.217   3.517
22193WAT     H266822   9.130   0.067   3.577
22194WAT      O66823   0.741   4.134   5.899
22194WAT     H166824   0.787   4.183   5.974
22194WAT     H266825   0.795   4.143   5.816
22195WAT      O66826   9.253   5.877   0.204
22195WAT     H166827   9.276   5.801   0.143
22195WAT     H266828   9.245   5.961   0.151
22196WAT      O66829   6.879   2.258   8.120
22196WAT     H166830   6.961   2.205   8.139
22196WAT     H266831   6.865   2.264   8.021
22197WAT      O66832   3.023   4.407   8.678
22197WAT     H166833   2.989   4.460   8.600
22197WAT     H266834   3.031   4.467   8.757
22198WAT      O66835   4.589   6.658   0.600
22198WAT     H166836   4.615   6.667   0.504
22198WAT     H266837   4.652   6.712   0.656
22199WAT      O66838   0.038   4.389   9.724
22199WAT     H166839  -0.001   4.472   9.763
22199WAT     H266840   0.056   4.323   9.797
22200WAT      O66841   3.681   1.092   9.801
22200WAT     H166842   3.597   1.068   9.849
22200WAT     H266843   3.738   1.150   9.859
22201WAT      O66844   6.888   7.873   0.189
22201WAT     H166845   6.834   7.956   0.200
22201WAT     H266846   6.936   7.852   0.275
22202WAT      O66847   8.791   0.260   8.733
22202WAT     H166848   8.703   0.295   8.764
22202WAT     H266849   8.801   0.278   8.635
22203WAT      O66850   9.059   0.140   5.716
22203WAT     H166851   9.056   0.239   5.729
22203WAT     H266852   9.151   0.106   5.734
22204WAT      O66853   5.091   8.822   9.325
22204WAT     H166854   5.094   8.892   9.397
22204WAT     H266855   5.094   8.866   9.235
22205WAT      O66856   5.436   8.168   2.857
22205WAT     H166857   5.475   8.207   2.773
22205WAT     H266858   5.485   8.204   2.936
22206WAT      O66859   7.175   8.895   5.567
22206WAT     H166860   7.224   8.951   5.500
22206WAT     H266861   7.237   8.869   5.640
22207WAT      O66862   5.615   4.237   2.385
22207WAT     H166863   5.639   4.334   2.376
22207WAT     H266864   5.540   4.216   2.322
22208WAT      O66865   7.886   0.429   3.780
22208WAT     H166866   7.913   0.334   3.796
22208WAT     H266867   7.875   0.444   3.681
22209WAT      O66868   0.638   9.542   8.106
22209WAT     H166869   0.703   9.467   8.121
22209WAT     H266870   0.608   9.579   8.195
22210WAT      O66871   7.472   3.203   2.234
22210WAT     H166872   7.447   3.280   2.294
22210WAT     H266873   7.434   3.218   2.143
22211WAT      O66874   3.755   2.675   2.672
22211WAT     H166875   3.839   2.714   2.634
22211WAT     H266876   3.679   2.737   2.654
22212WAT      O66877   0.073   9.164   3.855
22212WAT     H166878   0.165   9.181   3.821
22212WAT     H266879   0.026   9.100   3.794
22213WAT      O66880   2.877   6.600   7.365
22213WAT     H166881   2.952   6.543   7.330
22213WAT     H266882   2.859   6.575   7.461
22214WAT      O66883   5.809   0.685   8.905
22214WAT     H166884   5.908   0.683   8.895
22214WAT     H266885   5.780   0.773   8.942
22215WAT      O66886   6.564   1.988   0.702
22215WAT     H166887   6.612   2.026   0.780
22215WAT     H266888   6.561   1.888   0.709
22216WAT      O66889   9.262   5.101   4.392
22216WAT     H166890   9.277   5.165   4.468
22216WAT     H266891   9.299   5.140   4.308
22217WAT      O66892   0.992   6.418   1.985
22217WAT     H166893   1.044   6.347   1.937
22217WAT     H266894   1.038   6.506   1.971
22218WAT      O66895   1.084   5.312   0.953
22218WAT     H166896   0.999   5.283   0.909
22218WAT     H266897   1.086   5.411   0.960
22219WAT      O66898   1.551   4.190   3.761
22219WAT     H166899   1.499   4.260   3.712
22219WAT     H266900   1.557   4.215   3.858
22220WAT      O66901   0.773   5.465   1.776
22220WAT     H166902   0.679   5.431   1.784
22220WAT     H266903   0.810   5.483   1.867
22221WAT      O66904   0.558   7.934   5.156
22221WAT     H166905   0.624   7.859   5.157
22221WAT     H266906   0.601   8.018   5.189
22222WAT      O66907   3.133   7.342   8.353
22222WAT     H166908   3.212   7.300   8.399
22222WAT     H266909   3.144   7.441   8.353
22223WAT      O66910   7.892   6.823   6.277
22223WAT     H166911   7.952   6.756   6.234
22223WAT     H266912   7.924   6.843   6.369
22224WAT      O66913   1.532   3.572   0.071
22224WAT     H166914   1.509   3.669   0.067
22224WAT     H266915   1.631   3.561   0.070
22225WAT      O66916   3.693   6.727   9.590
22225WAT     H166917   3.778   6.752   9.544
22225WAT     H266918   3.627   6.696   9.521
22226WAT      O66919   7.750   7.693   4.524
22226WAT     H166920   7.760   7.596   4.505
22226WAT     H266921   7.839   7.738   4.517
22227WAT      O66922   4.668   7.233   7.857
22227WAT     H166923   4.708   7.142   7.858
22227WAT     H266924   4.654   7.265   7.951
22228WAT      O66925   7.245   5.423   3.921
22228WAT     H166926   7.219   5.471   4.005
22228WAT     H266927   7.302   5.343   3.944
22229WAT      O66928   4.084   9.817   6.375
22229WAT     H166929   4.091   9.794   6.278
22229WAT     H266930   4.044   9.739   6.424
22230WAT      O66931   7.941   2.209   4.621
22230WAT     H166932   7.981   2.193   4.531
22230WAT     H266933   7.976   2.142   4.686
22231WAT      O66934   4.333   9.677   6.338
22231WAT     H166935   4.281   9.593   6.322
22231WAT     H266936   4.375   9.673   6.429
22232WAT      O66937   0.480   3.846   6.630
22232WAT     H166938   0.479   3.874   6.534
22232WAT     H266939   0.520   3.919   6.686
22233WAT      O66940   2.461   3.357   4.908
22233WAT     H166941   2.420   3.314   4.828
22233WAT     H266942   2.447   3.456   4.903
22234WAT      O66943   9.264   2.508   3.463
22234WAT     H166944   9.364   2.505   3.465
22234WAT     H266945   9.228   2.489   3.554
22235WAT      O66946   8.728   0.357   8.211
22235WAT     H166947   8.636   0.321   8.197
22235WAT     H266948   8.726   0.457   8.203
22236WAT      O66949   4.687   9.710   0.493
22236WAT     H166950   4.625   9.660   0.553
22236WAT     H266951   4.695   9.662   0.406
22237WAT      O66952   6.886   5.727   7.011
22237WAT     H166953   6.836   5.742   6.926
22237WAT     H266954   6.905   5.815   7.054
22238WAT      O66955   8.510   7.148   8.151
22238WAT     H166956   8.491   7.050   8.153
22238WAT     H266957   8.580   7.167   8.082
22239WAT      O66958   8.255   1.650   7.220
22239WAT     H166959   8.335   1.695   7.261
22239WAT     H266960   8.250   1.672   7.123
22240WAT      O66961   3.776   5.165   2.599
22240WAT     H166962   3.778   5.107   2.517
22240WAT     H266963   3.774   5.261   2.571
22241WAT      O66964   9.759   3.117   0.631
22241WAT     H166965   9.852   3.152   0.616
22241WAT     H266966   9.703   3.138   0.551
22242WAT      O66967   6.009   7.913   8.617
22242WAT     H166968   5.928   7.971   8.614
22242WAT     H266969   6.011   7.864   8.704
22243WAT      O66970   8.216   7.421   9.284
22243WAT     H166971   8.292   7.477   9.317
22243WAT     H266972   8.208   7.431   9.185
22244WAT      O66973   2.130   5.164   4.724
22244WAT     H166974   2.152   5.156   4.822
22244WAT     H266975   2.135   5.074   4.681
22245WAT      O66976   8.115   8.828   8.407
22245WAT     H166977   8.193   8.854   8.351
22245WAT     H266978   8.031   8.869   8.370
22246WAT      O66979   6.668   5.371   0.661
22246WAT     H166980   6.603   5.394   0.734
22246WAT     H266981   6.761   5.372   0.697
22247WAT      O66982   3.455   2.913   7.645
22247WAT     H166983   3.455   2.822   7.686
22247WAT     H266984   3.414   2.909   7.554
22248WAT      O66985   9.264   5.778   5.988
22248WAT     H166986   9.256   5.828   6.075
22248WAT     H266987   9.346   5.721   5.991
22249WAT      O66988   9.266   6.901   3.922
22249WAT     H166989   9.207   6.839   3.975
22249WAT     H266990   9.244   6.892   3.825
22250WAT      O66991   2.689   2.699   0.395
22250WAT     H166992   2.624   2.636   0.352
22250WAT     H266993   2.652   2.791   0.394
22251WAT      O66994   6.696   1.080   0.527
22251WAT     H166995   6.776   1.022   0.542
22251WAT     H266996   6.650   1.054   0.442
22252WAT      O66997   3.925   5.384   9.057
22252WAT     H166998   3.882   5.461   9.009
22252WAT     H266999   3.854   5.320   9.088
22253WAT      O67000   4.122   5.707   6.286
22253WAT     H167001   4.185   5.630   6.293
22253WAT     H267002   4.028   5.675   6.297
22254WAT      O67003   4.389   8.796   7.006
22254WAT     H167004   4.434   8.708   7.025
22254WAT     H267005   4.386   8.810   6.907
22255WAT      O67006   9.048   7.617   0.933
22255WAT     H167007   9.133   7.564   0.932
22255WAT     H267008   9.062   7.700   0.987
22256WAT      O67009   7.196   8.004   1.532
22256WAT     H167010   7.160   8.092   1.500
22256WAT     H267011   7.212   8.009   1.631
22257WAT      O67012   2.445   7.202   0.971
22257WAT     H167013   2.454   7.204   1.071
22257WAT     H267014   2.349   7.188   0.947
22258WAT      O67015   8.515   5.837   5.353
22258WAT     H167016   8.498   5.776   5.276
22258WAT     H267017   8.469   5.925   5.337
22259WAT      O67018   2.026   1.039   5.254
22259WAT     H167019   1.938   1.081   5.274
22259WAT     H267020   2.043   0.965   5.318
22260WAT      O67021   8.796   5.190   3.526
22260WAT     H167022   8.700   5.166   3.535
22260WAT     H267023   8.834   5.214   3.616
22261WAT      O67024   1.775   5.283   4.852
22261WAT     H167025   1.851   5.289   4.917
22261WAT     H267026   1.753   5.187   4.836
22262WAT      O67027   0.009   0.225   3.912
22262WAT     H167028  -0.034   0.315   3.907
22262WAT     H267029   0.108   0.236   3.914
22263WAT      O67030   5.093   1.556   3.389
22263WAT     H167031   5.117   1.458   3.393
22263WAT     H267032   5.101   1.596   3.480
22264WAT      O67033   8.920   0.550   6.168
22264WAT     H167034   8.875   0.610   6.102
22264WAT     H267035   8.979   0.486   6.119
22265WAT      O67036   2.939   1.010   9.365
22265WAT     H167037   2.876   0.950   9.315
22265WAT     H267038   2.894   1.042   9.449
22266WAT      O67039   6.321   8.868   1.789
22266WAT     H167040   6.373   8.849   1.873
22266WAT     H267041   6.223   8.858   1.808
22267WAT      O67042   2.934   3.902   6.695
22267WAT     H167043   2.846   3.869   6.730
22267WAT     H267044   2.989   3.936   6.771
22268WAT      O67045   8.617   4.491   9.517
22268WAT     H167046   8.576   4.569   9.565
22268WAT     H267047   8.560   4.467   9.438
22269WAT      O67048   1.890   0.751   9.008
22269WAT     H167049   1.792   0.764   8.994
22269WAT     H267050   1.907   0.660   9.045
22270WAT      O67051   2.681   9.008   8.754
22270WAT     H167052   2.638   9.051   8.833
22270WAT     H267053   2.701   9.078   8.685
22271WAT      O67054   3.176   8.703   9.422
22271WAT     H167055   3.144   8.683   9.329
22271WAT     H267056   3.247   8.636   9.447
22272WAT      O67057   3.398   9.165   9.891
22272WAT     H167058   3.329   9.111   9.844
22272WAT     H267059   3.382   9.262   9.873
22273WAT      O67060   4.517   3.700   0.509
22273WAT     H167061   4.444   3.715   0.576
22273WAT     H267062   4.575   3.624   0.539
22274WAT      O67063   9.526   9.609   9.401
22274WAT     H167064   9.543   9.708   9.400
22274WAT     H267065   9.591   9.564   9.340
22275WAT      O67066   0.940   4.488   1.146
22275WAT     H167067   0.902   4.509   1.055
22275WAT     H267068   1.037   4.465   1.137
22276WAT      O67069   3.614   8.090   6.077
22276WAT     H167070   3.586   8.003   6.117
22276WAT     H267071   3.564   8.164   6.120
22277WAT      O67072   3.981   8.308   3.611
22277WAT     H167073   4.055   8.250   3.578
22277WAT     H267074   3.917   8.254   3.666
22278WAT      O67075   7.661   1.696   4.786
22278WAT     H167076   7.576   1.703   4.735
22278WAT     H267077   7.700   1.787   4.799
22279WAT      O67078   0.558   1.788   4.549
22279WAT     H167079   0.611   1.869   4.571
22279WAT     H267080   0.474   1.815   4.501
22280WAT      O67081   6.303   3.253   6.771
22280WAT     H167082   6.271   3.337   6.813
22280WAT     H267083   6.337   3.190   6.842
22281WAT      O67084   5.184   8.818   8.162
22281WAT     H167085   5.282   8.799   8.163
22281WAT     H267086   5.161   8.877   8.239
22282WAT      O67087   4.349   5.506   0.903
22282WAT     H167088   4.438   5.552   0.893
22282WAT     H267089   4.363   5.417   0.947
22283WAT      O67090   7.701   9.306   0.995
22283WAT     H167091   7.717   9.393   0.948
22283WAT     H267092   7.709   9.231   0.930
22284WAT      O67093   6.276   5.431   3.684
22284WAT     H167094   6.340   5.507   3.697
22284WAT     H267095   6.326   5.351   3.653
22285WAT      O67096   5.894   9.398   3.994
22285WAT     H167097   5.849   9.329   3.938
22285WAT     H267098   5.890   9.371   4.090
22286WAT      O67099   2.635   8.588   8.136
22286WAT     H167100   2.572   8.566   8.211
22286WAT     H267101   2.687   8.506   8.111
22287WAT      O67102   1.428   9.157   6.222
22287WAT     H167103   1.512   9.135   6.271
22287WAT     H267104   1.435   9.125   6.128
22288WAT      O67105   6.441   8.001   4.024
22288WAT     H167106   6.348   7.962   4.023
22288WAT     H267107   6.457   8.047   4.111
22289WAT      O67108   7.883   3.945   9.863
22289WAT     H167109   7.902   4.002   9.783
22289WAT     H267110   7.850   4.003   9.938
22290WAT      O67111   1.047   6.250   8.508
22290WAT     H167112   1.098   6.170   8.541
22290WAT     H267113   1.106   6.307   8.451
22291WAT      O67114   3.014   5.615   9.071
22291WAT     H167115   3.049   5.538   9.125
22291WAT     H267116   2.982   5.581   8.983
22292WAT      O67117   7.454   0.490   5.634
22292WAT     H167118   7.533   0.456   5.582
22292WAT     H267119   7.423   0.421   5.698
22293WAT      O67120   8.752   8.818   2.069
22293WAT     H167121   8.659   8.808   2.036
22293WAT     H267122   8.816   8.783   2.001
22294WAT      O67123   1.619   8.826   9.092
22294WAT     H167124   1.631   8.899   9.159
22294WAT     H267125   1.535   8.776   9.111
22295WAT      O67126   7.517   0.344   2.658
22295WAT     H167127   7.429   0.299   2.647
22295WAT     H267128   7.579   0.315   2.585
22296WAT      O67129   2.433   3.057   2.956
22296WAT     H167130   2.382   3.100   3.031
22296WAT     H267131   2.531   3.069   2.971
22297WAT      O67132   0.188   1.481   7.148
22297WAT     H167133   0.280   1.481   7.188
22297WAT     H267134   0.182   1.409   7.079
22298WAT      O67135   6.687   7.676   9.553
22298WAT     H167136   6.722   7.587   9.526
22298WAT     H267137   6.763   7.733   9.587
22299WAT      O67138   2.135   5.139   9.644
22299WAT     H167139   2.040   5.166   9.661
22299WAT     H267140   2.145   5.040   9.658
22300WAT      O67141   5.261   9.444   0.622
22300WAT     H167142   5.348   9.494   0.629
22300WAT     H267143   5.188   9.498   0.664
22301WAT      O67144   9.188   7.182   9.851
22301WAT     H167145   9.191   7.277   9.820
22301WAT     H267146   9.171   7.122   9.773
22302WAT      O67147   3.022   3.215   6.406
22302WAT     H167148   3.088   3.162   6.459
22302WAT     H267149   2.994   3.162   6.325
22303WAT      O67150   9.335   6.853   4.482
22303WAT     H167151   9.297   6.946   4.487
22303WAT     H267152   9.433   6.858   4.467
22304WAT      O67153   6.455   6.851   8.292
22304WAT     H167154   6.383   6.880   8.229
22304WAT     H267155   6.473   6.753   8.281
22305WAT      O67156   6.557   7.887   4.563
22305WAT     H167157   6.600   7.813   4.512
22305WAT     H267158   6.616   7.912   4.641
22306WAT      O67159   3.423   3.008   7.907
22306WAT     H167160   3.434   2.966   7.817
22306WAT     H267161   3.359   3.085   7.900
22307WAT      O67162   6.099   2.028   1.941
22307WAT     H167163   6.029   2.097   1.960
22307WAT     H267164   6.076   1.943   1.989
22308WAT      O67165   7.490   1.124   9.738
22308WAT     H167166   7.504   1.205   9.680
22308WAT     H267167   7.564   1.059   9.723
22309WAT      O67168   6.190   8.814   9.470
22309WAT     H167169   6.104   8.856   9.499
22309WAT     H267170   6.216   8.743   9.535
22310WAT      O67171   4.431   5.231   9.556
22310WAT     H167172   4.396   5.137   9.549
22310WAT     H267173   4.523   5.235   9.518
22311WAT      O67174   2.733   0.821   1.529
22311WAT     H167175   2.820   0.779   1.503
22311WAT     H267176   2.719   0.810   1.628
22312WAT      O67177   1.406   5.946   3.425
22312WAT     H167178   1.444   5.878   3.362
22312WAT     H267179   1.413   6.037   3.383
22313WAT      O67180   6.838   0.969   4.943
22313WAT     H167181   6.922   0.948   4.893
22313WAT     H267182   6.770   1.009   4.881
22314WAT      O67183   0.953   8.006   6.851
22314WAT     H167184   0.854   8.015   6.864
22314WAT     H267185   0.993   8.097   6.838
22315WAT      O67186   5.176   6.594   3.728
22315WAT     H167187   5.171   6.497   3.706
22315WAT     H267188   5.169   6.648   3.644
22316WAT      O67189   2.365   6.660   1.533
22316WAT     H167190   2.282   6.615   1.568
22316WAT     H267191   2.445   6.623   1.580
22317WAT      O67192   5.114   7.410   3.506
22317WAT     H167193   5.053   7.431   3.430
22317WAT     H267194   5.072   7.437   3.592
22318WAT      O67195   2.126   6.762   5.144
22318WAT     H167196   2.027   6.761   5.129
22318WAT     H267197   2.168   6.685   5.096
22319WAT      O67198   6.969   0.083   1.508
22319WAT     H167199   6.919   0.142   1.571
22319WAT     H267200   7.022   0.016   1.560
22320WAT      O67201   4.677   7.386   1.076
22320WAT     H167202   4.597   7.404   1.133
22320WAT     H267203   4.648   7.369   0.982
22321WAT      O67204   9.701   3.182   1.669
22321WAT     H167205   9.762   3.198   1.746
22321WAT     H267206   9.659   3.268   1.641
22322WAT      O67207   2.474   5.635   3.869
22322WAT     H167208   2.492   5.722   3.822
22322WAT     H267209   2.376   5.616   3.869
22323WAT      O67210   1.022   6.592   9.306
22323WAT     H167211   1.115   6.556   9.294
22323WAT     H267212   1.002   6.600   9.403
22324WAT      O67213   0.693   8.242   2.002
22324WAT     H167214   0.711   8.217   2.097
22324WAT     H267215   0.725   8.335   1.986
22325WAT      O67216   5.109   3.947   6.544
22325WAT     H167217   5.014   3.979   6.554
22325WAT     H267218   5.109   3.852   6.513
22326WAT      O67219   2.193   1.516   8.152
22326WAT     H167220   2.124   1.447   8.129
22326WAT     H267221   2.223   1.503   8.246
22327WAT      O67222   8.123   8.829   2.119
22327WAT     H167223   8.101   8.898   2.189
22327WAT     H267224   8.061   8.839   2.042
22328WAT      O67225   9.489   8.237   5.784
22328WAT     H167226   9.571   8.181   5.775
22328WAT     H267227   9.410   8.188   5.748
22329WAT      O67228   1.368   7.479   1.766
22329WAT     H167229   1.394   7.518   1.677
22329WAT     H267230   1.392   7.381   1.767
22330WAT      O67231   7.371   0.919   0.671
22330WAT     H167232   7.409   0.829   0.650
22330WAT     H267233   7.313   0.950   0.596
22331WAT      O67234   1.875   8.971   5.600
22331WAT     H167235   1.864   8.955   5.501
22331WAT     H267236   1.811   8.913   5.650
22332WAT      O67237   8.898   3.243   7.784
22332WAT     H167238   8.927   3.200   7.699
22332WAT     H267239   8.818   3.300   7.766
22333WAT      O67240   1.774   1.700   6.211
22333WAT     H167241   1.729   1.658   6.290
22333WAT     H267242   1.724   1.782   6.183
22334WAT      O67243   3.488   5.840   1.255
22334WAT     H167244   3.489   5.892   1.169
22334WAT     H267245   3.539   5.755   1.244
22335WAT      O67246   8.265   9.638   5.628
22335WAT     H167247   8.241   9.664   5.534
22335WAT     H267248   8.288   9.540   5.630
22336WAT      O67249   4.641   0.262   5.670
22336WAT     H167250   4.547   0.291   5.656
22336WAT     H267251   4.648   0.213   5.757
22337WAT      O67252   3.334   4.568   0.371
22337WAT     H167253   3.264   4.500   0.389
22337WAT     H267254   3.414   4.525   0.328
22338WAT      O67255   2.379   8.262   5.938
22338WAT     H167256   2.438   8.213   5.874
22338WAT     H267257   2.303   8.303   5.889
22339WAT      O67258   2.226   9.631   3.061
22339WAT     H167259   2.299   9.565   3.041
22339WAT     H267260   2.185   9.609   3.149
22340WAT      O67261   5.347   1.708   7.915
22340WAT     H167262   5.279   1.692   7.986
22340WAT     H267263   5.439   1.694   7.954
22341WAT      O67264   0.260   0.705   3.359
22341WAT     H167265   0.276   0.671   3.266
22341WAT     H267266   0.318   0.785   3.375
22342WAT      O67267   7.086   1.498   2.407
22342WAT     H167268   7.072   1.477   2.503
22342WAT     H267269   7.158   1.567   2.398
22343WAT      O67270   1.027   1.492   0.814
22343WAT     H167271   1.076   1.482   0.727
22343WAT     H267272   1.092   1.480   0.890
22344WAT      O67273   5.972   9.509   8.095
22344WAT     H167274   5.919   9.526   8.178
22344WAT     H267275   6.066   9.538   8.109
22345WAT      O67276   7.036   9.407   5.338
22345WAT     H167277   7.050   9.436   5.243
22345WAT     H267278   7.122   9.414   5.388
22346WAT      O67279   6.304   9.343   1.888
22346WAT     H167280   6.289   9.434   1.926
22346WAT     H267281   6.402   9.325   1.882
22347WAT      O67282   9.320   3.016   8.573
22347WAT     H167283   9.285   2.972   8.656
22347WAT     H267284   9.399   2.965   8.540
22348WAT      O67285   9.434   1.855   0.152
22348WAT     H167286   9.437   1.938   0.208
22348WAT     H267287   9.378   1.871   0.071
22349WAT      O67288   4.071   2.807   9.047
22349WAT     H167289   4.056   2.820   8.949
22349WAT     H267290   4.029   2.882   9.098
22350WAT      O67291   0.596   0.959   8.775
22350WAT     H167292   0.547   0.889   8.724
22350WAT     H267293   0.577   0.949   8.872
22351WAT      O67294   9.306   0.869   0.233
22351WAT     H167295   9.294   0.968   0.242
22351WAT     H267296   9.390   0.850   0.182
22352WAT      O67297   3.653   9.027   4.783
22352WAT     H167298   3.701   8.943   4.810
22352WAT     H267299   3.680   9.102   4.843
22353WAT      O67300   2.405   9.337   0.349
22353WAT     H167301   2.376   9.244   0.371
22353WAT     H267302   2.450   9.337   0.260
22354WAT      O67303   8.012   4.751   4.638
22354WAT     H167304   8.021   4.657   4.673
22354WAT     H267305   8.079   4.810   4.685
22355WAT      O67306   2.494   7.847   4.457
22355WAT     H167307   2.431   7.771   4.441
22355WAT     H267308   2.520   7.889   4.370
22356WAT      O67309   7.170   0.075   0.620
22356WAT     H167310   7.172   0.099   0.523
22356WAT     H267311   7.185  -0.023   0.630
22357WAT      O67312   3.484   4.329   6.238
22357WAT     H167313   3.452   4.251   6.291
22357WAT     H267314   3.519   4.399   6.300
22358WAT      O67315   2.920   3.801   7.747
22358WAT     H167316   2.958   3.783   7.657
22358WAT     H267317   2.982   3.766   7.818
22359WAT      O67318   8.721   0.470   0.140
22359WAT     H167319   8.657   0.394   0.136
22359WAT     H267320   8.671   0.557   0.138
22360WAT      O67321   0.521   8.046   3.283
22360WAT     H167322   0.604   8.021   3.333
22360WAT     H267323   0.448   7.982   3.306
22361WAT      O67324   1.760   1.676   8.657
22361WAT     H167325   1.822   1.604   8.690
22361WAT     H267326   1.748   1.667   8.558
22362WAT      O67327   2.814   3.850   5.860
22362WAT     H167328   2.757   3.798   5.923
22362WAT     H267329   2.813   3.806   5.770
22363WAT      O67330   4.218   5.787   7.188
22363WAT     H167331   4.259   5.871   7.152
22363WAT     H267332   4.244   5.776   7.284
22364WAT      O67333   9.152   1.118   2.749
22364WAT     H167334   9.214   1.120   2.671
22364WAT     H267335   9.068   1.069   2.724
22365WAT      O67336   0.931   9.193   1.652
22365WAT     H167337   0.948   9.106   1.605
22365WAT     H267338   0.953   9.269   1.591
22366WAT      O67339   6.128   4.322   1.271
22366WAT     H167340   6.151   4.236   1.317
22366WAT     H267341   6.205   4.348   1.211
22367WAT      O67342   9.695   0.384   7.855
22367WAT     H167343   9.697   0.349   7.761
22367WAT     H267344   9.717   0.310   7.918
22368WAT      O67345   8.342   8.886   8.984
22368WAT     H167346   8.251   8.860   8.952
22368WAT     H267347   8.410   8.825   8.945
22369WAT      O67348   9.361   6.498   6.473
22369WAT     H167349   9.292   6.554   6.427
22369WAT     H267350   9.428   6.557   6.518
22370WAT      O67351   0.469   8.872   1.818
22370WAT     H167352   0.544   8.833   1.766
22370WAT     H267353   0.504   8.945   1.878
22371WAT      O67354   7.438   3.209   0.257
22371WAT     H167355   7.442   3.252   0.167
22371WAT     H267356   7.355   3.155   0.265
22372WAT      O67357   5.638   4.643   8.772
22372WAT     H167358   5.550   4.610   8.805
22372WAT     H267359   5.704   4.568   8.771
22373WAT      O67360   1.118   4.894   5.556
22373WAT     H167361   1.140   4.805   5.597
22373WAT     H267362   1.063   4.880   5.474
22374WAT      O67363   4.619   4.755   3.026
22374WAT     H167364   4.630   4.680   2.961
22374WAT     H267365   4.706   4.774   3.070
22375WAT      O67366   9.855   0.471   1.227
22375WAT     H167367   9.946   0.486   1.264
22375WAT     H267368   9.790   0.534   1.270
22376WAT      O67369   3.714   4.016   9.010
22376WAT     H167370   3.650   4.057   8.945
22376WAT     H267371   3.715   3.917   8.997
22377WAT      O67372   8.722   7.483   8.355
22377WAT     H167373   8.692   7.566   8.402
22377WAT     H267374   8.656   7.410   8.371
22378WAT      O67375   7.591   5.330   1.587
22378WAT     H167376   7.492   5.346   1.590
22378WAT     H267377   7.624   5.313   1.680
22379WAT      O67378   9.836   2.587   5.918
22379WAT     H167379   9.813   2.510   5.858
22379WAT     H267380   9.758   2.606   5.978
22380WAT      O67381   8.841   3.657   5.813
22380WAT     H167382   8.868   3.650   5.717
22380WAT     H267383   8.890   3.588   5.866
22381WAT      O67384   5.057   3.591   9.331
22381WAT     H167385   5.025   3.627   9.243
22381WAT     H267386   5.143   3.541   9.317
22382WAT      O67387   0.249   9.188   2.146
22382WAT     H167388   0.202   9.101   2.163
22382WAT     H267389   0.344   9.182   2.176
22383WAT      O67390   7.261   5.262   5.877
22383WAT     H167391   7.216   5.345   5.909
22383WAT     H267392   7.265   5.195   5.952
22384WAT      O67393   1.691   0.154   8.679
22384WAT     H167394   1.771   0.094   8.687
22384WAT     H267395   1.611   0.107   8.716
22385WAT      O67396   2.508   5.230   6.308
22385WAT     H167397   2.418   5.187   6.302
22385WAT     H267398   2.546   5.214   6.399
22386WAT      O67399   0.178   8.691   0.729
22386WAT     H167400   0.148   8.768   0.786
22386WAT     H267401   0.251   8.641   0.776
22387WAT      O67402   4.210   7.782   5.498
22387WAT     H167403   4.192   7.684   5.487
22387WAT     H267404   4.179   7.811   5.588
22388WAT      O67405   8.185   9.719   4.389
22388WAT     H167406   8.131   9.791   4.432
22388WAT     H267407   8.251   9.683   4.456
22389WAT      O67408   6.273   6.493   1.365
22389WAT     H167409   6.347   6.511   1.429
22389WAT     H267410   6.309   6.440   1.287
22390WAT      O67411   6.472   7.043   8.477
22390WAT     H167412   6.459   6.968   8.411
22390WAT     H267413   6.529   7.011   8.553
22391WAT      O67414   7.354   4.306   0.960
22391WAT     H167415   7.281   4.247   0.926
22391WAT     H267416   7.315   4.381   1.012
22392WAT      O67417   8.404   7.832   1.409
22392WAT     H167418   8.453   7.875   1.484
22392WAT     H267419   8.315   7.876   1.397
22393WAT      O67420   4.653   3.296   2.263
22393WAT     H167421   4.667   3.281   2.361
22393WAT     H267422   4.738   3.327   2.221
22394WAT      O67423   7.043   4.364   4.504
22394WAT     H167424   7.053   4.280   4.451
22394WAT     H267425   7.130   4.386   4.549
22395WAT      O67426   0.656   1.876   6.120
22395WAT     H167427   0.689   1.895   6.212
22395WAT     H267428   0.688   1.785   6.091
22396WAT      O67429   1.053   7.171   9.134
22396WAT     H167430   1.029   7.086   9.087
22396WAT     H267431   1.143   7.202   9.104
22397WAT      O67432   9.220   3.689   7.807
22397WAT     H167433   9.152   3.670   7.736
22397WAT     H267434   9.310   3.657   7.776
22398WAT      O67435   5.820   1.502   3.777
22398WAT     H167436   5.828   1.443   3.696
22398WAT     H267437   5.889   1.477   3.844
22399WAT      O67438   5.921   4.159   0.832
22399WAT     H167439   5.840   4.210   0.863
22399WAT     H267440   5.949   4.193   0.742
22400WAT      O67441   9.315   4.981   6.929
22400WAT     H167442   9.313   4.915   6.853
22400WAT     H267443   9.408   4.985   6.966
22401WAT      O67444   3.382   8.111   7.835
22401WAT     H167445   3.305   8.057   7.870
22401WAT     H267446   3.429   8.059   7.763
22402WAT      O67447   6.904   2.044   5.255
22402WAT     H167448   6.962   2.124   5.236
22402WAT     H267449   6.961   1.969   5.289
22403WAT      O67450   3.531   2.890   5.045
22403WAT     H167451   3.433   2.881   5.062
22403WAT     H267452   3.579   2.903   5.132
22404WAT      O67453   8.581   0.895   3.054
22404WAT     H167454   8.578   0.797   3.034
22404WAT     H267455   8.560   0.910   3.151
22405WAT      O67456   4.104   8.561   4.861
22405WAT     H167457   4.125   8.501   4.785
22405WAT     H267458   4.139   8.653   4.843
22406WAT      O67459   4.511   5.116   7.135
22406WAT     H167460   4.506   5.078   7.043
22406WAT     H267461   4.443   5.071   7.194
22407WAT      O67462   8.524   5.382   3.741
22407WAT     H167463   8.501   5.429   3.655
22407WAT     H267464   8.517   5.283   3.728
22408WAT      O67465   1.988   9.606   8.092
22408WAT     H167466   1.942   9.680   8.141
22408WAT     H267467   1.920   9.539   8.060
22409WAT      O67468   7.417   4.559   0.369
22409WAT     H167469   7.443   4.628   0.300
22409WAT     H267470   7.318   4.551   0.371
22410WAT      O67471   4.028   9.027   4.715
22410WAT     H167472   4.021   9.079   4.630
22410WAT     H267473   4.121   8.992   4.726
22411WAT      O67474   1.295   9.611   8.416
22411WAT     H167475   1.256   9.519   8.415
22411WAT     H267476   1.249   9.666   8.487
22412WAT      O67477   5.405   3.698   8.071
22412WAT     H167478   5.468   3.638   8.023
22412WAT     H267479   5.349   3.644   8.134
22413WAT      O67480   8.504   7.381   7.167
22413WAT     H167481   8.445   7.358   7.244
22413WAT     H267482   8.576   7.312   7.159
22414WAT      O67483   5.182   4.780   0.346
22414WAT     H167484   5.175   4.708   0.277
22414WAT     H267485   5.117   4.853   0.324
22415WAT      O67486   7.978   2.703   7.430
22415WAT     H167487   7.952   2.736   7.520
22415WAT     H267488   7.944   2.609   7.418
22416WAT      O67489   5.964   3.040   9.243
22416WAT     H167490   5.924   2.963   9.194
22416WAT     H267491   5.895   3.084   9.300
22417WAT      O67492   3.808   6.161   1.371
22417WAT     H167493   3.740   6.179   1.300
22417WAT     H267494   3.767   6.169   1.461
22418WAT      O67495   9.734   2.835   9.367
22418WAT     H167496   9.674   2.913   9.348
22418WAT     H267497   9.722   2.767   9.295
22419WAT      O67498   4.271   7.264   4.695
22419WAT     H167499   4.242   7.234   4.786
22419WAT     H267500   4.350   7.324   4.704
22420WAT      O67501   5.193   0.499   0.110
22420WAT     H167502   5.194   0.455   0.020
22420WAT     H267503   5.188   0.598   0.099
22421WAT      O67504   1.291   2.701   5.868
22421WAT     H167505   1.222   2.745   5.811
22421WAT     H267506   1.285   2.602   5.858
22422WAT      O67507   0.203   8.567   2.390
22422WAT     H167508   0.193   8.527   2.481
22422WAT     H267509   0.127   8.537   2.332
22423WAT      O67510   6.708   2.181   0.851
22423WAT     H167511   6.676   2.206   0.943
22423WAT     H267512   6.788   2.237   0.827
22424WAT      O67513   1.091   5.695   1.273
22424WAT     H167514   1.065   5.791   1.267
22424WAT     H267515   1.154   5.683   1.349
22425WAT      O67516   2.373   3.420   5.484
22425WAT     H167517   2.412   3.413   5.576
22425WAT     H267518   2.289   3.366   5.479
22426WAT      O67519   2.041   8.830   7.097
22426WAT     H167520   2.061   8.806   7.002
22426WAT     H267521   2.121   8.873   7.138
22427WAT      O67522   3.820   8.785   0.686
22427WAT     H167523   3.821   8.691   0.719
22427WAT     H267524   3.912   8.813   0.661
22428WAT      O67525   4.400   3.109   6.027
22428WAT     H167526   4.450   3.029   5.995
22428WAT     H267527   4.341   3.084   6.103
22429WAT      O67528   0.823   1.062   0.604
22429WAT     H167529   0.801   0.993   0.673
22429WAT     H267530   0.777   1.040   0.518
22430WAT      O67531   4.465   7.507   5.802
22430WAT     H167532   4.432   7.469   5.715
22430WAT     H267533   4.497   7.600   5.788
22431WAT      O67534   8.894   2.162   1.421
22431WAT     H167535   8.885   2.226   1.497
22431WAT     H267536   8.990   2.135   1.412
22432WAT      O67537   3.276   4.654   1.320
22432WAT     H167538   3.237   4.746   1.314
22432WAT     H267539   3.299   4.633   1.416
22433WAT      O67540   3.411   2.587   6.890
22433WAT     H167541   3.443   2.663   6.832
22433WAT     H267542   3.420   2.501   6.840
22434WAT      O67543   5.853   5.199   9.726
22434WAT     H167544   5.896   5.155   9.805
22434WAT     H267545   5.910   5.276   9.697
22435WAT      O67546   7.704   4.832   1.027
22435WAT     H167547   7.625   4.787   1.070
22435WAT     H267548   7.765   4.763   0.989
22436WAT      O67549   1.411   6.788   0.278
22436WAT     H167550   1.343   6.832   0.338
22436WAT     H267551   1.401   6.824   0.185
22437WAT      O67552   5.685   4.286   2.639
22437WAT     H167553   5.780   4.319   2.641
22437WAT     H267554   5.653   4.284   2.544
22438WAT      O67555   8.170   5.724   9.320
22438WAT     H167556   8.235   5.705   9.246
22438WAT     H267557   8.123   5.640   9.345
22439WAT      O67558   1.007   4.123   2.941
22439WAT     H167559   0.995   4.047   3.005
22439WAT     H267560   1.090   4.173   2.964
22440WAT      O67561   6.002   7.450   5.656
22440WAT     H167562   6.055   7.420   5.735
22440WAT     H267563   6.063   7.493   5.589
22441WAT      O67564   1.329   7.621   9.694
22441WAT     H167565   1.260   7.693   9.694
22441WAT     H267566   1.332   7.577   9.604
22442WAT      O67567   7.699   5.186   2.264
22442WAT     H167568   7.732   5.255   2.329
22442WAT     H267569   7.744   5.198   2.176
22443WAT      O67570   9.134   2.155   3.774
22443WAT     H167571   9.161   2.121   3.865
22443WAT     H267572   9.083   2.084   3.726
22444WAT      O67573   0.221   0.649   6.887
22444WAT     H167574   0.142   0.695   6.844
22444WAT     H267575   0.191   0.562   6.927
22445WAT      O67576   4.540   6.910   6.998
22445WAT     H167577   4.499   6.908   7.089
22445WAT     H267578   4.485   6.855   6.935
22446WAT      O67579   9.435   2.095   5.598
22446WAT     H167580   9.464   2.173   5.655
22446WAT     H267581   9.345   2.064   5.628
22447WAT      O67582   8.565   6.300   4.121
22447WAT     H167583   8.568   6.400   4.130
22447WAT     H267584   8.643   6.260   4.170
22448WAT      O67585   0.571   2.639   0.438
22448WAT     H167586   0.667   2.658   0.454
22448WAT     H267587   0.549   2.654   0.341
22449WAT      O67588   2.797   1.503   1.253
22449WAT     H167589   2.716   1.559   1.239
22449WAT     H267590   2.870   1.559   1.291
22450WAT      O67591   1.226   8.861   9.620
22450WAT     H167592   1.198   8.899   9.708
22450WAT     H267593   1.161   8.891   9.549
22451WAT      O67594   2.691   1.947   8.618
22451WAT     H167595   2.777   1.912   8.655
22451WAT     H267596   2.706   2.035   8.575
22452WAT      O67597   2.111   2.742   9.378
22452WAT     H167598   2.148   2.691   9.455
22452WAT     H267599   2.018   2.771   9.397
22453WAT      O67600   8.925   5.203   1.008
22453WAT     H167601   8.891   5.275   0.947
22453WAT     H267602   8.863   5.124   1.004
22454WAT      O67603   8.776   7.680   2.528
22454WAT     H167604   8.678   7.681   2.544
22454WAT     H267605   8.824   7.716   2.608
22455WAT      O67606   1.773   8.263   8.425
22455WAT     H167607   1.788   8.169   8.457
22455WAT     H267608   1.844   8.322   8.464
22456WAT      O67609   1.086   3.999   7.716
22456WAT     H167610   0.998   3.952   7.725
22456WAT     H267611   1.143   3.975   7.794
22457WAT      O67612   0.212   5.807   7.612
22457WAT     H167613   0.266   5.734   7.652
22457WAT     H267614   0.152   5.846   7.682
22458WAT      O67615   0.259   8.097   8.104
22458WAT     H167616   0.342   8.109   8.159
22458WAT     H267617   0.282   8.047   8.021
22459WAT      O67618   6.600   4.483   1.512
22459WAT     H167619   6.517   4.499   1.459
22459WAT     H267620   6.664   4.559   1.498
22460WAT      O67621   4.549   4.226   6.745
22460WAT     H167622   4.545   4.283   6.663
22460WAT     H267623   4.490   4.146   6.732
22461WAT      O67624   8.429   0.489   9.732
22461WAT     H167625   8.384   0.461   9.647
22461WAT     H267626   8.374   0.561   9.776
22462WAT      O67627   2.677   4.882   9.505
22462WAT     H167628   2.755   4.869   9.444
22462WAT     H267629   2.705   4.868   9.599
22463WAT      O67630   3.802   8.450   6.584
22463WAT     H167631   3.736   8.436   6.658
22463WAT     H267632   3.793   8.375   6.518
22464WAT      O67633   2.647   1.090   8.870
22464WAT     H167634   2.717   1.019   8.863
22464WAT     H267635   2.570   1.056   8.924
22465WAT      O67636   5.843   2.200   7.903
22465WAT     H167637   5.873   2.293   7.925
22465WAT     H267638   5.814   2.197   7.807
22466WAT      O67639   3.978   3.986   5.662
22466WAT     H167640   3.899   3.974   5.602
22466WAT     H267641   3.948   4.024   5.750
22467WAT      O67642   6.928   6.918   3.149
22467WAT     H167643   6.991   6.851   3.189
22467WAT     H267644   6.866   6.951   3.220
22468WAT      O67645   8.708   5.984   1.142
22468WAT     H167646   8.782   5.919   1.158
22468WAT     H267647   8.732   6.044   1.066
22469WAT      O67648   1.373   0.100   1.128
22469WAT     H167649   1.413   0.103   1.037
22469WAT     H267650   1.445   0.107   1.197
22470WAT      O67651   4.912   9.729   6.652
22470WAT     H167652   4.858   9.775   6.722
22470WAT     H267653   4.859   9.723   6.567
22471WAT      O67654   6.578   8.343   6.835
22471WAT     H167655   6.565   8.260   6.779
22471WAT     H267656   6.608   8.317   6.927
22472WAT      O67657   6.253   3.477   3.169
22472WAT     H167658   6.339   3.529   3.176
22472WAT     H267659   6.249   3.432   3.080
22473WAT      O67660   3.427   0.555   2.863
22473WAT     H167661   3.478   0.581   2.945
22473WAT     H267662   3.460   0.466   2.831
22474WAT      O67663   5.546   7.945   5.403
22474WAT     H167664   5.569   7.988   5.316
22474WAT     H267665   5.465   7.989   5.441
22475WAT      O67666   3.974   4.400   5.834
22475WAT     H167667   4.024   4.330   5.885
22475WAT     H267668   3.925   4.459   5.898
22476WAT      O67669   5.983   2.349   3.619
22476WAT     H167670   5.977   2.447   3.638
22476WAT     H267671   6.071   2.314   3.652
22477WAT      O67672   8.246   7.674   9.546
22477WAT     H167673   8.329   7.662   9.600
22477WAT     H267674   8.175   7.613   9.579
22478WAT      O67675   9.473   7.578   5.653
22478WAT     H167676   9.524   7.522   5.719
22478WAT     H267677   9.497   7.674   5.665
22479WAT      O67678   7.837   6.916   3.784
22479WAT     H167679   7.845   6.848   3.711
22479WAT     H267680   7.807   7.004   3.745
22480WAT      O67681   9.658   3.415   1.904
22480WAT     H167682   9.724   3.371   1.965
22480WAT     H267683   9.587   3.349   1.879
22481WAT      O67684   5.278   1.517   7.399
22481WAT     H167685   5.217   1.561   7.464
22481WAT     H267686   5.332   1.587   7.352
22482WAT      O67687   8.377   1.538   3.011
22482WAT     H167688   8.434   1.461   3.039
22482WAT     H267689   8.342   1.522   2.918
22483WAT      O67690   5.547   7.133   9.834
22483WAT     H167691   5.644   7.109   9.834
22483WAT     H267692   5.525   7.184   9.751
22484WAT      O67693   7.546   1.802   7.513
22484WAT     H167694   7.622   1.756   7.559
22484WAT     H267695   7.471   1.737   7.499
22485WAT      O67696   6.556   8.112   8.151
22485WAT     H167697   6.533   8.198   8.107
22485WAT     H267698   6.623   8.128   8.224
22486WAT      O67699   3.735   5.472   7.541
22486WAT     H167700   3.821   5.501   7.499
22486WAT     H267701   3.695   5.548   7.591
22487WAT      O67702   8.636   6.222   7.571
22487WAT     H167703   8.551   6.169   7.564
22487WAT     H267704   8.658   6.262   7.482
22488WAT      O67705   4.729   6.045   3.756
22488WAT     H167706   4.633   6.041   3.785
22488WAT     H267707   4.737   6.006   3.664
22489WAT      O67708   4.966   2.578   6.132
22489WAT     H167709   5.007   2.487   6.122
22489WAT     H267710   4.925   2.587   6.223
22490WAT      O67711   0.336   2.311   6.062
22490WAT     H167712   0.402   2.313   6.136
22490WAT     H267713   0.245   2.333   6.098
22491WAT      O67714   3.681   3.411   5.060
22491WAT     H167715   3.725   3.327   5.027
22491WAT     H267716   3.651   3.466   4.981
22492WAT      O67717   8.306   0.471   5.276
22492WAT     H167718   8.280   0.393   5.219
22492WAT     H267719   8.379   0.443   5.339
22493WAT      O67720   6.997   6.589   2.010
22493WAT     H167721   7.050   6.520   1.960
22493WAT     H267722   7.048   6.674   2.015
22494WAT      O67723   7.215   7.596   3.903
22494WAT     H167724   7.273   7.653   3.845
22494WAT     H267725   7.163   7.533   3.845
22495WAT      O67726   0.658   4.207   0.860
22495WAT     H167727   0.715   4.174   0.935
22495WAT     H267728   0.562   4.201   0.887
22496WAT      O67729   8.340   3.636   2.688
22496WAT     H167730   8.398   3.567   2.730
22496WAT     H267731   8.387   3.724   2.688
22497WAT      O67732   4.549   8.586   5.997
22497WAT     H167733   4.465   8.564   6.046
22497WAT     H267734   4.549   8.541   5.908
22498WAT      O67735   6.805   3.295   8.177
22498WAT     H167736   6.769   3.244   8.098
22498WAT     H267737   6.752   3.379   8.189
22499WAT      O67738   4.508   2.366   4.253
22499WAT     H167739   4.411   2.392   4.254
22499WAT     H267740   4.559   2.429   4.194
22500WAT      O67741   2.537   2.765   0.905
22500WAT     H167742   2.535   2.684   0.964
22500WAT     H267743   2.631   2.782   0.873
22501WAT      O67744   7.000   8.627   5.661
22501WAT     H167745   7.041   8.627   5.570
22501WAT     H267746   7.036   8.551   5.715
22502WAT      O67747   2.156   8.493   2.519
22502WAT     H167748   2.120   8.576   2.477
22502WAT     H267749   2.224   8.452   2.458
22503WAT      O67750   8.821   3.104   6.236
22503WAT     H167751   8.855   3.039   6.304
22503WAT     H267752   8.811   3.194   6.278
22504WAT      O67753   5.350   3.118   7.736
22504WAT     H167754   5.444   3.147   7.717
22504WAT     H267755   5.315   3.067   7.658
22505WAT      O67756   8.582   4.917   5.256
22505WAT     H167757   8.579   4.965   5.168
22505WAT     H267758   8.659   4.853   5.256
22506WAT      O67759   6.655   7.938   7.217
22506WAT     H167760   6.599   7.910   7.138
22506WAT     H267761   6.605   8.007   7.270
22507WAT      O67762   1.383   8.486   7.271
22507WAT     H167763   1.379   8.423   7.193
22507WAT     H267764   1.429   8.441   7.348
22508WAT      O67765   9.165   3.480   6.451
22508WAT     H167766   9.239   3.482   6.384
22508WAT     H267767   9.115   3.567   6.448
22509WAT      O67768   7.404   0.348   8.449
22509WAT     H167769   7.349   0.279   8.404
22509WAT     H267770   7.354   0.434   8.452
22510WAT      O67771   0.960   4.767   4.460
22510WAT     H167772   0.919   4.680   4.485
22510WAT     H267773   0.918   4.802   4.377
22511WAT      O67774   2.759   3.238   5.422
22511WAT     H167775   2.659   3.230   5.420
22511WAT     H267776   2.793   3.208   5.512
22512WAT      O67777   5.869   7.403   4.680
22512WAT     H167778   5.866   7.485   4.622
22512WAT     H267779   5.798   7.410   4.750
22513WAT      O67780   8.601   0.186   3.306
22513WAT     H167781   8.619   0.233   3.219
22513WAT     H267782   8.511   0.211   3.340
22514WAT      O67783   3.409   0.086   6.083
22514WAT     H167784   3.336   0.018   6.071
22514WAT     H267785   3.478   0.073   6.012
22515WAT      O67786   9.485   2.862   7.162
22515WAT     H167787   9.554   2.818   7.220
22515WAT     H267788   9.445   2.939   7.211
22516WAT      O67789   3.658   4.040   9.420
22516WAT     H167790   3.575   4.095   9.419
22516WAT     H267791   3.681   4.015   9.514
22517WAT      O67792   0.264   7.875   3.922
22517WAT     H167793   0.175   7.831   3.937
22517WAT     H267794   0.278   7.890   3.824
22518WAT      O67795   8.290   4.779   0.335
22518WAT     H167796   8.255   4.711   0.271
22518WAT     H267797   8.386   4.759   0.356
22519WAT      O67798   7.637   9.318   8.240
22519WAT     H167799   7.688   9.391   8.196
22519WAT     H267800   7.546   9.352   8.265
22520WAT      O67801   4.957   6.974   1.463
22520WAT     H167802   5.001   6.894   1.422
22520WAT     H267803   5.015   7.010   1.536
22521WAT      O67804   3.462   1.452   7.404
22521WAT     H167805   3.387   1.445   7.470
22521WAT     H267806   3.473   1.548   7.378
22522WAT      O67807   9.310   4.448   9.103
22522WAT     H167808   9.287   4.363   9.056
22522WAT     H267809   9.249   4.462   9.180
22523WAT      O67810   8.837   8.615   7.150
22523WAT     H167811   8.758   8.574   7.198
22523WAT     H267812   8.856   8.705   7.188
22524WAT      O67813   1.081   1.796   5.202
22524WAT     H167814   1.115   1.890   5.192
22524WAT     H267815   0.983   1.794   5.185
22525WAT      O67816   4.840   8.646   7.257
22525WAT     H167817   4.887   8.721   7.210
22525WAT     H267818   4.754   8.680   7.295
22526WAT      O67819   2.786   0.462   2.878
22526WAT     H167820   2.694   0.430   2.853
22526WAT     H267821   2.830   0.502   2.798
22527WAT      O67822   8.212   7.600   4.117
22527WAT     H167823   8.133   7.661   4.109
22527WAT     H267824   8.279   7.622   4.046
22528WAT      O67825   6.646   4.903   5.712
22528WAT     H167826   6.696   4.831   5.664
22528WAT     H267827   6.662   4.896   5.810
22529WAT      O67828   4.110   8.594   5.542
22529WAT     H167829   4.099   8.539   5.459
22529WAT     H267830   4.026   8.646   5.559
22530WAT      O67831   9.319   7.322   6.904
22530WAT     H167832   9.290   7.237   6.949
22530WAT     H267833   9.258   7.396   6.930
22531WAT      O67834   9.287   2.027   1.580
22531WAT     H167835   9.341   1.953   1.541
22531WAT     H267836   9.307   2.112   1.531
22532WAT      O67837   9.034   5.487   9.123
22532WAT     H167838   9.124   5.498   9.164
22532WAT     H267839   9.025   5.395   9.087
22533WAT      O67840   1.881   2.869   0.279
22533WAT     H167841   1.800   2.912   0.240
22533WAT     H267842   1.920   2.928   0.350
22534WAT      O67843   6.652   8.668   2.755
22534WAT     H167844   6.646   8.762   2.788
22534WAT     H267845   6.740   8.629   2.781
22535WAT      O67846   9.654   1.747   7.276
22535WAT     H167847   9.715   1.788   7.344
22535WAT     H267848   9.559   1.761   7.304
22536WAT      O67849   2.148   4.070   6.180
22536WAT     H167850   2.059   4.098   6.142
22536WAT     H267851   2.169   3.977   6.152
22537WAT      O67852   9.207   1.783   3.917
22537WAT     H167853   9.250   1.769   3.827
22537WAT     H267854   9.113   1.752   3.914
22538WAT      O67855   6.875   4.477   6.435
22538WAT     H167856   6.912   4.460   6.526
22538WAT     H267857   6.819   4.560   6.437
22539WAT      O67858   4.046   1.916   0.556
22539WAT     H167859   3.958   1.900   0.511
22539WAT     H267860   4.079   2.007   0.532
22540WAT      O67861   8.943   1.475   3.420
22540WAT     H167862   8.954   1.430   3.331
22540WAT     H267863   8.849   1.509   3.428
22541WAT      O67864   7.769   5.420   2.804
22541WAT     H167865   7.794   5.517   2.814
22541WAT     H267866   7.689   5.413   2.744
22542WAT      O67867   9.814   4.332   1.739
22542WAT     H167868   9.866   4.336   1.825
22542WAT     H267869   9.827   4.243   1.695
22543WAT      O67870   4.198   8.930   3.648
22543WAT     H167871   4.141   8.866   3.596
22543WAT     H267872   4.182   9.023   3.615
22544WAT      O67873   8.638   8.551   1.155
22544WAT     H167874   8.667   8.460   1.124
22544WAT     H267875   8.577   8.592   1.087
22545WAT      O67876   6.715   0.212   7.247
22545WAT     H167877   6.784   0.285   7.240
22545WAT     H267878   6.743   0.135   7.189
22546WAT      O67879   2.833   1.045   3.727
22546WAT     H167880   2.905   1.087   3.783
22546WAT     H267881   2.750   1.101   3.734
22547WAT      O67882   5.099   0.449   6.343
22547WAT     H167883   5.046   0.529   6.369
22547WAT     H267884   5.190   0.455   6.383
22548WAT      O67885   2.969   0.499   5.634
22548WAT     H167886   2.904   0.429   5.664
22548WAT     H267887   2.944   0.530   5.542
22549WAT      O67888   1.117   5.068   9.276
22549WAT     H167889   1.017   5.065   9.278
22549WAT     H267890   1.149   5.032   9.189
22550WAT      O67891   3.064   5.457   5.302
22550WAT     H167892   2.969   5.427   5.292
22550WAT     H267893   3.071   5.523   5.377
22551WAT      O67894   3.945   0.542   2.150
22551WAT     H167895   3.966   0.449   2.120
22551WAT     H267896   3.929   0.542   2.249
22552WAT      O67897   5.342   1.678   3.771
22552WAT     H167898   5.379   1.662   3.863
22552WAT     H267899   5.351   1.775   3.749
22553WAT      O67900   0.461   7.743   1.633
22553WAT     H167901   0.394   7.682   1.591
22553WAT     H267902   0.469   7.826   1.579
22554WAT      O67903   0.640   3.227   4.044
22554WAT     H167904   0.620   3.241   4.140
22554WAT     H267905   0.726   3.175   4.034
22555WAT      O67906   4.585   7.950   7.337
22555WAT     H167907   4.576   7.882   7.264
22555WAT     H267908   4.675   7.941   7.379
22556WAT      O67909   0.390   3.701   2.569
22556WAT     H167910   0.403   3.666   2.662
22556WAT     H267911   0.293   3.696   2.545
22557WAT      O67912   9.649   6.761   2.754
22557WAT     H167913   9.700   6.717   2.679
22557WAT     H267914   9.709   6.824   2.803
22558WAT      O67915   1.799   4.501   7.657
22558WAT     H167916   1.725   4.568   7.658
22558WAT     H267917   1.886   4.548   7.673
22559WAT      O67918   7.057   2.149   0.689
22559WAT     H167919   7.031   2.145   0.785
22559WAT     H267920   7.103   2.236   0.671
22560WAT      O67921   7.636   8.236   2.457
22560WAT     H167922   7.545   8.251   2.497
22560WAT     H267923   7.679   8.324   2.438
22561WAT      O67924   6.918   0.941   0.680
22561WAT     H167925   6.979   1.003   0.729
22561WAT     H267926   6.858   0.895   0.745
22562WAT      O67927   1.784   0.278   7.300
22562WAT     H167928   1.781   0.183   7.331
22562WAT     H267929   1.852   0.288   7.227
22563WAT      O67930   9.373   0.210   2.567
22563WAT     H167931   9.293   0.265   2.589
22563WAT     H267932   9.381   0.201   2.468
22564WAT      O67933   4.088   6.719   5.160
22564WAT     H167934   4.053   6.707   5.253
22564WAT     H267935   4.178   6.676   5.152
22565WAT      O67936   0.058   5.736   0.858
22565WAT     H167937   0.057   5.650   0.807
22565WAT     H267938  -0.036   5.763   0.880
22566WAT      O67939   8.011   1.593   9.541
22566WAT     H167940   8.024   1.621   9.636
22566WAT     H267941   7.913   1.593   9.519
22567WAT      O67942   4.449   4.121   2.547
22567WAT     H167943   4.460   4.037   2.599
22567WAT     H267944   4.382   4.179   2.592
22568WAT      O67945   9.797   6.675   8.590
22568WAT     H167946   9.725   6.693   8.523
22568WAT     H267947   9.849   6.594   8.563
22569WAT      O67948   5.497   9.100   3.992
22569WAT     H167949   5.594   9.095   3.972
22569WAT     H267950   5.459   9.185   3.955
22570WAT      O67951   7.453   9.599   8.909
22570WAT     H167952   7.439   9.673   8.975
22570WAT     H267953   7.414   9.515   8.945
22571WAT      O67954   0.336   3.862   0.076
22571WAT     H167955   0.247   3.870   0.122
22571WAT     H267956   0.408   3.846   0.143
22572WAT      O67957   2.607   9.021   7.096
22572WAT     H167958   2.636   8.953   7.164
22572WAT     H267959   2.684   9.081   7.074
22573WAT      O67960   6.526   3.528   5.979
22573WAT     H167961   6.538   3.578   6.065
22573WAT     H267962   6.478   3.585   5.913
22574WAT      O67963   2.240   1.939   7.856
22574WAT     H167964   2.265   1.872   7.786
22574WAT     H267965   2.148   1.920   7.889
22575WAT      O67966   2.311   1.262   6.311
22575WAT     H167967   2.341   1.259   6.216
22575WAT     H267968   2.246   1.337   6.322
22576WAT      O67969   8.058   4.468   8.375
22576WAT     H167970   8.155   4.491   8.378
22576WAT     H267971   8.008   4.537   8.323
22577WAT      O67972   6.142   9.697   1.561
22577WAT     H167973   6.203   9.620   1.577
22577WAT     H267974   6.189   9.766   1.505
22578WAT      O67975   8.377   3.927   6.770
22578WAT     H167976   8.369   3.991   6.694
22578WAT     H267977   8.441   3.854   6.746
22579WAT      O67978   6.700   8.869   7.939
22579WAT     H167979   6.763   8.801   7.977
22579WAT     H267980   6.676   8.935   8.010
22580WAT      O67981   4.977   8.819   7.117
22580WAT     H167982   4.923   8.830   7.034
22580WAT     H267983   5.072   8.800   7.093
22581WAT      O67984   9.339   9.474   1.643
22581WAT     H167985   9.417   9.537   1.649
22581WAT     H267986   9.359   9.403   1.575
22582WAT      O67987   8.516   7.599   5.380
22582WAT     H167988   8.475   7.511   5.402
22582WAT     H267989   8.551   7.641   5.464
22583WAT      O67990   6.593   2.087   6.514
22583WAT     H167991   6.638   2.123   6.595
22583WAT     H267992   6.566   1.992   6.530
22584WAT      O67993   0.000   8.926   6.074
22584WAT     H167994   0.019   8.872   5.992
22584WAT     H267995   0.038   9.018   6.062
22585WAT      O67996   0.141   3.125   9.448
22585WAT     H167997   0.097   3.138   9.537
22585WAT     H267998   0.156   3.028   9.432
22586WAT      O67999   6.297   6.596   9.208
22586WAT     H168000   6.392   6.570   9.196
22586WAT     H268001   6.243   6.515   9.232
22587WAT      O68002   6.967   2.851   0.997
22587WAT     H168003   6.990   2.772   0.941
22587WAT     H268004   6.982   2.935   0.945
22588WAT      O68005   2.451   4.930   5.417
22588WAT     H168006   2.353   4.950   5.429
22588WAT     H268007   2.485   4.881   5.497
22589WAT      O68008   7.535   5.404   3.782
22589WAT     H168009   7.475   5.343   3.835
22589WAT     H268010   7.552   5.363   3.692
22590WAT      O68011   6.877   2.897   4.617
22590WAT     H168012   6.812   2.973   4.619
22590WAT     H268013   6.846   2.825   4.680
22591WAT      O68014   8.393   6.939   6.231
22591WAT     H168015   8.326   6.875   6.196
22591WAT     H268016   8.399   6.932   6.331
22592WAT      O68017   8.149   6.007   6.573
22592WAT     H168018   8.199   6.041   6.652
22592WAT     H268019   8.090   6.079   6.538
22593WAT      O68020   2.073   8.421   7.055
22593WAT     H168021   2.163   8.444   7.018
22593WAT     H268022   2.083   8.349   7.123
22594WAT      O68023   7.137   4.102   8.186
22594WAT     H168024   7.038   4.098   8.190
22594WAT     H268025   7.174   4.108   8.279
22595WAT      O68026   6.125   3.862   4.286
22595WAT     H168027   6.102   3.878   4.189
22595WAT     H268028   6.057   3.800   4.326
22596WAT      O68029   0.330   3.311   6.342
22596WAT     H168030   0.351   3.251   6.420
22596WAT     H268031   0.231   3.320   6.334
22597WAT      O68032   3.685   6.425   4.031
22597WAT     H168033   3.634   6.492   3.977
22597WAT     H268034   3.687   6.338   3.982
22598WAT      O68035   6.426   6.456   5.666
22598WAT     H168036   6.456   6.537   5.716
22598WAT     H268037   6.359   6.406   5.721
22599WAT      O68038   2.016   2.381   7.027
22599WAT     H168039   1.945   2.323   7.068
22599WAT     H268040   2.074   2.419   7.099
22600WAT      O68041   2.822   3.342   7.900
22600WAT     H168042   2.909   3.331   7.948
22600WAT     H268043   2.782   3.252   7.883
22601WAT      O68044   0.410   5.194   3.041
22601WAT     H168045   0.482   5.182   3.108
22601WAT     H268046   0.448   5.187   2.949
22602WAT      O68047   2.405   6.411   3.133
22602WAT     H168048   2.351   6.397   3.051
22602WAT     H268049   2.418   6.509   3.148
22603WAT      O68050   9.403   0.836   9.573
22603WAT     H168051   9.385   0.902   9.645
22603WAT     H268052   9.325   0.774   9.564
22604WAT      O68053   8.492   0.379   6.210
22604WAT     H168054   8.562   0.441   6.247
22604WAT     H268055   8.490   0.295   6.263
22605WAT      O68056   2.544   8.125   0.003
22605WAT     H168057   2.604   8.052  -0.029
22605WAT     H268058   2.582   8.164   0.087
22606WAT      O68059   8.405   9.525   4.492
22606WAT     H168060   8.373   9.604   4.544
22606WAT     H268061   8.395   9.442   4.547
22607WAT      O68062   5.686   5.357   0.160
22607WAT     H168063   5.597   5.354   0.206
22607WAT     H268064   5.752   5.404   0.219
22608WAT      O68065   9.012   5.782   6.096
22608WAT     H168066   9.008   5.882   6.092
22608WAT     H268067   9.091   5.750   6.044
22609WAT      O68068   9.713   3.512   8.442
22609WAT     H168069   9.757   3.568   8.372
22609WAT     H268070   9.780   3.489   8.513
22610WAT      O68071   9.760   9.138   2.732
22610WAT     H168072   9.684   9.073   2.741
22610WAT     H268073   9.738   9.207   2.664
22611WAT      O68074   2.751   8.590   2.392
22611WAT     H168075   2.793   8.502   2.369
22611WAT     H268076   2.815   8.644   2.446
22612WAT      O68077   5.848   3.542   7.649
22612WAT     H168078   5.942   3.514   7.633
22612WAT     H268079   5.837   3.638   7.625
22613WAT      O68080   0.210   6.192   9.861
22613WAT     H168081   0.305   6.163   9.860
22613WAT     H268082   0.193   6.247   9.943
22614WAT      O68083   4.071   3.861   0.769
22614WAT     H168084   4.126   3.794   0.719
22614WAT     H268085   4.113   3.879   0.858
22615WAT      O68086   9.000   5.130   5.507
22615WAT     H168087   9.012   5.054   5.443
22615WAT     H268088   8.968   5.211   5.457
22616WAT      O68089   3.443   1.717   6.083
22616WAT     H168090   3.413   1.626   6.054
22616WAT     H268091   3.511   1.752   6.018
22617WAT      O68092   0.421   4.594   9.505
22617WAT     H168093   0.468   4.564   9.588
22617WAT     H268094   0.333   4.634   9.529
22618WAT      O68095   5.673   5.329   6.693
22618WAT     H168096   5.737   5.292   6.625
22618WAT     H268097   5.712   5.412   6.733
22619WAT      O68098   4.000   8.539   9.047
22619WAT     H168099   3.925   8.595   9.010
22619WAT     H268100   3.974   8.502   9.135
22620WAT      O68101   3.371   4.047   4.448
22620WAT     H168102   3.465   4.071   4.427
22620WAT     H268103   3.332   3.994   4.372
22621WAT      O68104   3.254   2.199   1.558
22621WAT     H168105   3.259   2.232   1.464
22621WAT     H268106   3.177   2.137   1.569
22622WAT      O68107   4.091   8.976   6.928
22622WAT     H168108   4.089   8.920   6.845
22622WAT     H268109   4.031   8.935   6.997
22623WAT      O68110   4.160   7.201   2.918
22623WAT     H168111   4.249   7.183   2.878
22623WAT     H268112   4.170   7.225   3.015
22624WAT      O68113   3.569   6.385   5.572
22624WAT     H168114   3.572   6.338   5.661
22624WAT     H268115   3.482   6.433   5.563
22625WAT      O68116   0.016   9.523   1.878
22625WAT     H168117   0.101   9.514   1.825
22625WAT     H268118   0.037   9.518   1.975
22626WAT      O68119   5.059   3.075   6.305
22626WAT     H168120   5.060   3.028   6.217
22626WAT     H268121   5.062   3.174   6.291
22627WAT      O68122   8.230   8.314   6.295
22627WAT     H168123   8.165   8.253   6.339
22627WAT     H268124   8.183   8.369   6.226
22628WAT      O68125   8.797   8.611   3.258
22628WAT     H168126   8.855   8.668   3.316
22628WAT     H268127   8.851   8.571   3.184
22629WAT      O68128   9.062   9.777   6.252
22629WAT     H168129   9.155   9.787   6.215
22629WAT     H268130   8.996   9.817   6.189
22630WAT      O68131   8.666   2.422   2.083
22630WAT     H168132   8.658   2.324   2.067
22630WAT     H268133   8.697   2.467   1.999
22631WAT      O68134   5.934   1.881   4.275
22631WAT     H168135   6.010   1.897   4.338
22631WAT     H268136   5.894   1.968   4.247
22632WAT      O68137   5.652   1.003   8.217
22632WAT     H168138   5.629   1.058   8.297
22632WAT     H268139   5.662   1.064   8.138
22633WAT      O68140   3.741   8.416   2.568
22633WAT     H168141   3.652   8.421   2.613
22633WAT     H268142   3.811   8.389   2.634
22634WAT      O68143   3.741   3.748   1.631
22634WAT     H168144   3.723   3.676   1.564
22634WAT     H268145   3.671   3.819   1.623
22635WAT      O68146   3.014   1.023   7.048
22635WAT     H168147   2.975   1.003   6.958
22635WAT     H268148   3.089   1.087   7.039
22636WAT      O68149   0.407   0.932   3.387
22636WAT     H168150   0.395   0.962   3.292
22636WAT     H268151   0.370   1.002   3.449
22637WAT      O68152   7.915   8.980   3.061
22637WAT     H168153   7.937   9.059   3.118
22637WAT     H268154   7.829   8.997   3.013
22638WAT      O68155   9.735   7.994   6.918
22638WAT     H168156   9.672   7.994   6.996
22638WAT     H268157   9.755   7.900   6.892
22639WAT      O68158   0.347   8.263   2.861
22639WAT     H168159   0.447   8.275   2.859
22639WAT     H268160   0.322   8.185   2.803
22640WAT      O68161   2.216   5.601   3.765
22640WAT     H168162   2.203   5.699   3.747
22640WAT     H268163   2.274   5.562   3.694
22641WAT      O68164   2.756   5.351   3.272
22641WAT     H168165   2.751   5.332   3.370
22641WAT     H268166   2.731   5.268   3.221
22642WAT      O68167   0.389   7.109   8.183
22642WAT     H168168   0.438   7.163   8.251
22642WAT     H268169   0.425   7.128   8.092
22643WAT      O68170   2.542   9.207   3.455
22643WAT     H168171   2.459   9.244   3.497
22643WAT     H268172   2.620   9.225   3.514
22644WAT      O68173   6.797   2.703   4.820
22644WAT     H168174   6.836   2.613   4.803
22644WAT     H268175   6.697   2.697   4.821
22645WAT      O68176   1.840   8.691   3.929
22645WAT     H168177   1.861   8.636   4.009
22645WAT     H268178   1.884   8.652   3.848
22646WAT      O68179   8.234   9.577   0.670
22646WAT     H168180   8.191   9.507   0.727
22646WAT     H268181   8.206   9.564   0.575
22647WAT      O68182   4.565   7.845   4.963
22647WAT     H168183   4.535   7.874   5.054
22647WAT     H268184   4.649   7.893   4.939
22648WAT      O68185   4.349   6.470   2.632
22648WAT     H168186   4.349   6.370   2.629
22648WAT     H268187   4.255   6.503   2.629
22649WAT      O68188   0.629   5.778   1.215
22649WAT     H168189   0.614   5.734   1.304
22649WAT     H268190   0.620   5.877   1.225
22650WAT      O68191   1.136   0.048   9.119
22650WAT     H168192   1.140  -0.007   9.203
22650WAT     H268193   1.087  -0.003   9.049
22651WAT      O68194   6.397   1.245   3.421
22651WAT     H168195   6.414   1.315   3.352
22651WAT     H268196   6.301   1.248   3.449
22652WAT      O68197   9.069   5.417   0.165
22652WAT     H168198   9.166   5.394   0.170
22652WAT     H268199   9.033   5.394   0.075
22653WAT      O68200   4.993   4.448   5.116
22653WAT     H168201   4.997   4.482   5.022
22653WAT     H268202   4.908   4.397   5.130
22654WAT      O68203   6.390   2.285   9.596
22654WAT     H168204   6.434   2.324   9.516
22654WAT     H268205   6.321   2.348   9.631
22655WAT      O68206   4.276   6.320   2.212
22655WAT     H168207   4.355   6.276   2.170
22655WAT     H268208   4.241   6.261   2.285
22656WAT      O68209   5.590   8.116   6.867
22656WAT     H168210   5.493   8.105   6.889
22656WAT     H268211   5.600   8.182   6.792
22657WAT      O68212   1.522   1.407   0.120
22657WAT     H168213   1.620   1.405   0.139
22657WAT     H268214   1.500   1.340   0.050
22658WAT      O68215   7.674   5.749   8.992
22658WAT     H168216   7.634   5.687   8.924
22658WAT     H268217   7.761   5.784   8.957
22659WAT      O68218   5.516   5.064   3.769
22659WAT     H168219   5.471   4.975   3.771
22659WAT     H268220   5.490   5.116   3.850
22660WAT      O68221   1.700   5.928   3.096
22660WAT     H168222   1.751   5.860   3.043
22660WAT     H268223   1.745   6.017   3.088
22661WAT      O68224   6.078   0.873   8.822
22661WAT     H168225   6.079   0.785   8.871
22661WAT     H268226   6.169   0.892   8.786
22662WAT      O68227   3.594   5.613   2.062
22662WAT     H168228   3.581   5.614   1.963
22662WAT     H268229   3.573   5.703   2.100
22663WAT      O68230   9.379   7.895   8.942
22663WAT     H168231   9.467   7.864   8.904
22663WAT     H268232   9.306   7.878   8.876
22664WAT      O68233   5.911   1.799   0.295
22664WAT     H168234   5.867   1.756   0.216
22664WAT     H268235   5.981   1.864   0.264
22665WAT      O68236   4.873   9.732   4.593
22665WAT     H168237   4.798   9.713   4.530
22665WAT     H268238   4.849   9.697   4.684
22666WAT      O68239   3.715   8.016   7.713
22666WAT     H168240   3.746   7.955   7.786
22666WAT     H268241   3.726   8.111   7.742
22667WAT      O68242   7.543   9.447   3.053
22667WAT     H168243   7.639   9.464   3.030
22667WAT     H268244   7.516   9.507   3.128
22668WAT      O68245   5.164   0.786   9.193
22668WAT     H168246   5.083   0.835   9.161
22668WAT     H268247   5.222   0.762   9.115
22669WAT      O68248   8.299   9.762   4.633
22669WAT     H168249   8.237   9.818   4.688
22669WAT     H268250   8.350   9.821   4.570
22670WAT      O68251   9.604   0.997   8.644
22670WAT     H168252   9.603   1.097   8.644
22670WAT     H268253   9.511   0.963   8.661
22671WAT      O68254   6.025   5.672   5.617
22671WAT     H168255   6.066   5.760   5.643
22671WAT     H268256   6.025   5.663   5.518
22672WAT      O68257   6.541   5.307   1.671
22672WAT     H168258   6.534   5.207   1.668
22672WAT     H268259   6.575   5.340   1.583
22673WAT      O68260   3.658   2.825   4.209
22673WAT     H168261   3.729   2.895   4.201
22673WAT     H268262   3.581   2.849   4.150
22674WAT      O68263   7.276   8.659   1.529
22674WAT     H168264   7.198   8.711   1.564
22674WAT     H268265   7.259   8.561   1.540
22675WAT      O68266   4.907   9.345   3.559
22675WAT     H168267   4.975   9.273   3.541
22675WAT     H268268   4.816   9.304   3.565
22676WAT      O68269   1.241   6.582   4.225
22676WAT     H168270   1.153   6.541   4.249
22676WAT     H268271   1.232   6.682   4.223
22677WAT      O68272   1.505   8.005   5.925
22677WAT     H168273   1.577   8.012   5.855
22677WAT     H268274   1.452   7.922   5.910
22678WAT      O68275   6.552   0.707   9.594
22678WAT     H168276   6.644   0.714   9.555
22678WAT     H268277   6.508   0.797   9.594
22679WAT      O68278   1.318   9.760   7.588
22679WAT     H168279   1.356   9.687   7.645
22679WAT     H268280   1.224   9.780   7.617
22680WAT      O68281   2.616   7.808   1.728
22680WAT     H168282   2.708   7.797   1.690
22680WAT     H268283   2.552   7.750   1.677
22681WAT      O68284   8.462   5.503   0.865
22681WAT     H168285   8.516   5.503   0.948
22681WAT     H268286   8.372   5.544   0.883
22682WAT      O68287   2.527   6.264   8.763
22682WAT     H168288   2.625   6.244   8.757
22682WAT     H268289   2.513   6.362   8.768
22683WAT      O68290   8.519   6.095   2.645
22683WAT     H168291   8.474   6.117   2.559
22683WAT     H268292   8.608   6.141   2.650
22684WAT      O68293   7.677   9.019   9.090
22684WAT     H168294   7.728   9.101   9.064
22684WAT     H268295   7.584   9.025   9.056
22685WAT      O68296   6.495   6.709   5.849
22685WAT     H168297   6.415   6.766   5.867
22685WAT     H268298   6.559   6.759   5.790
22686WAT      O68299   9.139   2.812   3.596
22686WAT     H168300   9.070   2.802   3.525
22686WAT     H268301   9.227   2.780   3.562
22687WAT      O68302   7.686   2.172   8.088
22687WAT     H168303   7.601   2.140   8.046
22687WAT     H268304   7.668   2.198   8.183
22688WAT      O68305   1.604   0.372   8.364
22688WAT     H168306   1.651   0.287   8.386
22688WAT     H268307   1.535   0.354   8.294
22689WAT      O68308   8.511   7.753   3.583
22689WAT     H168309   8.570   7.834   3.589
22689WAT     H268310   8.489   7.734   3.488
22690WAT      O68311   4.838   8.658   8.067
22690WAT     H168312   4.763   8.640   8.131
22690WAT     H268313   4.925   8.635   8.111
22691WAT      O68314   7.874   8.852   8.116
22691WAT     H168315   7.954   8.869   8.058
22691WAT     H268316   7.836   8.939   8.147
22692WAT      O68317   6.043   1.673   9.204
22692WAT     H168318   5.970   1.738   9.179
22692WAT     H268319   6.131   1.721   9.206
22693WAT      O68320   0.100   2.093   6.240
22693WAT     H168321   0.147   2.165   6.291
22693WAT     H268322   0.158   2.062   6.165
22694WAT      O68323   7.933   4.306   0.190
22694WAT     H168324   7.926   4.300   0.290
22694WAT     H268325   8.015   4.358   0.166
22695WAT      O68326   0.319   8.619   7.957
22695WAT     H168327   0.290   8.642   8.050
22695WAT     H268328   0.418   8.626   7.950
22696WAT      O68329   2.030   6.835   8.196
22696WAT     H168330   1.980   6.910   8.239
22696WAT     H268331   2.095   6.797   8.261
22697WAT      O68332   6.994   3.150   9.770
22697WAT     H168333   7.042   3.096   9.700
22697WAT     H268334   7.047   3.232   9.790
22698WAT      O68335   5.316   8.758   7.657
22698WAT     H168336   5.245   8.762   7.728
22698WAT     H268337   5.334   8.851   7.623
22699WAT      O68338   7.187   5.028   6.829
22699WAT     H168339   7.119   5.067   6.767
22699WAT     H268340   7.142   4.975   6.900
22700WAT      O68341   8.986   6.255   9.679
22700WAT     H168342   8.925   6.213   9.612
22700WAT     H268343   9.081   6.235   9.655
22701WAT      O68344   0.247   3.369   4.482
22701WAT     H168345   0.226   3.271   4.483
22701WAT     H268346   0.213   3.410   4.566
22702WAT      O68347   1.035   8.051   4.319
22702WAT     H168348   1.072   7.982   4.383
22702WAT     H268349   0.938   8.065   4.338
22703WAT      O68350   1.267   4.669   0.167
22703WAT     H168351   1.200   4.685   0.240
22703WAT     H268352   1.298   4.574   0.170
22704WAT      O68353   5.298   8.322   4.987
22704WAT     H168354   5.210   8.313   4.941
22704WAT     H268355   5.287   8.294   5.083
22705WAT      O68356   4.532   1.104   1.075
22705WAT     H168357   4.559   1.158   0.994
22705WAT     H268358   4.495   1.165   1.145
22706WAT      O68359   1.376   3.965   3.681
22706WAT     H168360   1.399   4.050   3.729
22706WAT     H268361   1.415   3.968   3.589
22707WAT      O68362   5.694   5.351   2.708
22707WAT     H168363   5.601   5.357   2.745
22707WAT     H268364   5.693   5.381   2.613
22708WAT      O68365   0.852   7.401   0.735
22708WAT     H168366   0.763   7.355   0.742
22708WAT     H268367   0.864   7.462   0.813
22709WAT      O68368   9.263   4.468   6.466
22709WAT     H168369   9.299   4.386   6.422
22709WAT     H268370   9.250   4.540   6.398
22710WAT      O68371   5.916   7.228   5.085
22710WAT     H168372   5.881   7.157   5.024
22710WAT     H268373   5.868   7.223   5.173
22711WAT      O68374   7.887   7.638   7.878
22711WAT     H168375   7.814   7.573   7.896
22711WAT     H268376   7.947   7.603   7.806
22712WAT      O68377   7.314   8.496   4.826
22712WAT     H168378   7.376   8.537   4.759
22712WAT     H268379   7.366   8.471   4.908
22713WAT      O68380   3.869   8.735   7.588
22713WAT     H168381   3.774   8.764   7.602
22713WAT     H268382   3.898   8.759   7.496
22714WAT      O68383   9.221   3.775   6.562
22714WAT     H168384   9.246   3.866   6.597
22714WAT     H268385   9.158   3.786   6.485
22715WAT      O68386   7.831   6.471   5.576
22715WAT     H168387   7.778   6.462   5.661
22715WAT     H268388   7.848   6.380   5.538
22716WAT      O68389   7.877   0.194   6.631
22716WAT     H168390   7.940   0.178   6.555
22716WAT     H268391   7.918   0.258   6.696
22717WAT      O68392   4.928   9.511   5.537
22717WAT     H168393   4.867   9.439   5.568
22717WAT     H268394   5.015   9.472   5.508
22718WAT      O68395   1.306   4.466   3.846
22718WAT     H168396   1.371   4.445   3.773
22718WAT     H268397   1.240   4.391   3.853
22719WAT      O68398   9.611   7.042   3.630
22719WAT     H168399   9.679   7.009   3.564
22719WAT     H268400   9.640   7.130   3.666
22720WAT      O68401   3.254   7.552   9.692
22720WAT     H168402   3.245   7.591   9.601
22720WAT     H268403   3.204   7.465   9.697
22721WAT      O68404   2.526   4.218   7.973
22721WAT     H168405   2.608   4.268   8.002
22721WAT     H268406   2.547   4.120   7.969
22722WAT      O68407   6.458   7.366   5.134
22722WAT     H168408   6.540   7.382   5.078
22722WAT     H268409   6.380   7.413   5.093
22723WAT      O68410   9.787   6.255   6.994
22723WAT     H168411   9.784   6.216   6.902
22723WAT     H268412   9.696   6.252   7.035
22724WAT      O68413   0.525   2.936   5.736
22724WAT     H168414   0.519   2.847   5.781
22724WAT     H268415   0.513   3.008   5.804
22725WAT      O68416   8.107   0.416   6.765
22725WAT     H168417   8.031   0.390   6.824
22725WAT     H268418   8.186   0.357   6.783
22726WAT      O68419   8.160   6.184   3.936
22726WAT     H168420   8.185   6.201   3.841
22726WAT     H268421   8.060   6.188   3.945
22727WAT      O68422   1.366   7.202   1.987
22727WAT     H168423   1.441   7.265   2.003
22727WAT     H268424   1.300   7.243   1.925
22728WAT      O68425   7.298   9.640   7.866
22728WAT     H168426   7.232   9.678   7.800
22728WAT     H268427   7.383   9.692   7.861
22729WAT      O68428   5.449   0.705   1.394
22729WAT     H168429   5.409   0.619   1.425
22729WAT     H268430   5.388   0.780   1.414
22730WAT      O68431   3.387   5.339   2.278
22730WAT     H168432   3.445   5.379   2.349
22730WAT     H268433   3.333   5.411   2.235
22731WAT      O68434   8.177   2.612   3.201
22731WAT     H168435   8.166   2.515   3.222
22731WAT     H268436   8.209   2.661   3.282
22732WAT      O68437   5.997   8.777   6.166
22732WAT     H168438   6.018   8.694   6.218
22732WAT     H268439   6.078   8.804   6.113
22733WAT      O68440   6.862   6.318   6.549
22733WAT     H168441   6.952   6.339   6.511
22733WAT     H268442   6.869   6.241   6.613
22734WAT      O68443   6.323   1.915   8.270
22734WAT     H168444   6.249   1.917   8.338
22734WAT     H268445   6.343   1.820   8.246
22735WAT      O68446   2.055   7.933   8.524
22735WAT     H168447   2.099   7.971   8.443
22735WAT     H268448   2.115   7.865   8.566
22736WAT      O68449   2.929   5.947   0.254
22736WAT     H168450   2.884   5.948   0.343
22736WAT     H268451   2.967   6.037   0.234
22737WAT      O68452   1.675   7.807   1.012
22737WAT     H168453   1.711   7.743   0.944
22737WAT     H268454   1.749   7.866   1.044
22738WAT      O68455   7.838   2.087   3.626
22738WAT     H168456   7.923   2.036   3.617
22738WAT     H268457   7.792   2.091   3.537
22739WAT      O68458   7.094   5.862   8.255
22739WAT     H168459   7.159   5.803   8.303
22739WAT     H268460   7.080   5.946   8.308
22740WAT      O68461   3.374   1.693   6.823
22740WAT     H168462   3.355   1.790   6.834
22740WAT     H268463   3.456   1.682   6.766
22741WAT      O68464   3.753   2.790   3.796
22741WAT     H168465   3.838   2.742   3.818
22741WAT     H268466   3.675   2.732   3.820
22742WAT      O68467   7.579   3.954   8.706
22742WAT     H168468   7.678   3.937   8.699
22742WAT     H268469   7.564   4.053   8.717
22743WAT      O68470   1.188   8.268   4.334
22743WAT     H168471   1.156   8.174   4.325
22743WAT     H268472   1.115   8.324   4.373
22744WAT      O68473   2.698   5.403   9.740
22744WAT     H168474   2.677   5.482   9.683
22744WAT     H268475   2.614   5.371   9.785
22745WAT      O68476   2.530   2.446   4.185
22745WAT     H168477   2.622   2.474   4.158
22745WAT     H268478   2.504   2.363   4.134
22746WAT      O68479   0.237   9.194   9.034
22746WAT     H168480   0.202   9.106   9.065
22746WAT     H268481   0.209   9.265   9.099
22747WAT      O68482   5.432   5.121   1.128
22747WAT     H168483   5.368   5.045   1.120
22747WAT     H268484   5.393   5.193   1.186
22748WAT      O68485   7.039   2.656   9.877
22748WAT     H168486   7.051   2.557   9.868
22748WAT     H268487   6.949   2.682   9.842
22749WAT      O68488   9.673   3.047   3.016
22749WAT     H168489   9.649   2.985   3.091
22749WAT     H268490   9.662   3.142   3.046
22750WAT      O68491   9.195   5.950   1.110
22750WAT     H168492   9.209   6.048   1.100
22750WAT     H268493   9.205   5.906   1.021
22751WAT      O68494   6.076   3.275   2.320
22751WAT     H168495   6.109   3.345   2.384
22751WAT     H268496   5.991   3.306   2.277
22752WAT      O68497   6.753   7.938   4.760
22752WAT     H168498   6.785   8.033   4.760
22752WAT     H268499   6.771   7.897   4.849
22753WAT      O68500   0.223   0.672   4.561
22753WAT     H168501   0.197   0.577   4.579
22753WAT     H268502   0.211   0.691   4.464
22754WAT      O68503   2.201   4.543   4.950
22754WAT     H168504   2.111   4.534   4.908
22754WAT     H268505   2.193   4.534   5.049
22755WAT      O68506   3.291   4.348   0.123
22755WAT     H168507   3.370   4.387   0.169
22755WAT     H268508   3.240   4.291   0.188
22756WAT      O68509   9.563   6.237   0.455
22756WAT     H168510   9.531   6.325   0.491
22756WAT     H268511   9.514   6.163   0.500
22757WAT      O68512   8.346   6.413   7.531
22757WAT     H168513   8.252   6.446   7.524
22757WAT     H268514   8.346   6.314   7.547
22758WAT      O68515   0.998   3.319   0.001
22758WAT     H168516   0.952   3.290  -0.084
22758WAT     H268517   0.965   3.263   0.077
22759WAT      O68518   2.830   2.531   7.451
22759WAT     H168519   2.836   2.624   7.416
22759WAT     H268520   2.864   2.529   7.545
22760WAT      O68521   9.231   6.926   0.086
22760WAT     H168522   9.207   7.019   0.059
22760WAT     H268523   9.307   6.928   0.150
22761WAT      O68524   1.925   4.515   0.468
22761WAT     H168525   1.910   4.568   0.551
22761WAT     H268526   1.837   4.490   0.428
22762WAT      O68527   0.891   8.251   4.131
22762WAT     H168528   0.797   8.222   4.151
22762WAT     H268529   0.890   8.343   4.091
22763WAT      O68530   0.102   9.681   6.858
22763WAT     H168531   0.190   9.636   6.877
22763WAT     H268532   0.071   9.728   6.940
22764WAT      O68533   2.746   6.164   9.282
22764WAT     H168534   2.709   6.111   9.358
22764WAT     H268535   2.790   6.247   9.318
22765WAT      O68536   5.835   2.728   9.449
22765WAT     H168537   5.914   2.717   9.509
22765WAT     H268538   5.821   2.645   9.396
22766WAT      O68539   9.796   0.028   6.384
22766WAT     H168540   9.795  -0.022   6.297
22766WAT     H268541   9.863  -0.013   6.446
22767WAT      O68542   8.543   2.271   4.379
22767WAT     H168543   8.545   2.276   4.479
22767WAT     H268544   8.558   2.177   4.349
22768WAT      O68545   4.206   0.524   8.528
22768WAT     H168546   4.107   0.522   8.516
22768WAT     H268547   4.239   0.431   8.543
22769WAT      O68548   6.072   1.641   5.832
22769WAT     H168549   6.039   1.723   5.879
22769WAT     H268550   6.097   1.663   5.738
22770WAT      O68551   1.923   2.357   6.423
22770WAT     H168552   1.843   2.297   6.409
22770WAT     H268553   1.955   2.390   6.334
22771WAT      O68554   3.157   5.236   7.174
22771WAT     H168555   3.221   5.281   7.112
22771WAT     H268556   3.148   5.140   7.148
22772WAT      O68557   0.153   8.096   1.565
22772WAT     H168558   0.183   8.006   1.596
22772WAT     H268559   0.129   8.152   1.644
22773WAT      O68560   4.189   0.848   5.047
22773WAT     H168561   4.121   0.913   5.081
22773WAT     H268562   4.161   0.815   4.956
22774WAT      O68563   7.590   3.955   9.462
22774WAT     H168564   7.507   3.973   9.515
22774WAT     H268565   7.661   3.919   9.523
22775WAT      O68566   1.571   3.178   1.770
22775WAT     H168567   1.503   3.105   1.774
22775WAT     H268568   1.650   3.153   1.825
22776WAT      O68569   8.098   7.194   7.833
22776WAT     H168570   8.144   7.277   7.863
22776WAT     H268571   8.000   7.203   7.849
22777WAT      O68572   7.936   0.332   2.825
22777WAT     H168573   7.983   0.395   2.764
22777WAT     H268574   7.882   0.385   2.891
22778WAT      O68575   0.356   3.366   8.799
22778WAT     H168576   0.308   3.397   8.881
22778WAT     H268577   0.440   3.420   8.787
22779WAT      O68578   1.202   0.978   8.776
22779WAT     H168579   1.121   0.925   8.752
22779WAT     H268580   1.276   0.916   8.802
22780WAT      O68581   5.738   0.630   6.413
22780WAT     H168582   5.734   0.603   6.317
22780WAT     H268583   5.808   0.576   6.459
22781WAT      O68584   8.547   2.380   2.564
22781WAT     H168585   8.505   2.289   2.558
22781WAT     H268586   8.613   2.391   2.489
22782WAT      O68587   2.502   1.856   3.811
22782WAT     H168588   2.535   1.915   3.736
22782WAT     H268589   2.526   1.898   3.898
22783WAT      O68590   7.261   0.123   9.042
22783WAT     H168591   7.238   0.149   8.948
22783WAT     H268592   7.334   0.054   9.041
22784WAT      O68593   7.359   9.801   8.692
22784WAT     H168594   7.338   9.883   8.745
22784WAT     H268595   7.352   9.720   8.750
22785WAT      O68596   1.734   2.482   2.199
22785WAT     H168597   1.785   2.528   2.272
22785WAT     H268598   1.645   2.452   2.234
22786WAT      O68599   2.216   2.625   9.594
22786WAT     H168600   2.208   2.537   9.641
22786WAT     H268601   2.198   2.699   9.659
22787WAT      O68602   8.093   9.192   4.344
22787WAT     H168603   8.005   9.199   4.297
22787WAT     H268604   8.167   9.211   4.281
22788WAT      O68605   2.679   1.438   8.078
22788WAT     H168606   2.767   1.401   8.106
22788WAT     H268607   2.611   1.422   8.150
22789WAT      O68608   3.366   5.289   3.391
22789WAT     H168609   3.364   5.224   3.467
22789WAT     H268610   3.378   5.382   3.427
22790WAT      O68611   0.921   7.681   8.918
22790WAT     H168612   0.943   7.589   8.950
22790WAT     H268613   0.943   7.747   8.990
22791WAT      O68614   2.701   6.158   5.009
22791WAT     H168615   2.721   6.066   5.042
22791WAT     H268616   2.776   6.190   4.951
22792WAT      O68617   4.723   2.907   0.624
22792WAT     H168618   4.795   2.974   0.607
22792WAT     H268619   4.634   2.948   0.603
22793WAT      O68620   5.894   1.906   8.203
22793WAT     H168621   5.827   1.858   8.260
22793WAT     H268622   5.932   1.842   8.136
22794WAT      O68623   0.717   7.150   3.492
22794WAT     H168624   0.699   7.165   3.589
22794WAT     H268625   0.668   7.219   3.438
22795WAT      O68626   0.302   9.272   3.202
22795WAT     H168627   0.377   9.270   3.135
22795WAT     H268628   0.338   9.251   3.293
22796WAT      O68629   5.265   2.473   0.313
22796WAT     H168630   5.225   2.558   0.278
22796WAT     H268631   5.196   2.401   0.313
22797WAT      O68632   6.009   6.748   8.484
22797WAT     H168633   5.972   6.772   8.394
22797WAT     H268634   6.063   6.824   8.520
22798WAT      O68635   5.212   8.684   6.233
22798WAT     H168636   5.245   8.771   6.269
22798WAT     H268637   5.259   8.608   6.280
22799WAT      O68638   3.204   6.092   1.002
22799WAT     H168639   3.182   6.069   1.096
22799WAT     H268640   3.211   6.191   0.992
22800WAT      O68641   3.862   7.952   7.092
22800WAT     H168642   3.851   7.864   7.139
22800WAT     H268643   3.958   7.980   7.094
22801WAT      O68644   1.742   8.856   2.806
22801WAT     H168645   1.694   8.907   2.736
22801WAT     H268646   1.715   8.759   2.802
22802WAT      O68647   7.868   1.731   6.449
22802WAT     H168648   7.826   1.767   6.366
22802WAT     H268649   7.958   1.773   6.461
22803WAT      O68650   7.373   6.606   7.114
22803WAT     H168651   7.407   6.654   7.195
22803WAT     H268652   7.297   6.547   7.140
22804WAT      O68653   3.905   4.175   8.801
22804WAT     H168654   3.946   4.085   8.813
22804WAT     H268655   3.806   4.169   8.813
22805WAT      O68656   6.771   8.979   8.432
22805WAT     H168657   6.807   8.953   8.521
22805WAT     H268658   6.741   8.896   8.383
22806WAT      O68659   8.796   4.711   8.495
22806WAT     H168660   8.724   4.654   8.454
22806WAT     H268661   8.765   4.806   8.497
22807WAT      O68662   1.502   7.602   1.970
22807WAT     H168663   1.542   7.524   2.017
22807WAT     H268664   1.450   7.571   1.890
22808WAT      O68665   5.732   0.669   4.304
22808WAT     H168666   5.808   0.631   4.355
22808WAT     H268667   5.669   0.715   4.367
22809WAT      O68668   3.680   4.313   7.089
22809WAT     H168669   3.751   4.255   7.048
22809WAT     H268670   3.657   4.279   7.180
22810WAT      O68671   6.779   4.027   5.779
22810WAT     H168672   6.757   3.961   5.851
22810WAT     H268673   6.845   3.988   5.716
22811WAT      O68674   7.128   1.054   5.903
22811WAT     H168675   7.111   1.128   5.838
22811WAT     H268676   7.052   0.989   5.901
22812WAT      O68677   0.628   6.457   3.656
22812WAT     H168678   0.633   6.460   3.755
22812WAT     H268679   0.564   6.526   3.623
22813WAT      O68680   7.511   7.762   2.055
22813WAT     H168681   7.574   7.833   2.023
22813WAT     H268682   7.452   7.733   1.980
22814WAT      O68683   2.288   9.299   3.598
22814WAT     H168684   2.346   9.285   3.679
22814WAT     H268685   2.202   9.249   3.610
22815WAT      O68686   8.913   3.297   4.044
22815WAT     H168687   8.898   3.203   4.013
22815WAT     H268688   9.004   3.305   4.083
22816WAT      O68689   8.929   5.498   7.133
22816WAT     H168690   8.836   5.512   7.166
22816WAT     H268691   8.951   5.568   7.065
22817WAT      O68692   1.513   3.956   5.682
22817WAT     H168693   1.611   3.939   5.677
22817WAT     H268694   1.489   4.031   5.620
22818WAT      O68695   4.169   4.467   3.496
22818WAT     H168696   4.088   4.525   3.489
22818WAT     H268697   4.243   4.517   3.542
22819WAT      O68698   4.783   0.487   5.271
22819WAT     H168699   4.734   0.423   5.211
22819WAT     H268700   4.755   0.580   5.251
22820WAT      O68701   3.065   1.032   0.570
22820WAT     H168702   2.995   1.040   0.640
22820WAT     H268703   3.031   1.069   0.484
22821WAT      O68704   0.208   6.140   3.682
22821WAT     H168705   0.224   6.098   3.592
22821WAT     H268706   0.271   6.101   3.749
22822WAT      O68707   2.240   3.302   9.134
22822WAT     H168708   2.241   3.276   9.230
22822WAT     H268709   2.157   3.268   9.091
22823WAT      O68710   5.831   7.080   8.968
22823WAT     H168711   5.760   7.032   9.018
22823WAT     H268712   5.921   7.051   9.002
22824WAT      O68713   0.962   8.506   6.236
22824WAT     H168714   1.020   8.482   6.158
22824WAT     H268715   0.893   8.435   6.249
22825WAT      O68716   1.508   5.037   3.161
22825WAT     H168717   1.490   5.050   3.258
22825WAT     H268718   1.560   4.952   3.148
22826WAT      O68719   9.778   8.792   4.024
22826WAT     H168720   9.730   8.855   3.962
22826WAT     H268721   9.748   8.699   4.007
22827WAT      O68722   7.103   6.141   1.553
22827WAT     H168723   7.203   6.147   1.558
22827WAT     H268724   7.074   6.148   1.457
22828WAT      O68725   5.471   6.244   2.034
22828WAT     H168726   5.416   6.161   2.047
22828WAT     H268727   5.517   6.240   1.945
22829WAT      O68728   6.185   3.325   0.572
22829WAT     H168729   6.233   3.353   0.489
22829WAT     H268730   6.202   3.228   0.590
22830WAT      O68731   8.812   8.938   1.590
22830WAT     H168732   8.910   8.944   1.570
22830WAT     H268733   8.793   8.853   1.638
22831WAT      O68734   2.743   7.437   0.907
22831WAT     H168735   2.760   7.409   1.001
22831WAT     H268736   2.828   7.474   0.868
22832WAT      O68737   6.804   1.323   8.649
22832WAT     H168738   6.781   1.407   8.602
22832WAT     H268739   6.722   1.283   8.690
22833WAT      O68740   9.705   6.983   2.544
22833WAT     H168741   9.757   7.053   2.591
22833WAT     H268742   9.607   7.001   2.554
22834WAT      O68743   6.295   6.865   9.260
22834WAT     H168744   6.378   6.920   9.256
22834WAT     H268745   6.311   6.776   9.218
22835WAT      O68746   4.107   0.484   9.481
22835WAT     H168747   4.083   0.543   9.557
22835WAT     H268748   4.164   0.408   9.514
22836WAT      O68749   1.630   1.241   5.026
22836WAT     H168750   1.590   1.270   4.939
22836WAT     H268751   1.721   1.280   5.035
22837WAT      O68752   6.040   5.424   6.655
22837WAT     H168753   6.093   5.405   6.738
22837WAT     H268754   6.062   5.356   6.585
22838WAT      O68755   1.271   0.432   5.916
22838WAT     H168756   1.201   0.377   5.962
22838WAT     H268757   1.260   0.528   5.941
22839WAT      O68758   8.420   3.456   7.656
22839WAT     H168759   8.414   3.531   7.722
22839WAT     H268760   8.515   3.446   7.626
22840WAT      O68761   1.889   7.467   2.627
22840WAT     H168762   1.839   7.381   2.613
22840WAT     H268763   1.931   7.495   2.541
22841WAT      O68764   4.483   7.399   8.006
22841WAT     H168765   4.430   7.369   8.085
22841WAT     H268766   4.472   7.333   7.931
22842WAT      O68767   3.410   1.330   9.733
22842WAT     H168768   3.493   1.365   9.776
22842WAT     H268769   3.392   1.382   9.649
22843WAT      O68770   4.652   4.946   8.386
22843WAT     H168771   4.583   4.958   8.314
22843WAT     H268772   4.610   4.905   8.466
22844WAT      O68773   1.335   1.652   8.142
22844WAT     H168774   1.268   1.724   8.158
22844WAT     H268775   1.329   1.584   8.216
22845WAT      O68776   3.622   7.695   4.168
22845WAT     H168777   3.595   7.634   4.094
22845WAT     H268778   3.711   7.735   4.148
22846WAT      O68779   2.622   3.502   2.237
22846WAT     H168780   2.702   3.562   2.225
22846WAT     H268781   2.650   3.420   2.287
22847WAT      O68782   1.232   4.714   6.254
22847WAT     H168783   1.284   4.666   6.183
22847WAT     H268784   1.193   4.797   6.216
22848WAT      O68785   7.752   8.614   8.023
22848WAT     H168786   7.746   8.606   7.924
22848WAT     H268787   7.809   8.693   8.047
22849WAT      O68788   7.402   9.228   4.657
22849WAT     H168789   7.407   9.171   4.575
22849WAT     H268790   7.487   9.280   4.666
22850WAT      O68791   7.667   0.970   2.571
22850WAT     H168792   7.675   1.070   2.569
22850WAT     H268793   7.573   0.945   2.591
22851WAT      O68794   0.560   7.342   3.359
22851WAT     H168795   0.596   7.434   3.340
22851WAT     H268796   0.492   7.348   3.432
22852WAT      O68797   4.854   4.708   4.387
22852WAT     H168798   4.761   4.684   4.359
22852WAT     H268799   4.881   4.651   4.464
22853WAT      O68800   7.157   7.684   3.287
22853WAT     H168801   7.247   7.674   3.330
22853WAT     H268802   7.169   7.701   3.189
22854WAT      O68803   5.912   2.246   1.897
22854WAT     H168804   5.860   2.212   1.819
22854WAT     H268805   5.849   2.287   1.963
22855WAT      O68806   3.966   1.065   1.034
22855WAT     H168807   4.025   1.024   1.103
22855WAT     H268808   3.871   1.064   1.067
22856WAT      O68809   1.081   7.896   5.958
22856WAT     H168810   0.999   7.838   5.966
22856WAT     H268811   1.070   7.977   6.015
22857WAT      O68812   9.819   5.350   4.818
22857WAT     H168813   9.801   5.316   4.910
22857WAT     H268814   9.854   5.275   4.761
22858WAT      O68815   1.268   5.631   2.027
22858WAT     H168816   1.223   5.551   2.068
22858WAT     H268817   1.213   5.713   2.044
22859WAT      O68818   5.361   0.309   6.034
22859WAT     H168819   5.375   0.227   6.089
22859WAT     H268820   5.264   0.332   6.032
22860WAT      O68821   4.081   2.945   3.521
22860WAT     H168822   4.098   3.040   3.546
22860WAT     H268823   4.036   2.898   3.596
22861WAT      O68824   2.925   8.202   4.137
22861WAT     H168825   2.930   8.288   4.085
22861WAT     H268826   2.869   8.136   4.086
22862WAT      O68827   5.661   1.025   3.958
22862WAT     H168828   5.616   0.936   3.970
22862WAT     H268829   5.607   1.096   4.003
22863WAT      O68830   0.736   8.357   1.289
22863WAT     H168831   0.642   8.366   1.257
22863WAT     H268832   0.736   8.340   1.388
22864WAT      O68833   6.785   7.984   4.309
22864WAT     H168834   6.846   8.019   4.238
22864WAT     H268835   6.804   7.888   4.325
22865WAT      O68836   8.109   3.574   2.817
22865WAT     H168837   8.198   3.584   2.773
22865WAT     H268838   8.121   3.545   2.912
22866WAT      O68839   7.922   3.356   4.571
22866WAT     H168840   7.884   3.433   4.521
22866WAT     H268841   7.857   3.326   4.640
22867WAT      O68842   9.721   2.417   5.013
22867WAT     H168843   9.638   2.362   5.004
22867WAT     H268844   9.799   2.366   4.979
22868WAT      O68845   5.707   8.649   9.692
22868WAT     H168846   5.661   8.709   9.758
22868WAT     H268847   5.688   8.681   9.599
22869WAT      O68848   0.695   4.347   1.774
22869WAT     H168849   0.597   4.363   1.774
22869WAT     H268850   0.714   4.252   1.748
22870WAT      O68851   1.460   2.483   1.885
22870WAT     H168852   1.475   2.562   1.825
22870WAT     H268853   1.545   2.431   1.892
22871WAT      O68854   5.265   8.663   1.936
22871WAT     H168855   5.278   8.743   1.877
22871WAT     H268856   5.177   8.670   1.982
22872WAT      O68857   7.454   3.828   7.329
22872WAT     H168858   7.439   3.924   7.349
22872WAT     H268859   7.412   3.772   7.399
22873WAT      O68860   6.324   5.693   2.373
22873WAT     H168861   6.355   5.750   2.297
22873WAT     H268862   6.328   5.596   2.346
22874WAT      O68863   3.058   9.662   4.438
22874WAT     H168864   3.039   9.565   4.454
22874WAT     H268865   3.031   9.715   4.519
22875WAT      O68866   3.783   5.101   8.666
22875WAT     H168867   3.684   5.113   8.661
22875WAT     H268868   3.817   5.136   8.753
22876WAT      O68869   5.631   4.347   3.879
22876WAT     H168870   5.544   4.396   3.890
22876WAT     H268871   5.636   4.307   3.788
22877WAT      O68872   3.525   8.686   5.263
22877WAT     H168873   3.446   8.638   5.300
22877WAT     H268874   3.582   8.623   5.211
22878WAT      O68875   2.895   6.977   8.517
22878WAT     H168876   2.809   6.927   8.532
22878WAT     H268877   2.888   7.032   8.434
22879WAT      O68878   1.783   5.955   0.625
22879WAT     H168879   1.717   6.031   0.630
22879WAT     H268880   1.858   5.972   0.689
22880WAT      O68881   0.733   5.006   2.321
22880WAT     H168882   0.690   5.000   2.411
22880WAT     H268883   0.810   5.069   2.324
22881WAT      O68884   8.038   1.732   3.971
22881WAT     H168885   7.940   1.714   3.979
22881WAT     H268886   8.063   1.808   4.032
22882WAT      O68887   6.514   1.262   0.699
22882WAT     H168888   6.573   1.183   0.683
22882WAT     H268889   6.421   1.231   0.717
22883WAT      O68890   1.544   9.004   6.710
22883WAT     H168891   1.624   8.949   6.686
22883WAT     H268892   1.548   9.027   6.807
22884WAT      O68893   8.561   3.252   4.367
22884WAT     H168894   8.642   3.302   4.336
22884WAT     H268895   8.544   3.175   4.306
22885WAT      O68896   8.778   1.183   6.807
22885WAT     H168897   8.708   1.219   6.869
22885WAT     H268898   8.838   1.258   6.778
22886WAT      O68899   1.028   9.437   2.952
22886WAT     H168900   0.987   9.448   2.861
22886WAT     H268901   1.013   9.520   3.005
22887WAT      O68902   1.973   0.512   8.734
22887WAT     H168903   1.908   0.502   8.659
22887WAT     H268904   1.954   0.443   8.804
22888WAT      O68905   7.588   3.105   7.509
22888WAT     H168906   7.619   3.176   7.446
22888WAT     H268907   7.571   3.145   7.599
22889WAT      O68908   4.186   2.027   7.427
22889WAT     H168909   4.092   2.020   7.461
22889WAT     H268910   4.215   2.123   7.429
22890WAT      O68911   0.499   8.697   8.944
22890WAT     H168912   0.579   8.637   8.946
22890WAT     H268913   0.435   8.669   9.016
22891WAT      O68914   6.730   3.875   2.316
22891WAT     H168915   6.706   3.778   2.320
22891WAT     H268916   6.723   3.914   2.407
22892WAT      O68917   6.278   9.645   9.469
22892WAT     H168918   6.280   9.725   9.530
22892WAT     H268919   6.251   9.564   9.521
22893WAT      O68920   8.313   9.024   2.955
22893WAT     H168921   8.390   9.049   3.013
22893WAT     H268922   8.264   9.107   2.927
22894WAT      O68923   7.337   5.266   4.696
22894WAT     H168924   7.283   5.293   4.775
22894WAT     H268925   7.373   5.173   4.711
22895WAT      O68926   6.743   3.549   0.107
22895WAT     H168927   6.671   3.481   0.097
22895WAT     H268928   6.776   3.578   0.017
22896WAT      O68929   4.125   2.630   0.081
22896WAT     H168930   4.217   2.591   0.077
22896WAT     H268931   4.105   2.659   0.175
22897WAT      O68932   3.180   6.823   1.022
22897WAT     H168933   3.261   6.766   1.026
22897WAT     H268934   3.180   6.887   1.099
22898WAT      O68935   7.877   9.342   1.715
22898WAT     H168936   7.850   9.336   1.618
22898WAT     H268937   7.956   9.283   1.732
22899WAT      O68938   4.717   5.533   4.175
22899WAT     H168939   4.684   5.466   4.108
22899WAT     H268940   4.736   5.486   4.261
22900WAT      O68941   0.521   1.397   9.717
22900WAT     H168942   0.568   1.478   9.680
22900WAT     H268943   0.428   1.422   9.744
22901WAT      O68944   2.223   2.330   8.477
22901WAT     H168945   2.239   2.309   8.381
22901WAT     H268946   2.296   2.391   8.510
22902WAT      O68947   1.203   6.498   3.707
22902WAT     H168948   1.188   6.485   3.609
22902WAT     H268949   1.161   6.423   3.757
22903WAT      O68950   4.833   7.480   4.287
22903WAT     H168951   4.886   7.479   4.371
22903WAT     H268952   4.894   7.473   4.208
22904WAT      O68953   7.856   4.549   7.997
22904WAT     H168954   7.827   4.454   7.983
22904WAT     H268955   7.906   4.581   7.917
22905WAT      O68956   9.775   9.501   4.902
22905WAT     H168957   9.692   9.525   4.852
22905WAT     H268958   9.784   9.559   4.983
22906WAT      O68959   0.447   4.473   5.240
22906WAT     H168960   0.401   4.511   5.320
22906WAT     H268961   0.452   4.373   5.249
22907WAT      O68962   8.973   3.935   3.908
22907WAT     H168963   9.026   4.019   3.924
22907WAT     H268964   8.987   3.905   3.814
22908WAT      O68965   2.403   6.573   7.336
22908WAT     H168966   2.499   6.555   7.312
22908WAT     H268967   2.392   6.669   7.360
22909WAT      O68968   8.458   6.706   9.611
22909WAT     H168969   8.490   6.633   9.672
22909WAT     H268970   8.360   6.720   9.626
22910WAT      O68971   8.048   6.603   6.174
22910WAT     H168972   8.125   6.567   6.226
22910WAT     H268973   8.023   6.540   6.101
22911WAT      O68974   2.426   0.074   8.469
22911WAT     H168975   2.345   0.037   8.515
22911WAT     H268976   2.488  -0.001   8.446
22912WAT      O68977   5.923   3.215   5.548
22912WAT     H168978   5.831   3.241   5.517
22912WAT     H268979   5.959   3.144   5.488
22913WAT      O68980   9.331   6.869   8.704
22913WAT     H168981   9.385   6.953   8.696
22913WAT     H268982   9.235   6.890   8.690
22914WAT      O68983   1.691   2.198   4.738
22914WAT     H168984   1.667   2.150   4.822
22914WAT     H268985   1.644   2.287   4.736
22915WAT      O68986   3.262   9.489   9.140
22915WAT     H168987   3.169   9.507   9.171
22915WAT     H268988   3.319   9.467   9.219
22916WAT      O68989   1.652   9.598   5.497
22916WAT     H168990   1.592   9.672   5.525
22916WAT     H268991   1.681   9.546   5.578
22917WAT      O68992   4.412   1.796   5.183
22917WAT     H168993   4.340   1.857   5.149
22917WAT     H268994   4.380   1.749   5.265
22918WAT      O68995   0.975   2.361   2.615
22918WAT     H168996   1.014   2.387   2.703
22918WAT     H268997   1.030   2.288   2.574
22919WAT      O68998   0.845   9.214   7.148
22919WAT     H168999   0.803   9.222   7.058
22919WAT     H269000   0.783   9.166   7.211
22920WAT      O69001   5.134   1.291   8.554
22920WAT     H169002   5.218   1.261   8.598
22920WAT     H269003   5.154   1.326   8.463
22921WAT      O69004   0.009   9.442   3.348
22921WAT     H169005   0.048   9.475   3.261
22921WAT     H269006  -0.082   9.406   3.331
22922WAT      O69007   3.161   8.609   6.645
22922WAT     H169008   3.180   8.559   6.729
22922WAT     H269009   3.165   8.707   6.662
22923WAT      O69010   0.600   4.121   1.145
22923WAT     H169011   0.613   4.183   1.222
22923WAT     H269012   0.687   4.079   1.121
22924WAT      O69013   4.944   2.755   0.975
22924WAT     H169014   4.945   2.826   1.046
22924WAT     H269015   4.988   2.672   1.009
22925WAT      O69016   2.839   8.533   9.553
22925WAT     H169017   2.882   8.623   9.553
22925WAT     H269018   2.877   8.478   9.628
22926WAT      O69019   0.343   4.295   7.125
22926WAT     H169020   0.330   4.218   7.062
22926WAT     H269021   0.263   4.304   7.184
22927WAT      O69022   8.462   8.106   6.956
22927WAT     H169023   8.372   8.149   6.939
22927WAT     H269024   8.519   8.116   6.875
22928WAT      O69025   0.064   3.162   9.180
22928WAT     H169026  -0.030   3.130   9.170
22928WAT     H269027   0.087   3.170   9.277
22929WAT      O69028   7.890   3.217   8.439
22929WAT     H169029   7.807   3.266   8.464
22929WAT     H269030   7.913   3.236   8.343
22930WAT      O69031   6.005   0.398   6.044
22930WAT     H169032   6.031   0.303   6.026
22930WAT     H269033   5.944   0.430   5.972
22931WAT      O69034   4.344   9.673   7.675
22931WAT     H169035   4.335   9.632   7.766
22931WAT     H269036   4.440   9.669   7.647
22932WAT      O69037   4.307   7.501   7.148
22932WAT     H169038   4.395   7.454   7.159
22932WAT     H269039   4.291   7.517   7.050
22933WAT      O69040   3.043   6.948   1.578
22933WAT     H169041   3.113   6.949   1.650
22933WAT     H269042   2.955   6.973   1.617
22934WAT      O69043   2.738   0.254   3.851
22934WAT     H169044   2.749   0.348   3.817
22934WAT     H269045   2.715   0.193   3.776
22935WAT      O69046   1.638   3.094   9.076
22935WAT     H169047   1.613   3.123   9.169
22935WAT     H269048   1.686   3.168   9.030
22936WAT      O69049   3.136   3.442   6.266
22936WAT     H169050   3.046   3.481   6.246
22936WAT     H269051   3.125   3.356   6.314
22937WAT      O69052   9.720   2.882   6.758
22937WAT     H169053   9.715   2.931   6.846
22937WAT     H269054   9.757   2.943   6.688
22938WAT      O69055   3.952   1.221   0.536
22938WAT     H169056   3.949   1.187   0.630
22938WAT     H269057   4.024   1.291   0.529
22939WAT      O69058   2.116   9.080   8.785
22939WAT     H169059   2.038   9.050   8.839
22939WAT     H269060   2.111   9.179   8.770
22940WAT      O69061   7.374   9.691   0.071
22940WAT     H169062   7.354   9.744   0.154
22940WAT     H269063   7.473   9.687   0.057
22941WAT      O69064   0.515   4.095   7.443
22941WAT     H169065   0.549   4.116   7.351
22941WAT     H269066   0.585   4.119   7.510
22942WAT      O69067   7.371   5.791   0.133
22942WAT     H169068   7.283   5.764   0.094
22942WAT     H269069   7.445   5.746   0.083
22943WAT      O69070   3.456   6.687   5.906
22943WAT     H169071   3.480   6.768   5.852
22943WAT     H269072   3.464   6.708   6.003
22944WAT      O69073   1.796   9.693   6.621
22944WAT     H169074   1.785   9.748   6.704
22944WAT     H269075   1.713   9.700   6.566
22945WAT      O69076   0.534   5.128   8.052
22945WAT     H169077   0.485   5.055   8.004
22945WAT     H269078   0.482   5.155   8.133
22946WAT      O69079   1.267   6.128   6.576
22946WAT     H169080   1.190   6.143   6.513
22946WAT     H269081   1.231   6.102   6.665
22947WAT      O69082   3.160   2.006   2.787
22947WAT     H169083   3.199   2.006   2.879
22947WAT     H269084   3.174   1.917   2.745
22948WAT      O69085   8.445   5.474   1.288
22948WAT     H169086   8.358   5.523   1.289
22948WAT     H269087   8.498   5.498   1.370
22949WAT      O69088   4.626   1.967   1.104
22949WAT     H169089   4.687   1.901   1.148
22949WAT     H269090   4.565   2.007   1.173
22950WAT      O69091   7.111   4.146   0.867
22950WAT     H169092   7.062   4.067   0.830
22950WAT     H269093   7.076   4.167   0.958
22951WAT      O69094   5.300   7.403   7.170
22951WAT     H169095   5.371   7.336   7.152
22951WAT     H269096   5.264   7.439   7.084
22952WAT      O69097   7.249   4.426   3.295
22952WAT     H169098   7.180   4.479   3.344
22952WAT     H269099   7.314   4.489   3.252
22953WAT      O69100   9.465   3.257   4.524
22953WAT     H169101   9.513   3.325   4.579
22953WAT     H269102   9.368   3.257   4.549
22954WAT      O69103   2.465   3.907   0.196
22954WAT     H169104   2.473   3.919   0.295
22954WAT     H269105   2.544   3.855   0.162
22955WAT      O69106   1.228   8.340   9.152
22955WAT     H169107   1.260   8.256   9.196
22955WAT     H269108   1.293   8.368   9.081
22956WAT      O69109   8.656   5.987   8.367
22956WAT     H169110   8.644   6.086   8.368
22956WAT     H269111   8.641   5.952   8.275
22957WAT      O69112   8.838   5.261   6.763
22957WAT     H169113   8.830   5.268   6.863
22957WAT     H269114   8.924   5.215   6.740
22958WAT      O69115   4.075   5.977   1.561
22958WAT     H169116   3.978   5.965   1.584
22958WAT     H269117   4.127   5.900   1.598
22959WAT      O69118   3.117   6.459   7.307
22959WAT     H169119   3.122   6.363   7.336
22959WAT     H269120   3.197   6.508   7.342
22960WAT      O69121   3.215   6.805   4.203
22960WAT     H169122   3.192   6.854   4.288
22960WAT     H269123   3.285   6.737   4.222
22961WAT      O69124   9.137   0.841   4.011
22961WAT     H169125   9.231   0.861   3.983
22961WAT     H269126   9.137   0.763   4.074
22962WAT      O69127   5.893   4.958   0.617
22962WAT     H169128   5.959   4.886   0.637
22962WAT     H269129   5.806   4.937   0.663
22963WAT      O69130   5.627   7.638   1.083
22963WAT     H169131   5.708   7.583   1.064
22963WAT     H269132   5.575   7.652   0.999
22964WAT      O69133   6.168   5.245   1.347
22964WAT     H169134   6.106   5.322   1.333
22964WAT     H269135   6.166   5.216   1.442
22965WAT      O69136   7.799   8.471   8.257
22965WAT     H169137   7.878   8.414   8.238
22965WAT     H269138   7.775   8.524   8.176
22966WAT      O69139   2.208   8.056   5.003
22966WAT     H169140   2.146   7.988   5.044
22966WAT     H269141   2.155   8.133   4.968
22967WAT      O69142   4.365   6.066   5.865
22967WAT     H169143   4.430   6.094   5.795
22967WAT     H269144   4.385   6.113   5.951
22968WAT      O69145   2.339   5.577   3.510
22968WAT     H169146   2.308   5.671   3.498
22968WAT     H269147   2.414   5.557   3.446
22969WAT      O69148   3.297   2.381   3.905
22969WAT     H169149   3.272   2.444   3.831
22969WAT     H269150   3.393   2.396   3.930
22970WAT      O69151   4.474   3.760   0.242
22970WAT     H169152   4.543   3.699   0.203
22970WAT     H269153   4.457   3.734   0.337
22971WAT      O69154   4.761   4.274   3.957
22971WAT     H169155   4.745   4.336   4.034
22971WAT     H269156   4.675   4.257   3.910
22972WAT      O69157   2.193   3.785   4.107
22972WAT     H169158   2.175   3.687   4.098
22972WAT     H269159   2.251   3.815   4.031
22973WAT      O69160   7.091   0.991   6.574
22973WAT     H169161   7.099   1.058   6.500
22973WAT     H269162   6.995   0.971   6.592
22974WAT      O69163   5.959   8.548   8.236
22974WAT     H169164   5.979   8.453   8.213
22974WAT     H269165   6.044   8.595   8.263
22975WAT      O69166   1.429   6.678   6.833
22975WAT     H169167   1.406   6.595   6.784
22975WAT     H269168   1.404   6.668   6.930
22976WAT      O69169   1.210   4.912   4.827
22976WAT     H169170   1.242   4.930   4.920
22976WAT     H269171   1.201   4.813   4.814
22977WAT      O69172   5.354   6.057   7.040
22977WAT     H169173   5.288   5.991   7.005
22977WAT     H269174   5.340   6.071   7.138
22978WAT      O69175   1.863   9.776   8.290
22978WAT     H169176   1.790   9.833   8.327
22978WAT     H269177   1.912   9.732   8.365
22979WAT      O69178   7.205   7.070   3.593
22979WAT     H169179   7.285   7.080   3.535
22979WAT     H269180   7.183   7.158   3.636
22980WAT      O69181   9.802   2.401   9.314
22980WAT     H169182   9.859   2.332   9.269
22980WAT     H269183   9.772   2.367   9.403
22981WAT      O69184   9.730   8.915   3.323
22981WAT     H169185   9.701   8.820   3.321
22981WAT     H269186   9.827   8.921   3.301
22982WAT      O69187   2.088   7.845   6.770
22982WAT     H169188   2.008   7.875   6.720
22982WAT     H269189   2.060   7.794   6.851
22983WAT      O69190   0.567   2.936   6.047
22983WAT     H169191   0.475   2.914   6.077
22983WAT     H269192   0.617   2.980   6.121
22984WAT      O69193   5.153   7.733   5.338
22984WAT     H169194   5.172   7.806   5.403
22984WAT     H269195   5.066   7.751   5.292
22985WAT      O69196   3.113   5.053   3.423
22985WAT     H169197   3.196   5.035   3.371
22985WAT     H269198   3.079   4.967   3.461
22986WAT      O69199   7.177   9.389   3.688
22986WAT     H169200   7.087   9.360   3.657
22986WAT     H269201   7.172   9.483   3.722
22987WAT      O69202   3.134   4.835   5.155
22987WAT     H169203   3.133   4.914   5.094
22987WAT     H269204   3.178   4.757   5.109
22988WAT      O69205   9.007   3.052   4.553
22988WAT     H169206   8.949   3.052   4.635
22988WAT     H269207   8.950   3.065   4.472
22989WAT      O69208   6.533   2.074   7.005
22989WAT     H169209   6.580   2.003   7.056
22989WAT     H269210   6.520   2.155   7.062
22990WAT      O69211   7.264   9.558   7.093
22990WAT     H169212   7.309   9.474   7.126
22990WAT     H269213   7.235   9.613   7.171
22991WAT      O69214   7.580   2.739   1.107
22991WAT     H169215   7.481   2.734   1.095
22991WAT     H269216   7.620   2.790   1.032
22992WAT      O69217   6.308   4.558   4.255
22992WAT     H169218   6.293   4.639   4.311
22992WAT     H269219   6.290   4.476   4.309
22993WAT      O69220   1.247   5.554   3.910
22993WAT     H169221   1.169   5.616   3.915
22993WAT     H269222   1.265   5.531   3.814
22994WAT      O69223   5.018   6.618   5.747
22994WAT     H169224   4.949   6.621   5.819
22994WAT     H269225   4.973   6.616   5.658
22995WAT      O69226   8.340   0.915   8.727
22995WAT     H169227   8.282   0.987   8.767
22995WAT     H269228   8.282   0.839   8.698
22996WAT      O69229   9.557   2.298   8.776
22996WAT     H169230   9.474   2.330   8.730
22996WAT     H269231   9.578   2.205   8.747
22997WAT      O69232   1.564   7.468   7.812
22997WAT     H169233   1.473   7.431   7.797
22997WAT     H269234   1.558   7.563   7.842
22998WAT      O69235   3.885   9.532   9.818
22998WAT     H169236   3.927   9.468   9.883
22998WAT     H269237   3.956   9.589   9.777
22999WAT      O69238   2.730   7.246   9.539
22999WAT     H169239   2.687   7.252   9.629
22999WAT     H269240   2.791   7.167   9.537
23000WAT      O69241   7.490   2.177   4.910
23000WAT     H169242   7.456   2.227   4.990
23000WAT     H269243   7.487   2.236   4.830
23001WAT      O69244   5.033   2.075   5.071
23001WAT     H169245   4.973   2.047   5.146
23001WAT     H269246   5.061   1.994   5.019
23002WAT      O69247   9.635   8.866   9.001
23002WAT     H169248   9.667   8.938   8.939
23002WAT     H269249   9.705   8.796   9.011
23003WAT      O69250   2.054   5.962   3.939
23003WAT     H169251   2.014   5.871   3.933
23003WAT     H269252   2.067   6.000   3.847
23004WAT      O69253   0.799   5.260   2.118
23004WAT     H169254   0.708   5.233   2.087
23004WAT     H269255   0.821   5.351   2.083
23005WAT      O69256   9.428   1.451   6.744
23005WAT     H169257   9.393   1.376   6.689
23005WAT     H269258   9.465   1.523   6.685
23006WAT      O69259   0.332   8.888   3.472
23006WAT     H169260   0.326   8.985   3.448
23006WAT     H269261   0.363   8.879   3.566
23007WAT      O69262   2.957   6.752   8.851
23007WAT     H169263   2.937   6.725   8.945
23007WAT     H269264   2.918   6.684   8.788
23008WAT      O69265   0.113   7.455   1.827
23008WAT     H169266   0.053   7.431   1.903
23008WAT     H269267   0.059   7.484   1.749
23009WAT      O69268   6.255   6.498   3.351
23009WAT     H169269   6.213   6.559   3.418
23009WAT     H269270   6.339   6.459   3.389
23010WAT      O69271   5.014   0.959   7.157
23010WAT     H169272   4.997   0.895   7.232
23010WAT     H269273   5.012   0.910   7.070
23011WAT      O69274   9.214   5.329   1.347
23011WAT     H169275   9.272   5.332   1.266
23011WAT     H269276   9.121   5.355   1.323
23012WAT      O69277   5.293   4.728   7.366
23012WAT     H169278   5.284   4.643   7.314
23012WAT     H269279   5.358   4.714   7.440
23013WAT      O69280   8.982   7.758   2.929
23013WAT     H169281   8.935   7.772   3.016
23013WAT     H269282   8.942   7.818   2.859
23014WAT      O69283   1.737   5.777   5.426
23014WAT     H169284   1.680   5.728   5.360
23014WAT     H269285   1.701   5.869   5.440
23015WAT      O69286   3.466   1.208   8.148
23015WAT     H169287   3.463   1.307   8.141
23015WAT     H269288   3.441   1.180   8.241
23016WAT      O69289   3.434   7.711   0.596
23016WAT     H169290   3.415   7.634   0.534
23016WAT     H269291   3.415   7.683   0.690
23017WAT      O69292   7.570   1.347   7.672
23017WAT     H169293   7.507   1.371   7.598
23017WAT     H269294   7.664   1.369   7.645
23018WAT      O69295   1.915   1.663   4.721
23018WAT     H169296   1.838   1.727   4.720
23018WAT     H269297   1.975   1.683   4.798
23019WAT      O69298   5.020   0.484   7.238
23019WAT     H169299   5.105   0.492   7.187
23019WAT     H269300   4.997   0.573   7.279
23020WAT      O69301   6.944   4.178   7.860
23020WAT     H169302   7.029   4.227   7.841
23020WAT     H269303   6.891   4.229   7.928
23021WAT      O69304   6.845   5.219   2.754
23021WAT     H169305   6.755   5.226   2.710
23021WAT     H269306   6.850   5.284   2.830
23022WAT      O69307   1.583   5.935   5.937
23022WAT     H169308   1.505   5.894   5.985
23022WAT     H269309   1.667   5.918   5.988
23023WAT      O69310   5.374   2.583   8.627
23023WAT     H169311   5.373   2.545   8.719
23023WAT     H269312   5.422   2.671   8.627
23024WAT      O69313   2.549   0.537   2.186
23024WAT     H169314   2.466   0.526   2.241
23024WAT     H269315   2.618   0.585   2.239
23025WAT      O69316   8.684   0.629   8.184
23025WAT     H169317   8.585   0.639   8.193
23025WAT     H269318   8.730   0.702   8.236
23026WAT      O69319   1.326   5.395   4.494
23026WAT     H169320   1.325   5.378   4.593
23026WAT     H269321   1.249   5.348   4.451
23027WAT      O69322   1.059   2.229   7.647
23027WAT     H169323   1.116   2.310   7.632
23027WAT     H269324   1.103   2.168   7.712
23028WAT      O69325   5.016   7.079   3.845
23028WAT     H169326   4.971   7.165   3.866
23028WAT     H269327   4.948   7.005   3.844
23029WAT      O69328   9.063   5.830   9.412
23029WAT     H169329   9.012   5.872   9.487
23029WAT     H269330   9.032   5.736   9.399
23030WAT      O69331   9.087   8.006   1.753
23030WAT     H169332   9.179   8.020   1.789
23030WAT     H269333   9.083   8.041   1.659
23031WAT      O69334   2.849   2.017   4.266
23031WAT     H169335   2.817   2.078   4.193
23031WAT     H269336   2.945   1.995   4.250
23032WAT      O69337   8.541   3.926   8.087
23032WAT     H169338   8.552   3.843   8.140
23032WAT     H269339   8.444   3.940   8.065
23033WAT      O69340   7.203   2.608   3.928
23033WAT     H169341   7.124   2.600   3.867
23033WAT     H269342   7.195   2.691   3.983
23034WAT      O69343   6.442   6.493   0.571
23034WAT     H169344   6.459   6.520   0.476
23034WAT     H269345   6.463   6.570   0.631
23035WAT      O69346   3.011   9.166   9.341
23035WAT     H169347   3.034   9.186   9.246
23035WAT     H269348   2.930   9.217   9.368
23036WAT      O69349   7.974   0.844   2.280
23036WAT     H169350   7.892   0.867   2.227
23036WAT     H269351   7.947   0.815   2.372
23037WAT      O69352   9.198   6.271   0.271
23037WAT     H169353   9.248   6.321   0.201
23037WAT     H269354   9.236   6.292   0.361
23038WAT      O69355   9.662   0.191   0.334
23038WAT     H169356   9.586   0.162   0.275
23038WAT     H269357   9.671   0.290   0.330
23039WAT      O69358   1.992   9.841   3.682
23039WAT     H169359   2.031   9.764   3.732
23039WAT     H269360   1.896   9.852   3.709
23040WAT      O69361   6.550   0.678   1.239
23040WAT     H169362   6.530   0.631   1.325
23040WAT     H269363   6.587   0.612   1.173
23041WAT      O69364   7.908   3.731   8.835
23041WAT     H169365   7.889   3.819   8.879
23041WAT     H269366   7.920   3.661   8.905
23042WAT      O69367   8.853   7.335   4.625
23042WAT     H169368   8.935   7.281   4.642
23042WAT     H269369   8.811   7.360   4.712
23043WAT      O69370   5.571   8.066   3.680
23043WAT     H169371   5.636   8.005   3.726
23043WAT     H269372   5.503   8.011   3.632
23044WAT      O69373   0.713   9.785   6.186
23044WAT     H169374   0.802   9.742   6.202
23044WAT     H269375   0.725   9.869   6.135
23045WAT      O69376   2.471   6.519   4.022
23045WAT     H169377   2.372   6.509   4.008
23045WAT     H269378   2.487   6.567   4.108
23046WAT      O69379   5.063   4.819   1.226
23046WAT     H169380   5.115   4.800   1.309
23046WAT     H269381   5.126   4.828   1.149
23047WAT      O69382   5.041   5.254   6.613
23047WAT     H169383   5.118   5.247   6.550
23047WAT     H269384   4.991   5.338   6.595
23048WAT      O69385   2.650   4.898   1.267
23048WAT     H169386   2.713   4.840   1.318
23048WAT     H269387   2.570   4.919   1.325
23049WAT      O69388   3.372   3.441   6.935
23049WAT     H169389   3.356   3.420   7.031
23049WAT     H269390   3.383   3.540   6.924
23050WAT      O69391   3.871   6.056   5.373
23050WAT     H169392   3.821   5.983   5.421
23050WAT     H269393   3.956   6.075   5.422
23051WAT      O69394   5.429   5.412   0.372
23051WAT     H169395   5.459   5.319   0.353
23051WAT     H269396   5.348   5.410   0.431
23052WAT      O69397   5.618   0.137   9.743
23052WAT     H169398   5.562   0.195   9.802
23052WAT     H269399   5.629   0.047   9.786
23053WAT      O69400   5.651   8.348   5.908
23053WAT     H169401   5.552   8.358   5.920
23053WAT     H269402   5.685   8.423   5.851
23054WAT      O69403   2.691   9.560   9.644
23054WAT     H169404   2.669   9.463   9.640
23054WAT     H269405   2.773   9.578   9.589
23055WAT      O69406   0.655   8.198   6.662
23055WAT     H169407   0.665   8.286   6.616
23055WAT     H269408   0.618   8.131   6.597
23056WAT      O69409   0.693   2.398   2.645
23056WAT     H169410   0.792   2.388   2.635
23056WAT     H269411   0.651   2.406   2.555
23057WAT      O69412   9.232   0.352   1.042
23057WAT     H169413   9.284   0.337   0.958
23057WAT     H269414   9.260   0.287   1.112
23058WAT      O69415   9.040   3.403   3.787
23058WAT     H169416   9.034   3.305   3.806
23058WAT     H269417   8.955   3.447   3.816
23059WAT      O69418   4.381   9.368   7.531
23059WAT     H169419   4.288   9.402   7.543
23059WAT     H269420   4.445   9.443   7.544
23060WAT      O69421   0.965   9.589   0.855
23060WAT     H169422   1.034   9.591   0.783
23060WAT     H269423   1.007   9.563   0.941
23061WAT      O69424   7.116   3.636   4.258
23061WAT     H169425   7.165   3.715   4.221
23061WAT     H269426   7.125   3.636   4.357
23062WAT      O69427   3.428   0.549   1.330
23062WAT     H169428   3.382   0.554   1.241
23062WAT     H269429   3.363   0.523   1.400
23063WAT      O69430   9.447   2.564   8.035
23063WAT     H169431   9.481   2.537   7.945
23063WAT     H269432   9.351   2.536   8.044
23064WAT      O69433   0.542   7.991   4.730
23064WAT     H169434   0.578   8.081   4.755
23064WAT     H269435   0.468   8.002   4.663
23065WAT      O69436   7.578   4.043   5.463
23065WAT     H169437   7.489   4.087   5.450
23065WAT     H269438   7.628   4.042   5.376
23066WAT      O69439   1.598   3.036   5.964
23066WAT     H169440   1.574   3.040   5.867
23066WAT     H269441   1.698   3.035   5.973
23067WAT      O69442   7.118   1.135   7.295
23067WAT     H169443   7.093   1.226   7.328
23067WAT     H269444   7.040   1.074   7.302
23068WAT      O69445   1.038   3.953   4.160
23068WAT     H169446   1.105   3.942   4.086
23068WAT     H269447   0.975   4.027   4.137
23069WAT      O69448   8.198   4.864   4.808
23069WAT     H169449   8.187   4.958   4.839
23069WAT     H269450   8.285   4.856   4.759
23070WAT      O69451   2.553   6.935   2.787
23070WAT     H169452   2.545   7.035   2.787
23070WAT     H269453   2.468   6.895   2.822
23071WAT      O69454   1.661   5.693   2.525
23071WAT     H169455   1.623   5.779   2.490
23071WAT     H269456   1.715   5.649   2.454
23072WAT      O69457   6.452   6.560   0.316
23072WAT     H169458   6.440   6.641   0.259
23072WAT     H269459   6.395   6.486   0.281
23073WAT      O69460   3.489   4.783   2.198
23073WAT     H169461   3.457   4.801   2.291
23073WAT     H269462   3.416   4.739   2.145
23074WAT      O69463   1.007   7.960   0.063
23074WAT     H169464   1.074   7.913   0.005
23074WAT     H269465   1.054   8.011   0.135
23075WAT      O69466   9.617   1.430   5.539
23075WAT     H169467   9.588   1.490   5.464
23075WAT     H269468   9.632   1.484   5.621
23076WAT      O69469   4.425   7.525   6.089
23076WAT     H169470   4.464   7.440   6.124
23076WAT     H269471   4.438   7.530   5.990
23077WAT      O69472   2.607   2.734   1.436
23077WAT     H169473   2.524   2.700   1.483
23077WAT     H269474   2.580   2.788   1.356
23078WAT      O69475   7.440   6.706   1.768
23078WAT     H169476   7.374   6.779   1.785
23078WAT     H269477   7.395   6.633   1.717
23079WAT      O69478   6.297   7.025   2.934
23079WAT     H169479   6.395   7.016   2.954
23079WAT     H269480   6.247   7.043   3.018
23080WAT      O69481   8.714   3.689   4.557
23080WAT     H169482   8.724   3.780   4.517
23080WAT     H269483   8.625   3.651   4.531
23081WAT      O69484   0.433   0.348   8.503
23081WAT     H169485   0.490   0.404   8.564
23081WAT     H269486   0.355   0.402   8.473
23082WAT      O69487   4.045   8.617   8.085
23082WAT     H169488   4.023   8.654   7.995
23082WAT     H269489   4.141   8.636   8.106
23083WAT      O69490   8.620   2.452   5.175
23083WAT     H169491   8.557   2.512   5.224
23083WAT     H269492   8.615   2.360   5.215
23084WAT      O69493   1.862   2.118   6.162
23084WAT     H169494   1.823   2.128   6.253
23084WAT     H269495   1.800   2.159   6.094
23085WAT      O69496   5.028   5.110   4.181
23085WAT     H169497   4.934   5.133   4.156
23085WAT     H269498   5.091   5.177   4.141
23086WAT      O69499   3.459   0.088   0.339
23086WAT     H169500   3.538   0.027   0.328
23086WAT     H269501   3.375   0.036   0.322
23087WAT      O69502   2.624   8.615   5.145
23087WAT     H169503   2.693   8.688   5.152
23087WAT     H269504   2.538   8.647   5.184
23088WAT      O69505   2.546   9.194   9.471
23088WAT     H169506   2.508   9.286   9.467
23088WAT     H269507   2.644   9.199   9.486
23089WAT      O69508   2.748   2.546   2.214
23089WAT     H169509   2.835   2.595   2.211
23089WAT     H269510   2.673   2.612   2.205
23090WAT      O69511   8.068   1.914   0.389
23090WAT     H169512   8.092   1.895   0.294
23090WAT     H269513   8.014   1.998   0.394
23091WAT      O69514   7.460   2.286   3.052
23091WAT     H169515   7.465   2.281   3.152
23091WAT     H269516   7.522   2.358   3.020
23092WAT      O69517   9.581   4.250   5.979
23092WAT     H169518   9.537   4.309   5.913
23092WAT     H269519   9.568   4.154   5.953
23093WAT      O69520   3.221   3.140   0.417
23093WAT     H169521   3.186   3.077   0.348
23093WAT     H269522   3.286   3.092   0.476
23094WAT      O69523   3.457   4.608   8.438
23094WAT     H169524   3.494   4.685   8.490
23094WAT     H269525   3.531   4.548   8.410
23095WAT      O69526   0.302   7.034   3.757
23095WAT     H169527   0.238   6.962   3.729
23095WAT     H269528   0.251   7.116   3.781
23096WAT      O69529   2.736   7.180   8.703
23096WAT     H169530   2.718   7.082   8.712
23096WAT     H269531   2.678   7.218   8.631
23097WAT      O69532   7.154   8.440   7.638
23097WAT     H169533   7.130   8.529   7.677
23097WAT     H269534   7.144   8.444   7.539
23098WAT      O69535   0.357   2.104   1.432
23098WAT     H169536   0.330   2.010   1.411
23098WAT     H269537   0.449   2.103   1.471
23099WAT      O69538   4.041   7.626   1.435
23099WAT     H169539   4.003   7.670   1.516
23099WAT     H269540   4.068   7.695   1.369
23100WAT      O69541   5.960   6.957   2.750
23100WAT     H169542   5.995   6.912   2.668
23100WAT     H269543   5.996   6.911   2.831
23101WAT      O69544   4.074   1.700   1.471
23101WAT     H169545   4.156   1.674   1.420
23101WAT     H269546   4.100   1.762   1.545
23102WAT      O69547   8.998   0.406   9.223
23102WAT     H169548   8.967   0.408   9.128
23102WAT     H269549   9.068   0.335   9.233
23103WAT      O69550   5.692   2.415   3.411
23103WAT     H169551   5.746   2.331   3.405
23103WAT     H269552   5.600   2.398   3.374
23104WAT      O69553   2.181   6.705   7.075
23104WAT     H169554   2.265   6.693   7.022
23104WAT     H269555   2.148   6.615   7.105
23105WAT      O69556   5.101   4.800   6.310
23105WAT     H169557   5.030   4.867   6.329
23105WAT     H269558   5.158   4.788   6.391
23106WAT      O69559   7.632   5.640   1.147
23106WAT     H169560   7.611   5.635   1.049
23106WAT     H269561   7.585   5.718   1.187
23107WAT      O69562   5.827   3.655   2.104
23107WAT     H169563   5.731   3.682   2.099
23107WAT     H269564   5.840   3.590   2.178
23108WAT      O69565   8.565   4.810   9.858
23108WAT     H169566   8.623   4.831   9.938
23108WAT     H269567   8.527   4.718   9.869
23109WAT      O69568   2.654   6.729   5.834
23109WAT     H169569   2.750   6.706   5.815
23109WAT     H269570   2.594   6.661   5.792
23110WAT      O69571   0.779   8.520   8.904
23110WAT     H169572   0.800   8.591   8.837
23110WAT     H269573   0.864   8.475   8.932
23111WAT      O69574   4.862   8.402   7.377
23111WAT     H169575   4.860   8.495   7.341
23111WAT     H269576   4.814   8.341   7.313
23112WAT      O69577   5.177   8.794   7.887
23112WAT     H169578   5.116   8.718   7.864
23112WAT     H269579   5.177   8.807   7.987
23113WAT      O69580   8.709   1.567   9.629
23113WAT     H169581   8.671   1.550   9.539
23113WAT     H269582   8.763   1.651   9.627
23114WAT      O69583   8.463   4.431   0.553
23114WAT     H169584   8.409   4.511   0.580
23114WAT     H269585   8.551   4.461   0.516
23115WAT      O69586   9.676   3.688   1.431
23115WAT     H169587   9.692   3.620   1.503
23115WAT     H269588   9.613   3.759   1.466
23116WAT      O69589   5.862   5.111   5.289
23116WAT     H169590   5.959   5.118   5.265
23116WAT     H269591   5.823   5.030   5.245
23117WAT      O69592   2.648   4.542   6.900
23117WAT     H169593   2.677   4.592   6.818
23117WAT     H269594   2.570   4.484   6.878
23118WAT      O69595   7.260   0.411   6.476
23118WAT     H169596   7.290   0.317   6.461
23118WAT     H269597   7.322   0.457   6.539
23119WAT      O69598   6.366   8.285   1.859
23119WAT     H169599   6.458   8.274   1.897
23119WAT     H269600   6.363   8.368   1.804
23120WAT      O69601   3.305   7.517   6.127
23120WAT     H169602   3.286   7.475   6.038
23120WAT     H269603   3.391   7.480   6.163
23121WAT      O69604   7.855   0.814   6.243
23121WAT     H169605   7.918   0.840   6.169
23121WAT     H269606   7.762   0.840   6.218
23122WAT      O69607   6.836   6.238   5.303
23122WAT     H169608   6.861   6.208   5.395
23122WAT     H269609   6.854   6.165   5.238
23123WAT      O69610   5.511   6.568   0.021
23123WAT     H169611   5.529   6.666   0.012
23123WAT     H269612   5.534   6.539   0.114
23124WAT      O69613   1.632   6.709   1.068
23124WAT     H169614   1.596   6.691   0.976
23124WAT     H269615   1.723   6.750   1.060
23125WAT      O69616   2.098   0.603   3.646
23125WAT     H169617   2.055   0.634   3.730
23125WAT     H269618   2.152   0.521   3.664
23126WAT      O69619   7.443   4.980   6.876
23126WAT     H169620   7.440   5.041   6.955
23126WAT     H269621   7.360   4.992   6.822
23127WAT      O69622   3.213   3.679   9.679
23127WAT     H169623   3.263   3.660   9.763
23127WAT     H269624   3.253   3.628   9.603
23128WAT      O69625   6.938   7.624   4.527
23128WAT     H169626   6.933   7.527   4.551
23128WAT     H269627   6.846   7.664   4.528
23129WAT      O69628   8.473   0.255   0.420
23129WAT     H169629   8.497   0.327   0.485
23129WAT     H269630   8.516   0.274   0.332
23130WAT      O69631   7.845   4.381   5.780
23130WAT     H169632   7.766   4.333   5.741
23130WAT     H269633   7.903   4.415   5.707
23131WAT      O69634   9.314   3.801   5.969
23131WAT     H169635   9.323   3.710   5.928
23131WAT     H269636   9.219   3.814   5.999
23132WAT      O69637   7.387   2.409   1.019
23132WAT     H169638   7.343   2.477   0.961
23132WAT     H269639   7.486   2.420   1.014
23133WAT      O69640   5.169   9.649   2.038
23133WAT     H169641   5.262   9.675   2.012
23133WAT     H269642   5.169   9.615   2.133
23134WAT      O69643   5.682   5.973   0.008
23134WAT     H169644   5.627   6.005  -0.069
23134WAT     H269645   5.735   6.050   0.045
23135WAT      O69646   5.863   6.493   7.017
23135WAT     H169647   5.804   6.418   7.047
23135WAT     H269648   5.954   6.481   7.056
23136WAT      O69649   6.686   5.771   6.778
23136WAT     H169650   6.672   5.679   6.740
23136WAT     H269651   6.718   5.832   6.706
23137WAT      O69652   4.074   9.046   1.996
23137WAT     H169653   4.115   9.132   1.967
23137WAT     H269654   4.140   8.971   1.983
23138WAT      O69655   7.361   8.751   5.783
23138WAT     H169656   7.383   8.691   5.859
23138WAT     H269657   7.436   8.751   5.717
23139WAT      O69658   1.026   8.886   3.583
23139WAT     H169659   1.009   8.973   3.537
23139WAT     H269660   1.094   8.899   3.655
23140WAT      O69661   8.646   7.621   7.210
23140WAT     H169662   8.595   7.546   7.167
23140WAT     H269663   8.639   7.702   7.152
23141WAT      O69664   3.397   1.491   0.510
23141WAT     H169665   3.312   1.475   0.460
23141WAT     H269666   3.467   1.524   0.447
23142WAT      O69667   4.932   4.111   4.668
23142WAT     H169668   5.000   4.168   4.714
23142WAT     H269669   4.950   4.109   4.570
23143WAT      O69670   8.081   1.124   1.833
23143WAT     H169671   7.994   1.075   1.824
23143WAT     H269672   8.134   1.114   1.749
23144WAT      O69673   8.477   5.971   8.982
23144WAT     H169674   8.472   5.980   9.082
23144WAT     H269675   8.530   6.047   8.945
23145WAT      O69676   9.343   0.708   6.146
23145WAT     H169677   9.271   0.684   6.211
23145WAT     H269678   9.349   0.638   6.075
23146WAT      O69679   8.840   1.516   4.313
23146WAT     H169680   8.822   1.598   4.259
23146WAT     H269681   8.926   1.475   4.282
23147WAT      O69682   0.876   1.106   9.512
23147WAT     H169683   0.787   1.081   9.474
23147WAT     H269684   0.949   1.065   9.457
23148WAT      O69685   8.803   3.565   7.357
23148WAT     H169686   8.861   3.533   7.283
23148WAT     H269687   8.707   3.547   7.335
23149WAT      O69688   3.931   2.218   9.146
23149WAT     H169689   3.878   2.293   9.186
23149WAT     H269690   3.874   2.136   9.140
23150WAT      O69691   0.963   1.849   3.036
23150WAT     H169692   0.898   1.904   3.088
23150WAT     H269693   0.934   1.846   2.940
23151WAT      O69694   0.272   9.649   8.588
23151WAT     H169695   0.228   9.707   8.656
23151WAT     H269696   0.275   9.555   8.622
23152WAT      O69697   5.310   8.256   2.546
23152WAT     H169698   5.227   8.305   2.573
23152WAT     H269699   5.295   8.212   2.458
23153WAT      O69700   3.679   1.344   8.333
23153WAT     H169701   3.727   1.429   8.312
23153WAT     H269702   3.594   1.364   8.382
23154WAT      O69703   4.490   6.132   8.143
23154WAT     H169704   4.498   6.191   8.224
23154WAT     H269705   4.436   6.051   8.167
23155WAT      O69706   1.621   6.906   5.187
23155WAT     H169707   1.627   6.990   5.133
23155WAT     H269708   1.534   6.861   5.169
23156WAT      O69709   7.069   5.380   7.540
23156WAT     H169710   7.016   5.377   7.455
23156WAT     H269711   7.081   5.287   7.575
23157WAT      O69712   8.488   6.485   9.773
23157WAT     H169713   8.456   6.390   9.779
23157WAT     H269714   8.499   6.522   9.865
23158WAT      O69715   8.266   8.444   9.017
23158WAT     H169716   8.304   8.506   9.086
23158WAT     H269717   8.261   8.492   8.929
23159WAT      O69718  -0.003   8.447   4.346
23159WAT     H169719   0.049   8.529   4.371
23159WAT     H269720   0.013   8.375   4.414
23160WAT      O69721   2.369   3.782   9.870
23160WAT     H169722   2.399   3.822   9.957
23160WAT     H269723   2.430   3.814   9.797
23161WAT      O69724   6.685   7.543   2.461
23161WAT     H169725   6.772   7.506   2.426
23161WAT     H269726   6.628   7.572   2.384
23162WAT      O69727   7.810   4.915   1.527
23162WAT     H169728   7.869   4.863   1.465
23162WAT     H269729   7.839   4.898   1.622
23163WAT      O69730   4.335   8.523   2.793
23163WAT     H169731   4.420   8.505   2.842
23163WAT     H269732   4.283   8.593   2.841
23164WAT      O69733   1.733   7.776   5.027
23164WAT     H169734   1.709   7.679   5.019
23164WAT     H269735   1.662   7.824   5.079
23165WAT      O69736   3.224   6.813   2.982
23165WAT     H169737   3.255   6.876   3.053
23165WAT     H269738   3.198   6.865   2.900
23166WAT      O69739   3.794   6.830   6.057
23166WAT     H169740   3.769   6.738   6.026
23166WAT     H269741   3.854   6.872   5.990
23167WAT      O69742   8.774   0.017   0.258
23167WAT     H169743   8.841   0.077   0.301
23167WAT     H269744   8.795  -0.078   0.281
23168WAT      O69745   5.838   6.495   5.084
23168WAT     H169746   5.852   6.466   5.179
23168WAT     H269747   5.910   6.458   5.026
23169WAT      O69748   8.732   6.820   3.065
23169WAT     H169749   8.712   6.907   3.110
23169WAT     H269750   8.647   6.778   3.035
23170WAT      O69751   7.663   8.846   6.735
23170WAT     H169752   7.744   8.903   6.720
23170WAT     H269753   7.607   8.848   6.652
23171WAT      O69754   4.407   9.059   3.897
23171WAT     H169755   4.326   9.080   3.952
23171WAT     H269756   4.397   8.970   3.854
23172WAT      O69757   8.765   2.804   8.854
23172WAT     H169758   8.729   2.869   8.921
23172WAT     H269759   8.693   2.740   8.827
23173WAT      O69760   4.260   1.351   3.467
23173WAT     H169761   4.266   1.263   3.421
23173WAT     H269762   4.341   1.406   3.445
23174WAT      O69763   8.865   6.415   9.890
23174WAT     H169764   8.901   6.509   9.890
23174WAT     H269765   8.919   6.360   9.826
23175WAT      O69766   9.348   3.572   1.580
23175WAT     H169767   9.321   3.566   1.484
23175WAT     H269768   9.397   3.489   1.605
23176WAT      O69769   9.250   8.135   3.095
23176WAT     H169770   9.179   8.093   3.151
23176WAT     H269771   9.212   8.215   3.048
23177WAT      O69772   6.741   6.540   3.033
23177WAT     H169773   6.682   6.611   3.072
23177WAT     H269774   6.825   6.581   2.999
23178WAT      O69775   4.178   9.575   3.052
23178WAT     H169776   4.189   9.577   2.952
23178WAT     H269777   4.225   9.495   3.088
23179WAT      O69778   3.960   0.018   7.192
23179WAT     H169779   3.926  -0.008   7.282
23179WAT     H269780   4.039  -0.038   7.168
23180WAT      O69781   6.809   7.927   6.837
23180WAT     H169782   6.793   7.913   6.740
23180WAT     H269783   6.773   7.849   6.889
23181WAT      O69784   9.491   9.128   4.287
23181WAT     H169785   9.562   9.169   4.345
23181WAT     H269786   9.441   9.201   4.240
23182WAT      O69787   4.494   9.717   2.873
23182WAT     H169788   4.405   9.690   2.836
23182WAT     H269789   4.488   9.725   2.973
23183WAT      O69790   4.673   0.342   6.164
23183WAT     H169791   4.697   0.439   6.162
23183WAT     H269792   4.743   0.290   6.213
23184WAT      O69793   6.957   6.128   8.980
23184WAT     H169794   6.921   6.142   8.888
23184WAT     H269795   6.962   6.215   9.028
23185WAT      O69796   8.906   7.664   6.702
23185WAT     H169797   8.868   7.590   6.757
23185WAT     H269798   8.969   7.627   6.634
23186WAT      O69799   9.203   2.697   4.355
23186WAT     H169800   9.119   2.749   4.369
23186WAT     H269801   9.276   2.735   4.412
23187WAT      O69802   3.149   6.067   7.226
23187WAT     H169803   3.135   6.113   7.313
23187WAT     H269804   3.109   6.122   7.152
23188WAT      O69805   2.539   3.939   9.661
23188WAT     H169806   2.547   4.031   9.699
23188WAT     H269807   2.630   3.907   9.633
23189WAT      O69808   6.188   0.251   1.831
23189WAT     H169809   6.152   0.329   1.780
23189WAT     H269810   6.172   0.266   1.929
23190WAT      O69811   0.957   9.412   5.603
23190WAT     H169812   0.915   9.341   5.547
23190WAT     H269813   0.912   9.414   5.693
23191WAT      O69814   7.984   2.429   6.691
23191WAT     H169815   8.018   2.339   6.718
23191WAT     H269816   8.050   2.473   6.630
23192WAT      O69817   4.097   7.164   3.749
23192WAT     H169818   4.114   7.240   3.812
23192WAT     H269819   4.018   7.111   3.781
23193WAT      O69820   3.064   7.384   2.489
23193WAT     H169821   3.086   7.290   2.460
23193WAT     H269822   3.118   7.448   2.434
23194WAT      O69823   7.274   3.969   8.842
23194WAT     H169824   7.308   3.945   8.751
23194WAT     H269825   7.330   3.922   8.911
23195WAT      O69826   1.540   5.064   6.102
23195WAT     H169827   1.632   5.034   6.128
23195WAT     H269828   1.498   4.995   6.043
23196WAT      O69829   4.067   5.764   0.842
23196WAT     H169830   4.126   5.753   0.923
23196WAT     H269831   3.971   5.757   0.870
23197WAT      O69832   6.477   5.882   9.066
23197WAT     H169833   6.446   5.793   9.033
23197WAT     H269834   6.544   5.920   9.002
23198WAT      O69835   3.093   9.836   5.324
23198WAT     H169836   3.123   9.769   5.391
23198WAT     H269837   3.097   9.795   5.232
23199WAT      O69838   4.147   5.349   9.395
23199WAT     H169839   4.155   5.425   9.330
23199WAT     H269840   4.113   5.268   9.347
23200WAT      O69841   2.994   0.636   2.333
23200WAT     H169842   2.962   0.543   2.347
23200WAT     H269843   2.918   0.694   2.304
23201WAT      O69844   9.050   5.193   3.108
23201WAT     H169845   9.084   5.272   3.159
23201WAT     H269846   9.043   5.217   3.011
23202WAT      O69847   6.907   5.733   3.037
23202WAT     H169848   6.974   5.659   3.038
23202WAT     H269849   6.818   5.697   3.009
23203WAT      O69850   4.043   7.978   7.818
23203WAT     H169851   4.036   8.010   7.723
23203WAT     H269852   3.990   7.894   7.829
23204WAT      O69853   5.427   5.205   7.195
23204WAT     H169854   5.415   5.291   7.244
23204WAT     H269855   5.394   5.215   7.102
23205WAT      O69856   4.935   9.614   1.421
23205WAT     H169857   4.867   9.679   1.455
23205WAT     H269858   4.918   9.524   1.461
23206WAT      O69859   1.372   6.596   8.647
23206WAT     H169860   1.470   6.601   8.669
23206WAT     H269861   1.338   6.505   8.670
23207WAT      O69862   0.902   3.993   3.311
23207WAT     H169863   0.922   3.971   3.216
23207WAT     H269864   0.987   3.998   3.363
23208WAT      O69865   9.260   5.844   4.445
23208WAT     H169866   9.333   5.819   4.508
23208WAT     H269867   9.274   5.938   4.413
23209WAT      O69868   0.842   6.299   8.724
23209WAT     H169869   0.748   6.274   8.701
23209WAT     H269870   0.905   6.256   8.659
23210WAT      O69871   7.799   0.245   4.368
23210WAT     H169872   7.771   0.157   4.405
23210WAT     H269873   7.719   0.305   4.360
23211WAT      O69874   1.303   3.199   9.024
23211WAT     H169875   1.349   3.200   8.936
23211WAT     H269876   1.217   3.249   9.018
23212WAT      O69877   3.319   6.744   1.687
23212WAT     H169878   3.418   6.730   1.692
23212WAT     H269879   3.276   6.667   1.641
23213WAT      O69880   9.546   5.436   1.758
23213WAT     H169881   9.573   5.522   1.715
23213WAT     H269882   9.617   5.367   1.742
23214WAT      O69883   7.324   9.002   2.948
23214WAT     H169884   7.378   9.043   2.875
23214WAT     H269885   7.381   8.988   3.029
23215WAT      O69886   6.829   5.460   7.428
23215WAT     H169887   6.865   5.475   7.335
23215WAT     H269888   6.802   5.548   7.467
23216WAT      O69889   5.741   0.486   7.208
23216WAT     H169890   5.800   0.409   7.184
23216WAT     H269891   5.676   0.503   7.135
23217WAT      O69892   8.728   0.921   8.006
23217WAT     H169893   8.750   0.867   8.087
23217WAT     H269894   8.801   0.912   7.938
23218WAT      O69895   8.823   7.001   4.672
23218WAT     H169896   8.760   7.078   4.678
23218WAT     H269897   8.881   6.998   4.753
23219WAT      O69898   1.160   5.037   5.906
23219WAT     H169899   1.094   5.037   5.831
23219WAT     H269900   1.132   5.103   5.976
23220WAT      O69901   8.715   8.049   7.132
23220WAT     H169902   8.666   7.963   7.122
23220WAT     H269903   8.659   8.124   7.097
23221WAT      O69904   4.876   8.741   9.705
23221WAT     H169905   4.880   8.779   9.613
23221WAT     H269906   4.805   8.671   9.709
23222WAT      O69907   8.408   4.713   2.956
23222WAT     H169908   8.391   4.812   2.962
23222WAT     H269909   8.323   4.666   2.933
23223WAT      O69910   9.365   3.837   2.789
23223WAT     H169911   9.463   3.816   2.799
23223WAT     H269912   9.354   3.911   2.723
23224WAT      O69913   5.715   7.227   7.279
23224WAT     H169914   5.772   7.292   7.228
23224WAT     H269915   5.772   7.152   7.313
23225WAT      O69916   2.514   1.955   8.832
23225WAT     H169917   2.482   2.049   8.847
23225WAT     H269918   2.596   1.956   8.776
23226WAT      O69919   6.314   4.711   3.044
23226WAT     H169920   6.291   4.808   3.051
23226WAT     H269921   6.362   4.681   3.126
23227WAT      O69922   1.680   1.314   9.051
23227WAT     H169923   1.718   1.388   9.107
23227WAT     H269924   1.692   1.227   9.098
23228WAT      O69925   7.710   5.361   5.537
23228WAT     H169926   7.730   5.343   5.633
23228WAT     H269927   7.612   5.354   5.521
23229WAT      O69928   4.478   1.524   8.472
23229WAT     H169929   4.544   1.571   8.531
23229WAT     H269930   4.472   1.572   8.384
23230WAT      O69931   5.110   1.511   2.759
23230WAT     H169932   5.142   1.463   2.841
23230WAT     H269933   5.161   1.478   2.679
23231WAT      O69934   6.081   2.948   5.993
23231WAT     H169935   6.059   2.993   5.907
23231WAT     H269936   5.997   2.935   6.046
23232WAT      O69937   6.461   3.616   0.425
23232WAT     H169938   6.486   3.666   0.342
23232WAT     H269939   6.394   3.545   0.402
23233WAT      O69940   4.041   9.497   0.631
23233WAT     H169941   4.107   9.570   0.644
23233WAT     H269942   4.057   9.424   0.698
23234WAT      O69943   6.891   2.097   2.452
23234WAT     H169944   6.843   2.184   2.465
23234WAT     H269945   6.974   2.096   2.506
23235WAT      O69946   4.850   0.778   0.934
23235WAT     H169947   4.795   0.706   0.891
23235WAT     H269948   4.926   0.803   0.874
23236WAT      O69949   8.708   7.463   7.990
23236WAT     H169950   8.655   7.526   7.933
23236WAT     H269951   8.805   7.487   7.984
23237WAT      O69952   3.398   1.542   0.064
23237WAT     H169953   3.342   1.466   0.097
23237WAT     H269954   3.479   1.506   0.019
23238WAT      O69955   0.475   3.428   6.830
23238WAT     H169956   0.468   3.480   6.744
23238WAT     H269957   0.430   3.340   6.819
23239WAT      O69958   9.882   4.506   3.596
23239WAT     H169959   9.864   4.422   3.544
23239WAT     H269960   9.911   4.578   3.534
23240WAT      O69961   2.165   2.097   1.154
23240WAT     H169962   2.210   2.068   1.238
23240WAT     H269963   2.086   2.038   1.136
23241WAT      O69964   2.695   3.921   8.039
23241WAT     H169965   2.673   3.886   7.948
23241WAT     H269966   2.726   3.846   8.098
23242WAT      O69967   2.007   4.019   6.455
23242WAT     H169968   1.922   3.996   6.407
23242WAT     H269969   2.060   4.083   6.399
23243WAT      O69970   5.445   2.953   4.434
23243WAT     H169971   5.520   3.006   4.473
23243WAT     H269972   5.363   3.010   4.431
23244WAT      O69973   3.676   5.491   0.840
23244WAT     H169974   3.627   5.439   0.910
23244WAT     H269975   3.759   5.441   0.813
23245WAT      O69976   5.978   9.618   6.073
23245WAT     H169977   5.971   9.686   5.999
23245WAT     H269978   5.930   9.652   6.154
23246WAT      O69979   8.519   9.038   3.691
23246WAT     H169980   8.588   9.089   3.639
23246WAT     H269981   8.543   9.039   3.788
23247WAT      O69982   1.119   6.408   5.434
23247WAT     H169983   1.104   6.387   5.530
23247WAT     H269984   1.179   6.488   5.426
23248WAT      O69985   0.956   6.405   4.037
23248WAT     H169986   1.013   6.358   3.970
23248WAT     H269987   1.000   6.403   4.127
23249WAT      O69988   5.894   5.989   3.996
23249WAT     H169989   5.829   6.063   4.016
23249WAT     H269990   5.986   6.018   4.021
23250WAT      O69991   3.017   2.988   9.572
23250WAT     H169992   2.924   2.998   9.607
23250WAT     H269993   3.020   3.017   9.476
23251WAT      O69994   1.297   8.591   2.666
23251WAT     H169995   1.264   8.508   2.621
23251WAT     H269996   1.349   8.646   2.600
23252WAT      O69997   6.945   5.389   0.718
23252WAT     H169998   6.999   5.312   0.683
23252WAT     H269999   6.964   5.470   0.663
23253WAT      O70000   5.624   3.985   2.046
23253WAT     H170001   5.591   3.891   2.058
23253WAT     H270002   5.697   4.003   2.112
23254WAT      O70003   8.961   7.670   7.217
23254WAT     H170004   9.000   7.761   7.236
23254WAT     H270005   8.870   7.664   7.259
23255WAT      O70006   9.817   7.858   8.003
23255WAT     H170007   9.808   7.759   8.005
23255WAT     H270008   9.881   7.888   8.074
23256WAT      O70009   8.404   6.518   3.237
23256WAT     H170010   8.355   6.449   3.291
23256WAT     H270011   8.502   6.508   3.250
23257WAT      O70012   2.054   2.085   1.786
23257WAT     H170013   2.070   2.182   1.768
23257WAT     H270014   2.049   2.071   1.885
23258WAT      O70015   1.826   5.723   5.735
23258WAT     H170016   1.850   5.720   5.638
23258WAT     H270017   1.727   5.722   5.746
23259WAT      O70018   9.716   7.147   3.866
23259WAT     H170019   9.745   7.217   3.802
23259WAT     H270020   9.790   7.081   3.880
23260WAT      O70021   8.706   8.331   3.071
23260WAT     H170022   8.790   8.362   3.115
23260WAT     H270023   8.691   8.382   2.987
23261WAT      O70024   8.031   9.453   2.496
23261WAT     H170025   7.975   9.458   2.413
23261WAT     H270026   8.064   9.544   2.518
23262WAT      O70027   7.548   7.161   6.896
23262WAT     H170028   7.456   7.160   6.856
23262WAT     H270029   7.579   7.255   6.905
23263WAT      O70030   4.723   4.865   1.461
23263WAT     H170031   4.625   4.861   1.482
23263WAT     H270032   4.736   4.854   1.362
23264WAT      O70033   2.126   0.642   7.920
23264WAT     H170034   2.145   0.549   7.891
23264WAT     H270035   2.097   0.697   7.841
23265WAT      O70036   6.611   5.345   6.198
23265WAT     H170037   6.565   5.395   6.272
23265WAT     H270038   6.545   5.284   6.153
23266WAT      O70039   3.932   6.710   0.820
23266WAT     H170040   3.950   6.621   0.861
23266WAT     H270041   3.878   6.699   0.737
23267WAT      O70042   2.574   7.441   5.885
23267WAT     H170043   2.501   7.408   5.824
23267WAT     H270044   2.534   7.493   5.960
23268WAT      O70045   7.637   0.413   0.987
23268WAT     H170046   7.707   0.388   0.920
23268WAT     H270047   7.671   0.486   1.046
23269WAT      O70048   9.499   2.504   3.060
23269WAT     H170049   9.436   2.475   2.988
23269WAT     H270050   9.448   2.538   3.139
23270WAT      O70051   1.390   4.864   0.474
23270WAT     H170052   1.303   4.839   0.516
23270WAT     H270053   1.378   4.875   0.376
23271WAT      O70054   6.766   2.523   7.425
23271WAT     H170055   6.829   2.458   7.468
23271WAT     H270056   6.725   2.481   7.344
23272WAT      O70057   5.004   9.126   0.620
23272WAT     H170058   4.931   9.092   0.679
23272WAT     H270059   4.997   9.082   0.531
23273WAT      O70060   2.238   8.719   9.690
23273WAT     H170061   2.319   8.661   9.700
23273WAT     H270062   2.216   8.728   9.593
23274WAT      O70063   3.566   4.476   1.472
23274WAT     H170064   3.571   4.502   1.376
23274WAT     H270065   3.604   4.384   1.484
23275WAT      O70066   1.216   9.091   9.827
23275WAT     H170067   1.118   9.077   9.808
23275WAT     H270068   1.238   9.188   9.816
23276WAT      O70069   6.464   0.288   1.024
23276WAT     H170070   6.371   0.288   0.987
23276WAT     H270071   6.526   0.242   0.961
23277WAT      O70072   0.783   5.735   4.068
23277WAT     H170073   0.755   5.792   4.144
23277WAT     H270074   0.781   5.639   4.096
23278WAT      O70075   7.883   5.032   3.504
23278WAT     H170076   7.914   5.021   3.599
23278WAT     H270077   7.799   4.979   3.490
23279WAT      O70078   9.390   7.899   8.593
23279WAT     H170079   9.488   7.915   8.590
23279WAT     H270080   9.372   7.801   8.600
23280WAT      O70081   8.225   4.518   7.878
23280WAT     H170082   8.172   4.498   7.796
23280WAT     H270083   8.231   4.617   7.891
23281WAT      O70084   6.839   9.782   7.612
23281WAT     H170085   6.760   9.839   7.589
23281WAT     H270086   6.914   9.840   7.645
23282WAT      O70087   5.445   5.716   9.425
23282WAT     H170088   5.395   5.796   9.393
23282WAT     H270089   5.543   5.735   9.424
23283WAT      O70090   8.289   8.412   5.933
23283WAT     H170091   8.336   8.480   5.877
23283WAT     H270092   8.332   8.323   5.921
23284WAT      O70093   2.051   8.195   0.076
23284WAT     H170094   1.988   8.123   0.104
23284WAT     H270095   2.076   8.183  -0.020
23285WAT      O70096   9.707   5.518   7.409
23285WAT     H170097   9.739   5.607   7.442
23285WAT     H270098   9.725   5.512   7.311
23286WAT      O70099   9.424   4.491   4.316
23286WAT     H170100   9.331   4.466   4.291
23286WAT     H270101   9.423   4.549   4.397
23287WAT      O70102   7.381   4.177   4.576
23287WAT     H170103   7.449   4.150   4.507
23287WAT     H270104   7.424   4.176   4.666
23288WAT      O70105   0.071   4.570   7.468
23288WAT     H170106  -0.022   4.536   7.481
23288WAT     H270107   0.132   4.525   7.532
23289WAT      O70108   0.772   9.007   6.370
23289WAT     H170109   0.847   9.072   6.359
23289WAT     H270110   0.806   8.915   6.352
23290WAT      O70111   3.280   1.977   5.350
23290WAT     H170112   3.296   1.924   5.267
23290WAT     H270113   3.223   1.925   5.413
23291WAT      O70114   7.351   8.806   4.628
23291WAT     H170115   7.408   8.793   4.709
23291WAT     H270116   7.397   8.767   4.548
23292WAT      O70117   4.914   3.093   6.679
23292WAT     H170118   4.903   3.021   6.611
23292WAT     H270119   4.931   3.180   6.632
23293WAT      O70120   3.914   3.953   7.902
23293WAT     H170121   3.903   3.856   7.922
23293WAT     H270122   3.955   3.999   7.981
23294WAT      O70123   9.391   6.645   9.074
23294WAT     H170124   9.433   6.610   9.158
23294WAT     H270125   9.459   6.648   9.001
23295WAT      O70126   2.150   7.012   1.633
23295WAT     H170127   2.106   6.939   1.581
23295WAT     H270128   2.096   7.095   1.626
23296WAT      O70129   0.377   9.628   7.146
23296WAT     H170130   0.281   9.615   7.172
23296WAT     H270131   0.414   9.708   7.193
23297WAT      O70132   6.575   5.494   7.262
23297WAT     H170133   6.663   5.493   7.310
23297WAT     H270134   6.505   5.452   7.320
23298WAT      O70135   7.804   5.634   9.729
23298WAT     H170136   7.863   5.553   9.737
23298WAT     H270137   7.853   5.714   9.764
23299WAT      O70138   2.265   5.042   2.180
23299WAT     H170139   2.199   5.034   2.255
23299WAT     H270140   2.309   5.131   2.183
23300WAT      O70141   1.343   3.523   2.160
23300WAT     H170142   1.281   3.575   2.218
23300WAT     H270143   1.353   3.569   2.072
23301WAT      O70144   1.949   7.560   5.150
23301WAT     H170145   1.966   7.473   5.195
23301WAT     H270146   1.978   7.635   5.209
23302WAT      O70147   0.496   6.034   7.681
23302WAT     H170148   0.415   5.995   7.724
23302WAT     H270149   0.575   5.978   7.701
23303WAT      O70150   1.603   4.794   0.817
23303WAT     H170151   1.687   4.812   0.765
23303WAT     H270152   1.549   4.725   0.769
23304WAT      O70153   4.390   9.694   7.054
23304WAT     H170154   4.375   9.645   6.968
23304WAT     H270155   4.303   9.706   7.101
23305WAT      O70156   9.548   8.995   0.121
23305WAT     H170157   9.585   8.903   0.133
23305WAT     H270158   9.623   9.060   0.107
23306WAT      O70159   3.141   1.136   3.927
23306WAT     H170160   3.082   1.216   3.939
23306WAT     H270161   3.182   1.110   4.014
23307WAT      O70162   9.209   6.433   5.813
23307WAT     H170163   9.160   6.386   5.739
23307WAT     H270164   9.211   6.531   5.795
23308WAT      O70165   6.846   1.485   9.109
23308WAT     H170166   6.927   1.429   9.095
23308WAT     H270167   6.764   1.428   9.105
23309WAT      O70168   4.941   7.111   6.013
23309WAT     H170169   4.911   7.018   5.994
23309WAT     H270170   4.865   7.164   6.052
23310WAT      O70171   8.429   8.867   1.100
23310WAT     H170172   8.387   8.785   1.137
23310WAT     H270173   8.377   8.898   1.020
23311WAT      O70174   8.015   0.994   6.970
23311WAT     H170175   7.951   1.070   6.978
23311WAT     H270176   7.968   0.914   6.934
23312WAT      O70177   2.363   5.182   2.500
23312WAT     H170178   2.445   5.191   2.443
23312WAT     H270179   2.292   5.245   2.467
23313WAT      O70180   5.766   9.186   3.890
23313WAT     H170181   5.780   9.101   3.941
23313WAT     H270182   5.748   9.164   3.794
23314WAT      O70183   1.795   8.810   1.306
23314WAT     H170184   1.826   8.715   1.299
23314WAT     H270185   1.723   8.817   1.375
23315WAT      O70186   8.697   6.534   6.537
23315WAT     H170187   8.733   6.585   6.615
23315WAT     H270188   8.649   6.453   6.569
23316WAT      O70189   9.610   8.706   7.513
23316WAT     H170190   9.597   8.805   7.507
23316WAT     H270191   9.677   8.685   7.584
23317WAT      O70192   7.091   0.699   7.734
23317WAT     H170193   7.094   0.784   7.681
23317WAT     H270194   7.070   0.719   7.829
23318WAT      O70195   5.404   5.336   3.118
23318WAT     H170196   5.327   5.316   3.057
23318WAT     H270197   5.371   5.376   3.203
23319WAT      O70198   5.292   7.883   8.839
23319WAT     H170199   5.374   7.827   8.832
23319WAT     H270200   5.214   7.834   8.801
23320WAT      O70201   7.950   8.977   8.755
23320WAT     H170202   7.893   8.908   8.712
23320WAT     H270203   8.012   8.933   8.820
23321WAT      O70204   7.683   1.471   3.941
23321WAT     H170205   7.730   1.388   3.911
23321WAT     H270206   7.668   1.467   4.040
23322WAT      O70207   0.116   7.829   7.470
23322WAT     H170208   0.203   7.871   7.494
23322WAT     H270209   0.065   7.889   7.410
23323WAT      O70210   8.054   8.387   8.250
23323WAT     H170211   8.080   8.441   8.330
23323WAT     H270212   8.100   8.299   8.252
23324WAT      O70213   9.224   7.408   3.124
23324WAT     H170214   9.134   7.422   3.084
23324WAT     H270215   9.252   7.313   3.110
23325WAT      O70216   0.277   7.388   9.184
23325WAT     H170217   0.291   7.479   9.224
23325WAT     H270218   0.185   7.356   9.205
23326WAT      O70219   6.384   1.792   7.180
23326WAT     H170220   6.471   1.787   7.230
23326WAT     H270221   6.332   1.871   7.212
23327WAT      O70222   6.368   7.872   2.408
23327WAT     H170223   6.422   7.953   2.384
23327WAT     H270224   6.421   7.814   2.470
23328WAT      O70225   3.593   2.959   5.340
23328WAT     H170226   3.690   2.977   5.357
23328WAT     H270227   3.542   3.044   5.349
23329WAT      O70228   1.749   0.347   3.569
23329WAT     H170229   1.846   0.355   3.590
23329WAT     H270230   1.719   0.252   3.580
23330WAT      O70231   0.863   2.942   4.461
23330WAT     H170232   0.830   2.959   4.368
23330WAT     H270233   0.957   2.974   4.470
23331WAT      O70234   7.665   0.883   0.547
23331WAT     H170235   7.630   0.829   0.624
23331WAT     H270236   7.661   0.980   0.570
23332WAT      O70237   3.474   3.802   4.876
23332WAT     H170238   3.525   3.888   4.872
23332WAT     H270239   3.418   3.793   4.794
23333WAT      O70240   3.650   3.851   8.786
23333WAT     H170241   3.588   3.877   8.712
23333WAT     H270242   3.744   3.847   8.751
23334WAT      O70243   8.748   0.684   7.278
23334WAT     H170244   8.667   0.741   7.295
23334WAT     H270245   8.718   0.591   7.258
23335WAT      O70246   1.356   2.628   0.898
23335WAT     H170247   1.264   2.667   0.899
23335WAT     H270248   1.411   2.671   0.970
23336WAT      O70249   9.615   6.506   2.912
23336WAT     H170250   9.704   6.468   2.937
23336WAT     H270251   9.628   6.585   2.853
23337WAT      O70252   7.617   9.706   1.806
23337WAT     H170253   7.700   9.651   1.795
23337WAT     H270254   7.554   9.686   1.731
23338WAT      O70255   3.293   1.131   6.501
23338WAT     H170256   3.342   1.044   6.508
23338WAT     H270257   3.248   1.151   6.588
23339WAT      O70258   9.431   7.345   9.242
23339WAT     H170259   9.514   7.399   9.235
23339WAT     H270260   9.358   7.389   9.190
23340WAT      O70261   4.631   5.459   2.649
23340WAT     H170262   4.630   5.425   2.743
23340WAT     H270263   4.723   5.449   2.612
23341WAT      O70264   9.397   8.952   7.922
23341WAT     H170265   9.400   9.045   7.960
23341WAT     H270266   9.310   8.909   7.947
23342WAT      O70267   1.005   7.815   1.415
23342WAT     H170268   1.010   7.767   1.503
23342WAT     H270269   1.069   7.773   1.351
23343WAT      O70270   3.897   1.828   5.849
23343WAT     H170271   3.976   1.883   5.877
23343WAT     H270272   3.911   1.794   5.756
23344WAT      O70273   7.150   3.034   8.900
23344WAT     H170274   7.198   2.958   8.945
23344WAT     H270275   7.122   3.006   8.809
23345WAT      O70276   9.254   6.186   5.935
23345WAT     H170277   9.352   6.179   5.952
23345WAT     H270278   9.234   6.275   5.893
23346WAT      O70279   7.449   6.138   6.647
23346WAT     H170280   7.481   6.161   6.739
23346WAT     H270281   7.526   6.109   6.591
23347WAT      O70282   2.962   6.415   5.284
23347WAT     H170283   2.891   6.346   5.296
23347WAT     H270284   2.949   6.462   5.196
23348WAT      O70285   0.178   1.064   4.563
23348WAT     H170286   0.164   0.986   4.624
23348WAT     H270287   0.275   1.087   4.560
23349WAT      O70288   7.428   6.561   7.892
23349WAT     H170289   7.356   6.570   7.823
23349WAT     H270290   7.505   6.511   7.854
23350WAT      O70291   8.997   6.855   6.492
23350WAT     H170292   9.010   6.936   6.550
23350WAT     H270293   8.899   6.838   6.480
23351WAT      O70294   7.598   4.215   5.996
23351WAT     H170295   7.597   4.301   6.047
23351WAT     H270296   7.537   4.150   6.040
23352WAT      O70297   5.434   1.164   6.698
23352WAT     H170298   5.373   1.086   6.709
23352WAT     H270299   5.447   1.183   6.601
23353WAT      O70300   7.154   7.959   0.007
23353WAT     H170301   7.078   8.024   0.009
23353WAT     H270302   7.186   7.942   0.100
23354WAT      O70303   9.054   5.390   6.214
23354WAT     H170304   9.148   5.376   6.182
23354WAT     H270305   8.990   5.351   6.147
23355WAT      O70306   3.049   8.858   8.545
23355WAT     H170307   2.996   8.777   8.574
23355WAT     H270308   3.049   8.925   8.619
23356WAT      O70309   7.267   4.054   3.650
23356WAT     H170310   7.221   4.102   3.575
23356WAT     H270311   7.364   4.045   3.628
23357WAT      O70312   7.810   1.571   1.301
23357WAT     H170313   7.765   1.654   1.334
23357WAT     H270314   7.798   1.564   1.202
23358WAT      O70315   2.716   1.062   8.094
23358WAT     H170316   2.732   0.984   8.034
23358WAT     H270317   2.623   1.055   8.132
23359WAT      O70318   3.790   4.801   8.800
23359WAT     H170319   3.868   4.744   8.775
23359WAT     H270320   3.801   4.892   8.760
23360WAT      O70321   1.664   3.120   4.174
23360WAT     H170322   1.619   3.062   4.106
23360WAT     H270323   1.642   3.087   4.265
23361WAT      O70324   2.022   5.256   5.705
23361WAT     H170325   2.055   5.325   5.769
23361WAT     H270326   2.067   5.169   5.723
23362WAT      O70327   5.832   4.443   6.333
23362WAT     H170328   5.794   4.381   6.265
23362WAT     H270329   5.837   4.396   6.421
23363WAT      O70330   4.026   7.097   6.103
23363WAT     H170331   3.982   7.053   6.025
23363WAT     H270332   4.109   7.047   6.127
23364WAT      O70333   7.631   9.357   7.033
23364WAT     H170334   7.656   9.274   7.082
23364WAT     H270335   7.645   9.436   7.092
23365WAT      O70336   2.805   1.008   1.335
23365WAT     H170337   2.762   0.967   1.416
23365WAT     H270338   2.897   1.041   1.359
23366WAT      O70339   2.463   4.208   7.017
23366WAT     H170340   2.393   4.237   7.082
23366WAT     H270341   2.462   4.269   6.938
23367WAT      O70342   0.363   6.972   2.164
23367WAT     H170343   0.299   7.047   2.180
23367WAT     H270344   0.354   6.904   2.236
23368WAT      O70345   4.256   0.673   5.241
23368WAT     H170346   4.278   0.579   5.216
23368WAT     H270347   4.240   0.727   5.158
23369WAT      O70348   0.767   4.369   7.882
23369WAT     H170349   0.798   4.294   7.941
23369WAT     H270350   0.816   4.365   7.795
23370WAT      O70351   4.798   7.760   7.163
23370WAT     H170352   4.859   7.779   7.086
23370WAT     H270353   4.852   7.724   7.239
23371WAT      O70354   5.734   5.118   6.901
23371WAT     H170355   5.664   5.183   6.872
23371WAT     H270356   5.747   5.049   6.831
23372WAT      O70357   6.602   3.283   0.312
23372WAT     H170358   6.600   3.308   0.215
23372WAT     H270359   6.536   3.210   0.329
23373WAT      O70360   5.667   7.939   5.632
23373WAT     H170361   5.624   7.939   5.542
23373WAT     H270362   5.638   8.020   5.683
23374WAT      O70363   4.340   5.103   7.818
23374WAT     H170364   4.265   5.149   7.770
23374WAT     H270365   4.305   5.019   7.861
23375WAT      O70366   6.965   9.803   0.286
23375WAT     H170367   6.957   9.703   0.286
23375WAT     H270368   6.884   9.842   0.243
23376WAT      O70369   6.402   6.253   8.094
23376WAT     H170370   6.486   6.293   8.130
23376WAT     H270371   6.356   6.200   8.167
23377WAT      O70372   6.285   7.063   6.887
23377WAT     H170373   6.217   7.086   6.816
23377WAT     H270374   6.342   7.143   6.905
23378WAT      O70375   8.589   7.752   2.783
23378WAT     H170376   8.545   7.680   2.729
23378WAT     H270377   8.532   7.834   2.781
23379WAT      O70378   9.724   4.506   5.226
23379WAT     H170379   9.629   4.526   5.203
23379WAT     H270380   9.741   4.530   5.322
23380WAT      O70381   7.593   2.411   0.588
23380WAT     H170382   7.649   2.343   0.635
23380WAT     H270383   7.515   2.365   0.545
23381WAT      O70384   7.726   4.088   0.171
23381WAT     H170385   7.725   4.033   0.255
23381WAT     H270386   7.790   4.164   0.183
23382WAT      O70387   2.825   5.294   2.408
23382WAT     H170388   2.852   5.298   2.312
23382WAT     H270389   2.895   5.245   2.460
23383WAT      O70390   9.356   1.801   5.461
23383WAT     H170391   9.403   1.889   5.469
23383WAT     H270392   9.257   1.815   5.464
23384WAT      O70393   7.508   2.616   0.398
23384WAT     H170394   7.534   2.575   0.485
23384WAT     H270395   7.569   2.693   0.377
23385WAT      O70396   4.799   1.493   8.408
23385WAT     H170397   4.839   1.409   8.446
23385WAT     H270398   4.758   1.546   8.482
23386WAT      O70399   3.103   5.828   4.036
23386WAT     H170400   3.091   5.849   4.133
23386WAT     H270401   3.028   5.768   4.005
23387WAT      O70402   1.506   8.966   3.900
23387WAT     H170403   1.584   9.015   3.862
23387WAT     H270404   1.485   9.003   3.991
23388WAT      O70405   5.792   4.919   3.561
23388WAT     H170406   5.705   4.869   3.565
23388WAT     H270407   5.793   4.977   3.480
23389WAT      O70408   8.977   3.940   1.857
23389WAT     H170409   8.973   3.891   1.945
23389WAT     H270410   8.932   3.885   1.787
23390WAT      O70411   8.621   1.430   7.895
23390WAT     H170412   8.587   1.490   7.967
23390WAT     H270413   8.545   1.400   7.837
23391WAT      O70414   3.907   5.748   3.490
23391WAT     H170415   3.831   5.806   3.461
23391WAT     H270416   3.943   5.780   3.578
23392WAT      O70417   8.030   4.718   7.493
23392WAT     H170418   8.104   4.668   7.448
23392WAT     H270419   8.058   4.742   7.586
23393WAT      O70420   3.100   7.553   5.641
23393WAT     H170421   3.187   7.529   5.684
23393WAT     H270422   3.025   7.522   5.699
23394WAT      O70423   9.829   5.194   3.119
23394WAT     H170424   9.739   5.222   3.084
23394WAT     H270425   9.848   5.243   3.204
23395WAT      O70426   2.667   0.415   1.977
23395WAT     H170427   2.619   0.450   2.057
23395WAT     H270428   2.680   0.488   1.911
23396WAT      O70429   0.295   6.655   7.924
23396WAT     H170430   0.230   6.645   7.999
23396WAT     H270431   0.375   6.707   7.955
23397WAT      O70432   9.730   3.832   1.722
23397WAT     H170433   9.634   3.858   1.726
23397WAT     H270434   9.738   3.736   1.698
23398WAT      O70435   7.344   9.283   3.473
23398WAT     H170436   7.318   9.317   3.563
23398WAT     H270437   7.310   9.190   3.461
23399WAT      O70438   5.267   9.150   5.238
23399WAT     H170439   5.216   9.064   5.236
23399WAT     H270440   5.291   9.176   5.145
23400WAT      O70441   5.938   1.017   7.909
23400WAT     H170442   5.917   1.104   7.953
23400WAT     H270443   5.853   0.975   7.877
23401WAT      O70444   1.860   8.724   9.109
23401WAT     H170445   1.896   8.790   9.174
23401WAT     H270446   1.763   8.743   9.092
23402WAT      O70447   2.859   3.810   2.564
23402WAT     H170448   2.848   3.895   2.616
23402WAT     H270449   2.801   3.812   2.483
23403WAT      O70450   7.075   1.532   4.875
23403WAT     H170451   7.050   1.492   4.787
23403WAT     H270452   6.999   1.589   4.908
23404WAT      O70453   7.523   6.570   4.699
23404WAT     H170454   7.456   6.505   4.663
23404WAT     H270455   7.527   6.650   4.640
23405WAT      O70456   7.083   6.716   0.359
23405WAT     H170457   7.125   6.627   0.344
23405WAT     H270458   7.031   6.743   0.278
23406WAT      O70459   4.924   5.774   8.054
23406WAT     H170460   4.923   5.677   8.031
23406WAT     H270461   4.987   5.789   8.131
23407WAT      O70462   9.725   9.797   8.210
23407WAT     H170463   9.810   9.750   8.233
23407WAT     H270464   9.649   9.733   8.216
23408WAT      O70465   5.068   0.415   2.858
23408WAT     H170466   5.047   0.488   2.922
23408WAT     H270467   5.081   0.329   2.908
23409WAT      O70468   3.084   3.732   6.533
23409WAT     H170469   3.009   3.775   6.583
23409WAT     H270470   3.062   3.636   6.515
23410WAT      O70471   4.238   1.294   5.883
23410WAT     H170472   4.327   1.329   5.914
23410WAT     H270473   4.220   1.207   5.927
23411WAT      O70474   5.600   9.288   3.194
23411WAT     H170475   5.581   9.385   3.205
23411WAT     H270476   5.616   9.268   3.097
23412WAT      O70477   9.356   0.657   3.833
23412WAT     H170478   9.329   0.700   3.747
23412WAT     H270479   9.405   0.723   3.890
23413WAT      O70480   3.789   1.423   9.390
23413WAT     H170481   3.761   1.487   9.319
23413WAT     H270482   3.861   1.364   9.355
23414WAT      O70483   9.441   4.305   8.164
23414WAT     H170484   9.357   4.276   8.209
23414WAT     H270485   9.510   4.329   8.232
23415WAT      O70486   8.198   5.182   4.979
23415WAT     H170487   8.269   5.244   4.947
23415WAT     H270488   8.134   5.164   4.904
23416WAT      O70489   1.033   1.192   5.277
23416WAT     H170490   1.043   1.094   5.290
23416WAT     H270491   1.086   1.221   5.198
23417WAT      O70492   1.088   3.450   3.536
23417WAT     H170493   1.124   3.358   3.553
23417WAT     H270494   0.989   3.446   3.528
23418WAT      O70495   5.069   9.005   2.870
23418WAT     H170496   5.005   8.974   2.941
23418WAT     H270497   5.154   8.954   2.877
23419WAT      O70498   3.870   9.189   3.617
23419WAT     H170499   3.805   9.264   3.600
23419WAT     H270500   3.912   9.201   3.707
23420WAT      O70501   6.730   9.640   9.575
23420WAT     H170502   6.745   9.732   9.539
23420WAT     H270503   6.748   9.639   9.674
23421WAT      O70504   9.206   5.787   9.734
23421WAT     H170505   9.238   5.775   9.640
23421WAT     H270506   9.267   5.849   9.782
23422WAT      O70507   1.076   6.286   3.832
23422WAT     H170508   1.154   6.226   3.809
23422WAT     H270509   0.991   6.239   3.808
23423WAT      O70510   2.915   1.341   2.165
23423WAT     H170511   2.889   1.398   2.087
23423WAT     H270512   2.835   1.323   2.222
23424WAT      O70513   4.293   9.327   8.051
23424WAT     H170514   4.207   9.277   8.050
23424WAT     H270515   4.326   9.334   8.145
23425WAT      O70516   5.119   1.967   6.738
23425WAT     H170517   5.186   1.906   6.781
23425WAT     H270518   5.060   2.006   6.809
23426WAT      O70519   2.801   0.051   2.424
23426WAT     H170520   2.788  -0.043   2.454
23426WAT     H270521   2.837   0.052   2.331
23427WAT      O70522   5.274   3.613   1.835
23427WAT     H170523   5.292   3.623   1.933
23427WAT     H270524   5.263   3.517   1.813
23428WAT      O70525   3.184   4.206   4.220
23428WAT     H170526   3.268   4.206   4.167
23428WAT     H270527   3.111   4.247   4.165
23429WAT      O70528   5.251   0.190   1.908
23429WAT     H170529   5.286   0.210   2.000
23429WAT     H270530   5.285   0.100   1.879
23430WAT      O70531   3.101   9.559   3.193
23430WAT     H170532   3.128   9.469   3.228
23430WAT     H270533   3.040   9.548   3.115
23431WAT      O70534   3.067   4.883   0.745
23431WAT     H170535   2.967   4.890   0.740
23431WAT     H270536   3.103   4.863   0.655
23432WAT      O70537   5.551   4.851   8.273
23432WAT     H170538   5.633   4.907   8.288
23432WAT     H270539   5.561   4.763   8.319
23433WAT      O70540   7.242   0.768   8.319
23433WAT     H170541   7.338   0.770   8.291
23433WAT     H270542   7.186   0.814   8.250
23434WAT      O70543   2.774   0.452   0.162
23434WAT     H170544   2.804   0.401   0.243
23434WAT     H270545   2.706   0.520   0.189
23435WAT      O70546   0.779   5.489   8.837
23435WAT     H170547   0.757   5.421   8.906
23435WAT     H270548   0.874   5.480   8.809
23436WAT      O70549   0.523   8.555   3.793
23436WAT     H170550   0.589   8.488   3.829
23436WAT     H270551   0.443   8.557   3.852
23437WAT      O70552   7.089   8.174   4.860
23437WAT     H170553   7.103   8.079   4.888
23437WAT     H270554   7.050   8.226   4.936
23438WAT      O70555   6.073   3.488   0.130
23438WAT     H170556   6.118   3.475   0.041
23438WAT     H270557   6.066   3.586   0.149
23439WAT      O70558   1.170   8.113   2.901
23439WAT     H170559   1.251   8.169   2.883
23439WAT     H270560   1.102   8.167   2.950
23440WAT      O70561   2.971   7.717   9.718
23440WAT     H170562   2.934   7.652   9.651
23440WAT     H270563   2.950   7.686   9.811
23441WAT      O70564   7.312   2.791   4.731
23441WAT     H170565   7.353   2.860   4.791
23441WAT     H270566   7.380   2.756   4.667
23442WAT      O70567   1.974   1.001   8.997
23442WAT     H170568   2.065   1.021   8.961
23442WAT     H270569   1.960   0.902   8.998
23443WAT      O70570   4.612   1.819   2.474
23443WAT     H170571   4.652   1.731   2.447
23443WAT     H270572   4.686   1.882   2.498
23444WAT      O70573   9.614   2.266   0.132
23444WAT     H170574   9.613   2.365   0.115
23444WAT     H270575   9.695   2.242   0.186
23445WAT      O70576   9.055   8.400   4.159
23445WAT     H170577   8.989   8.330   4.131
23445WAT     H270578   9.140   8.355   4.187
23446WAT      O70579   1.773   0.945   7.756
23446WAT     H170580   1.861   0.985   7.732
23446WAT     H270581   1.740   0.888   7.680
23447WAT      O70582   5.744   6.878   6.939
23447WAT     H170583   5.768   6.853   6.845
23447WAT     H270584   5.654   6.842   6.962
23448WAT      O70585   4.304   9.655   5.229
23448WAT     H170586   4.378   9.591   5.248
23448WAT     H270587   4.289   9.661   5.130
23449WAT      O70588   2.474   3.380   5.743
23449WAT     H170589   2.412   3.439   5.796
23449WAT     H270590   2.567   3.414   5.751
23450WAT      O70591   1.870   5.460   2.655
23450WAT     H170592   1.824   5.479   2.568
23450WAT     H270593   1.809   5.484   2.730
23451WAT      O70594   1.791   5.589   2.042
23451WAT     H170595   1.759   5.544   1.959
23451WAT     H270596   1.845   5.525   2.096
23452WAT      O70597   0.758   1.784   3.389
23452WAT     H170598   0.678   1.726   3.374
23452WAT     H270599   0.759   1.858   3.322
23453WAT      O70600   1.184   7.143   0.119
23453WAT     H170601   1.242   7.199   0.178
23453WAT     H270602   1.147   7.200   0.045
23454WAT      O70603   8.315   7.326   4.125
23454WAT     H170604   8.264   7.411   4.137
23454WAT     H270605   8.346   7.293   4.214
23455WAT      O70606   9.121   6.846   2.673
23455WAT     H170607   9.219   6.826   2.678
23455WAT     H270608   9.101   6.895   2.588
23456WAT      O70609   9.247   2.728   1.409
23456WAT     H170610   9.248   2.811   1.353
23456WAT     H270611   9.246   2.753   1.506
23457WAT      O70612   7.362   5.379   6.356
23457WAT     H170613   7.311   5.293   6.365
23457WAT     H270614   7.299   5.452   6.327
23458WAT      O70615   5.433   9.766   2.011
23458WAT     H170616   5.431   9.787   1.913
23458WAT     H270617   5.523   9.791   2.048
23459WAT      O70618   7.084   4.312   8.586
23459WAT     H170619   7.180   4.342   8.588
23459WAT     H270620   7.081   4.214   8.566
23460WAT      O70621   6.289   0.003   8.552
23460WAT     H170622   6.195   0.018   8.584
23460WAT     H270623   6.317   0.079   8.494
23461WAT      O70624   6.062   7.427   0.491
23461WAT     H170625   6.158   7.425   0.517
23461WAT     H270626   6.012   7.354   0.538
23462WAT      O70627   4.346   0.661   4.851
23462WAT     H170628   4.246   0.663   4.837
23462WAT     H270629   4.388   0.733   4.796
23463WAT      O70630   5.930   3.555   4.640
23463WAT     H170631   6.004   3.487   4.644
23463WAT     H270632   5.918   3.596   4.730
23464WAT      O70633   0.698   5.291   9.002
23464WAT     H170634   0.695   5.236   8.919
23464WAT     H270635   0.612   5.279   9.052
23465WAT      O70636   0.820   5.543   2.275
23465WAT     H170637   0.837   5.455   2.319
23465WAT     H270638   0.723   5.566   2.283
23466WAT      O70639   9.866   7.765   1.466
23466WAT     H170640   9.933   7.786   1.537
23466WAT     H270641   9.781   7.813   1.485
23467WAT      O70642   9.503   7.478   5.390
23467WAT     H170643   9.582   7.480   5.329
23467WAT     H270644   9.529   7.515   5.479
23468WAT      O70645   7.358   3.857   1.170
23468WAT     H170646   7.416   3.937   1.184
23468WAT     H270647   7.262   3.883   1.182
23469WAT      O70648   1.148   4.523   0.683
23469WAT     H170649   1.091   4.465   0.625
23469WAT     H270650   1.234   4.476   0.703
23470WAT      O70651   3.539   6.878   4.016
23470WAT     H170652   3.452   6.926   4.025
23470WAT     H270653   3.589   6.884   4.103
23471WAT      O70654   2.911   8.117   1.335
23471WAT     H170655   2.849   8.040   1.319
23471WAT     H270656   2.898   8.152   1.427
23472WAT      O70657   9.230   6.663   9.842
23472WAT     H170658   9.204   6.674   9.746
23472WAT     H270659   9.251   6.753   9.881
23473WAT      O70660   9.757   2.262   7.059
23473WAT     H170661   9.736   2.331   7.128
23473WAT     H270662   9.722   2.173   7.089
23474WAT      O70663   3.393   8.720   1.930
23474WAT     H170664   3.310   8.689   1.976
23474WAT     H270665   3.368   8.757   1.840
23475WAT      O70666   7.801   9.456   3.706
23475WAT     H170667   7.885   9.410   3.733
23475WAT     H270668   7.799   9.467   3.607
23476WAT      O70669   6.264   9.383   7.074
23476WAT     H170670   6.303   9.368   7.164
23476WAT     H270671   6.165   9.370   7.077
23477WAT      O70672   5.116   4.261   4.843
23477WAT     H170673   5.098   4.359   4.843
23477WAT     H270674   5.050   4.215   4.903
23478WAT      O70675   8.969   7.830   9.607
23478WAT     H170676   8.995   7.751   9.550
23478WAT     H270677   9.052   7.874   9.643
23479WAT      O70678   7.662   4.946   9.439
23479WAT     H170679   7.590   4.975   9.376
23479WAT     H270680   7.678   5.018   9.506
23480WAT      O70681   2.840   1.705   7.340
23480WAT     H170682   2.858   1.614   7.302
23480WAT     H270683   2.870   1.775   7.275
23481WAT      O70684  -0.003   0.266   0.661
23481WAT     H170685   0.086   0.289   0.621
23481WAT     H270686   0.006   0.255   0.760
23482WAT      O70687   3.028   8.413   2.570
23482WAT     H170688   3.127   8.408   2.557
23482WAT     H270689   2.998   8.336   2.626
23483WAT      O70690   4.480   4.504   4.976
23483WAT     H170691   4.533   4.443   4.917
23483WAT     H270692   4.509   4.493   5.071
23484WAT      O70693   0.613   6.372   6.162
23484WAT     H170694   0.528   6.423   6.162
23484WAT     H270695   0.594   6.274   6.152
23485WAT      O70696   7.559   0.841   3.775
23485WAT     H170697   7.621   0.908   3.735
23485WAT     H270698   7.535   0.868   3.868
23486WAT      O70699   6.628   5.888   2.382
23486WAT     H170700   6.667   5.795   2.386
23486WAT     H270701   6.668   5.944   2.455
23487WAT      O70702   5.143   2.917   2.226
23487WAT     H170703   5.182   3.004   2.254
23487WAT     H270704   5.205   2.842   2.251
23488WAT      O70705   7.014   6.442   0.109
23488WAT     H170706   6.989   6.346   0.092
23488WAT     H270707   6.945   6.484   0.167
23489WAT      O70708   9.781   4.493   5.512
23489WAT     H170709   9.752   4.520   5.604
23489WAT     H270710   9.814   4.399   5.514
23490WAT      O70711   8.113   6.709   7.121
23490WAT     H170712   8.117   6.772   7.198
23490WAT     H270713   8.019   6.702   7.088
23491WAT      O70714   7.283   6.261   5.583
23491WAT     H170715   7.334   6.210   5.652
23491WAT     H270716   7.228   6.332   5.627
23492WAT      O70717   2.741   8.720   0.850
23492WAT     H170718   2.735   8.820   0.853
23492WAT     H270719   2.795   8.688   0.929
23493WAT      O70720   0.358   7.729   3.266
23493WAT     H170721   0.346   7.653   3.201
23493WAT     H270722   0.281   7.792   3.258
23494WAT      O70723   5.392   3.604   0.899
23494WAT     H170724   5.489   3.578   0.901
23494WAT     H270725   5.370   3.659   0.979
23495WAT      O70726   4.193   8.464   9.885
23495WAT     H170727   4.207   8.365   9.875
23495WAT     H270728   4.159   8.501   9.798
23496WAT      O70729   3.553   9.499   6.272
23496WAT     H170730   3.579   9.486   6.367
23496WAT     H270731   3.589   9.587   6.239
23497WAT      O70732   0.550   9.827   0.685
23497WAT     H170733   0.649   9.814   0.687
23497WAT     H270734   0.509   9.761   0.623
23498WAT      O70735   8.530   4.267   5.630
23498WAT     H170736   8.457   4.202   5.614
23498WAT     H270737   8.596   4.229   5.695
23499WAT      O70738   1.900   6.319   1.066
23499WAT     H170739   1.838   6.371   1.126
23499WAT     H270740   1.863   6.228   1.052
23500WAT      O70741   3.216   8.787   3.488
23500WAT     H170742   3.287   8.785   3.557
23500WAT     H270743   3.131   8.820   3.528
23501WAT      O70744   3.139   6.070   1.283
23501WAT     H170745   3.053   6.097   1.241
23501WAT     H270746   3.121   6.007   1.358
23502WAT      O70747   5.799   8.662   7.644
23502WAT     H170748   5.856   8.593   7.689
23502WAT     H270749   5.789   8.741   7.704
23503WAT      O70750   8.212   0.732   5.244
23503WAT     H170751   8.232   0.638   5.274
23503WAT     H270752   8.288   0.791   5.269
23504WAT      O70753   4.580   5.171   7.747
23504WAT     H170754   4.623   5.098   7.800
23504WAT     H270755   4.482   5.152   7.737
23505WAT      O70756   9.745   0.194   1.687
23505WAT     H170757   9.755   0.292   1.708
23505WAT     H270758   9.653   0.164   1.711
23506WAT      O70759   5.741   4.520   1.331
23506WAT     H170760   5.744   4.454   1.406
23506WAT     H270761   5.812   4.497   1.264
23507WAT      O70762   0.489   6.051   3.510
23507WAT     H170763   0.396   6.043   3.473
23507WAT     H270764   0.488   6.023   3.606
23508WAT      O70765   6.530   9.132   6.118
23508WAT     H170766   6.479   9.083   6.188
23508WAT     H270767   6.601   9.188   6.160
23509WAT      O70768   7.689   1.457   1.652
23509WAT     H170769   7.711   1.524   1.722
23509WAT     H270770   7.623   1.497   1.588
23510WAT      O70771   8.289   7.796   3.110
23510WAT     H170772   8.380   7.822   3.078
23510WAT     H270773   8.235   7.763   3.032
23511WAT      O70774   2.891   8.058   8.047
23511WAT     H170775   2.852   8.149   8.037
23511WAT     H270776   2.817   7.991   8.054
23512WAT      O70777   3.315   1.368   0.754
23512WAT     H170778   3.358   1.283   0.782
23512WAT     H270779   3.351   1.396   0.665
23513WAT      O70780   3.356   6.514   5.481
23513WAT     H170781   3.288   6.545   5.547
23513WAT     H270782   3.313   6.505   5.391
23514WAT      O70783   8.679   7.621   2.018
23514WAT     H170784   8.622   7.547   1.982
23514WAT     H270785   8.750   7.643   1.952
23515WAT      O70786   2.028   1.777   6.301
23515WAT     H170787   2.015   1.828   6.216
23515WAT     H270788   1.944   1.726   6.322
23516WAT      O70789   8.119   7.904   7.952
23516WAT     H170790   8.073   7.989   7.925
23516WAT     H270791   8.106   7.835   7.881
23517WAT      O70792   5.151   0.580   7.605
23517WAT     H170793   5.243   0.598   7.641
23517WAT     H270794   5.135   0.482   7.601
23518WAT      O70795   1.063   8.599   3.553
23518WAT     H170796   1.032   8.541   3.478
23518WAT     H270797   1.049   8.695   3.529
23519WAT      O70798   5.772   5.593   0.722
23519WAT     H170799   5.691   5.565   0.670
23519WAT     H270800   5.831   5.650   0.665
23520WAT      O70801   9.358   0.731   0.616
23520WAT     H170802   9.276   0.722   0.672
23520WAT     H270803   9.387   0.827   0.615
23521WAT      O70804   1.482   0.596   3.598
23521WAT     H170805   1.579   0.594   3.574
23521WAT     H270806   1.450   0.503   3.617
23522WAT      O70807   9.330   3.185   4.101
23522WAT     H170808   9.314   3.198   4.004
23522WAT     H270809   9.402   3.246   4.132
23523WAT      O70810   8.414   6.776   3.996
23523WAT     H170811   8.374   6.771   3.904
23523WAT     H270812   8.343   6.800   4.062
23524WAT      O70813   5.208   8.278   5.569
23524WAT     H170814   5.131   8.297   5.507
23524WAT     H270815   5.194   8.325   5.656
23525WAT      O70816   0.285   2.769   7.628
23525WAT     H170817   0.262   2.754   7.725
23525WAT     H270818   0.261   2.863   7.602
23526WAT      O70819   2.753   3.275   0.308
23526WAT     H170820   2.821   3.334   0.265
23526WAT     H270821   2.710   3.324   0.384
23527WAT      O70822   7.992   8.608   2.941
23527WAT     H170823   8.077   8.634   2.986
23527WAT     H270824   7.928   8.570   3.008
23528WAT      O70825   2.699   0.036   5.061
23528WAT     H170826   2.635   0.030   4.984
23528WAT     H270827   2.782   0.083   5.032
23529WAT      O70828   3.622   8.487   4.279
23529WAT     H170829   3.550   8.487   4.211
23529WAT     H270830   3.668   8.398   4.279
23530WAT      O70831   5.618   3.103   6.260
23530WAT     H170832   5.664   3.045   6.193
23530WAT     H270833   5.590   3.047   6.338
23531WAT      O70834   0.956   1.765   2.745
23531WAT     H170835   1.048   1.742   2.778
23531WAT     H270836   0.903   1.681   2.734
23532WAT      O70837   6.020   4.265   1.914
23532WAT     H170838   5.927   4.292   1.941
23532WAT     H270839   6.018   4.173   1.875
23533WAT      O70840   4.817   3.377   7.814
23533WAT     H170841   4.782   3.336   7.730
23533WAT     H270842   4.915   3.395   7.806
23534WAT      O70843   0.907   5.984   2.999
23534WAT     H170844   0.858   6.029   3.074
23534WAT     H270845   0.935   6.052   2.932
23535WAT      O70846   2.675   6.900   4.165
23535WAT     H170847   2.757   6.869   4.117
23535WAT     H270848   2.702   6.959   4.242
23536WAT      O70849   2.798   0.791   9.271
23536WAT     H170850   2.824   0.696   9.254
23536WAT     H270851   2.702   0.794   9.299
23537WAT      O70852   3.771   7.229   8.177
23537WAT     H170853   3.742   7.240   8.273
23537WAT     H270854   3.736   7.306   8.123
23538WAT      O70855   4.765   8.727   4.698
23538WAT     H170856   4.683   8.784   4.702
23538WAT     H270857   4.836   8.767   4.756
23539WAT      O70858   0.082   6.949   1.660
23539WAT     H170859   0.150   6.950   1.587
23539WAT     H270860   0.068   7.042   1.694
23540WAT      O70861   7.556   4.030   3.623
23540WAT     H170862   7.639   4.070   3.585
23540WAT     H270863   7.567   3.931   3.629
23541WAT      O70864   1.166   6.202   1.842
23541WAT     H170865   1.230   6.204   1.764
23541WAT     H270866   1.207   6.151   1.917
23542WAT      O70867   9.470   8.208   8.345
23542WAT     H170868   9.399   8.189   8.412
23542WAT     H270869   9.556   8.166   8.374
23543WAT      O70870   7.031   1.539   7.970
23543WAT     H170871   7.033   1.638   7.981
23543WAT     H270872   7.075   1.514   7.883
23544WAT      O70873   3.210   1.892   8.572
23544WAT     H170874   3.220   1.853   8.481
23544WAT     H270875   3.289   1.949   8.593
23545WAT      O70876   8.400   2.932   2.057
23545WAT     H170877   8.469   2.957   1.988
23545WAT     H270878   8.442   2.934   2.147
23546WAT      O70879   9.490   1.564   3.730
23546WAT     H170880   9.560   1.532   3.666
23546WAT     H270881   9.414   1.604   3.678
23547WAT      O70882   3.930   9.241   8.947
23547WAT     H170883   3.957   9.179   9.021
23547WAT     H270884   3.891   9.189   8.872
23548WAT      O70885   9.131   1.081   6.752
23548WAT     H170886   9.063   1.020   6.711
23548WAT     H270887   9.085   1.164   6.784
23549WAT      O70888   5.104   5.916   0.456
23549WAT     H170889   5.008   5.889   0.441
23549WAT     H270890   5.148   5.932   0.368
23550WAT      O70891   9.875   6.279   3.685
23550WAT     H170892   9.815   6.201   3.672
23550WAT     H270893   9.970   6.248   3.690
23551WAT      O70894   2.122   4.449   7.471
23551WAT     H170895   2.117   4.503   7.388
23551WAT     H270896   2.062   4.369   7.463
23552WAT      O70897   2.452   2.591   1.634
23552WAT     H170898   2.454   2.504   1.585
23552WAT     H270899   2.446   2.573   1.732
23553WAT      O70900   5.553   8.306   9.185
23553WAT     H170901   5.463   8.313   9.229
23553WAT     H270902   5.589   8.398   9.169
23554WAT      O70903   6.416   1.379   0.049
23554WAT     H170904   6.398   1.476   0.034
23554WAT     H270905   6.459   1.366   0.138
23555WAT      O70906   8.564   3.551   7.217
23555WAT     H170907   8.602   3.479   7.159
23555WAT     H270908   8.465   3.543   7.220
23556WAT      O70909   1.417   8.420   8.958
23556WAT     H170910   1.422   8.387   8.864
23556WAT     H270911   1.506   8.410   9.002
23557WAT      O70912   3.188   2.675   6.331
23557WAT     H170913   3.280   2.697   6.301
23557WAT     H270914   3.148   2.753   6.379
23558WAT      O70915   9.722   5.643   2.153
23558WAT     H170916   9.778   5.661   2.072
23558WAT     H270917   9.681   5.552   2.146
23559WAT      O70918   3.537   9.177   8.060
23559WAT     H170919   3.447   9.213   8.037
23559WAT     H270920   3.533   9.126   8.146
23560WAT      O70921   7.303   6.262   3.015
23560WAT     H170922   7.243   6.195   3.060
23560WAT     H270923   7.371   6.295   3.081
23561WAT      O70924   1.173   1.639   0.400
23561WAT     H170925   1.149   1.572   0.469
23561WAT     H270926   1.195   1.726   0.444
23562WAT      O70927   3.053   4.480   1.021
23562WAT     H170928   3.000   4.397   1.003
23562WAT     H270929   3.016   4.556   0.967
23563WAT      O70930   6.150   3.535   6.805
23563WAT     H170931   6.171   3.595   6.728
23563WAT     H270932   6.116   3.589   6.881
23564WAT      O70933   2.728   2.530   8.141
23564WAT     H170934   2.707   2.473   8.221
23564WAT     H270935   2.650   2.529   8.079
23565WAT      O70936   8.842   0.680   3.039
23565WAT     H170937   8.837   0.743   2.962
23565WAT     H270938   8.758   0.626   3.043
23566WAT      O70939   7.993   0.530   7.132
23566WAT     H170940   7.939   0.519   7.215
23566WAT     H270941   8.016   0.626   7.121
23567WAT      O70942   2.181   2.346   6.449
23567WAT     H170943   2.226   2.344   6.359
23567WAT     H270944   2.083   2.336   6.436
23568WAT      O70945   3.062   6.302   7.822
23568WAT     H170946   3.125   6.363   7.774
23568WAT     H270947   3.069   6.210   7.783
23569WAT      O70948   3.872   5.287   1.226
23569WAT     H170949   3.779   5.312   1.250
23569WAT     H270950   3.881   5.282   1.127
23570WAT      O70951   0.429   7.872   5.914
23570WAT     H170952   0.428   7.905   5.819
23570WAT     H270953   0.418   7.773   5.914
23571WAT      O70954   2.466   6.300   0.706
23571WAT     H170955   2.378   6.257   0.725
23571WAT     H270956   2.538   6.230   0.712
23572WAT      O70957   6.397   0.545   2.477
23572WAT     H170958   6.468   0.605   2.513
23572WAT     H270959   6.356   0.588   2.396
23573WAT      O70960   5.153   3.678   3.012
23573WAT     H170961   5.128   3.597   2.958
23573WAT     H270962   5.189   3.748   2.951
23574WAT      O70963   3.430   8.341   2.184
23574WAT     H170964   3.506   8.282   2.159
23574WAT     H270965   3.343   8.296   2.161
23575WAT      O70966   8.553   4.651   8.081
23575WAT     H170967   8.637   4.617   8.038
23575WAT     H270968   8.474   4.601   8.045
23576WAT      O70969   6.337   8.841   7.323
23576WAT     H170970   6.366   8.845   7.228
23576WAT     H270971   6.273   8.916   7.341
23577WAT      O70972   7.371   0.605   6.649
23577WAT     H170973   7.298   0.628   6.713
23577WAT     H270974   7.458   0.602   6.697
23578WAT      O70975   7.218   6.861   1.765
23578WAT     H170976   7.156   6.814   1.702
23578WAT     H270977   7.187   6.849   1.859
23579WAT      O70978   7.764   7.970   3.139
23579WAT     H170979   7.704   8.019   3.076
23579WAT     H270980   7.786   7.880   3.101
23580WAT      O70981   9.695   8.126   9.134
23580WAT     H170982   9.790   8.117   9.103
23580WAT     H270983   9.681   8.069   9.215
23581WAT      O70984   0.467   5.053   3.832
23581WAT     H170985   0.538   5.120   3.807
23581WAT     H270986   0.482   5.023   3.926
23582WAT      O70987   7.463   1.843   6.156
23582WAT     H170988   7.389   1.783   6.124
23582WAT     H270989   7.424   1.922   6.202
23583WAT      O70990   0.969   3.899   5.276
23583WAT     H170991   0.891   3.837   5.264
23583WAT     H270992   0.938   3.985   5.315
23584WAT      O70993   1.035   2.633   6.805
23584WAT     H170994   1.043   2.604   6.709
23584WAT     H270995   0.955   2.692   6.814
23585WAT      O70996   8.212   6.833   8.647
23585WAT     H170997   8.216   6.880   8.559
23585WAT     H270998   8.175   6.894   8.717
23586WAT      O70999   6.896   3.662   9.149
23586WAT     H171000   6.880   3.744   9.204
23586WAT     H271001   6.933   3.689   9.060
23587WAT      O71002   7.362   3.883   8.577
23587WAT     H171003   7.451   3.901   8.618
23587WAT     H271004   7.362   3.791   8.537
23588WAT      O71005   1.108   6.602   3.012
23588WAT     H171006   1.035   6.612   2.945
23588WAT     H271007   1.184   6.663   2.988
23589WAT      O71008   7.123   1.712   5.839
23589WAT     H171009   7.058   1.643   5.805
23589WAT     H271010   7.183   1.740   5.765
23590WAT      O71011   9.338   3.631   8.103
23590WAT     H171012   9.372   3.669   8.017
23590WAT     H271013   9.414   3.589   8.153
23591WAT      O71014   5.186   1.241   4.635
23591WAT     H171015   5.168   1.181   4.713
23591WAT     H271016   5.232   1.324   4.667
23592WAT      O71017   0.010   7.607   3.600
23592WAT     H171018   0.106   7.580   3.593
23592WAT     H271019  -0.047   7.525   3.610
23593WAT      O71020   4.992   6.284   7.190
23593WAT     H171021   4.920   6.350   7.214
23593WAT     H271022   4.954   6.191   7.194
23594WAT      O71023   7.361   6.065   9.290
23594WAT     H171024   7.392   5.973   9.314
23594WAT     H271025   7.342   6.068   9.192
23595WAT      O71026   4.946   4.674   7.404
23595WAT     H171027   4.947   4.746   7.472
23595WAT     H271028   4.899   4.593   7.441
23596WAT      O71029   3.086   0.594   5.035
23596WAT     H171030   3.089   0.684   4.992
23596WAT     H271031   3.024   0.534   4.984
23597WAT      O71032   6.443   8.647   5.943
23597WAT     H171033   6.424   8.726   5.884
23597WAT     H271034   6.396   8.567   5.907
23598WAT      O71035   7.671   7.194   9.468
23598WAT     H171036   7.697   7.102   9.497
23598WAT     H271037   7.731   7.225   9.394
23599WAT      O71038   2.181   8.295   4.272
23599WAT     H171039   2.096   8.293   4.218
23599WAT     H271040   2.259   8.297   4.210
23600WAT      O71041   1.793   0.393   1.956
23600WAT     H171042   1.799   0.360   2.050
23600WAT     H271043   1.719   0.460   1.950
23601WAT      O71044   6.823   3.831   4.285
23601WAT     H171045   6.846   3.815   4.189
23601WAT     H271046   6.907   3.841   4.338
23602WAT      O71047   3.538   5.160   2.102
23602WAT     H171048   3.491   5.217   2.170
23602WAT     H271049   3.616   5.210   2.065
23603WAT      O71050   2.997   3.772   3.619
23603WAT     H171051   3.053   3.691   3.635
23603WAT     H271052   3.003   3.800   3.524
23604WAT      O71053   0.348   5.983   6.186
23604WAT     H171054   0.301   6.031   6.260
23604WAT     H271055   0.287   5.913   6.148
23605WAT      O71056   7.889   8.529   8.670
23605WAT     H171057   7.941   8.478   8.739
23605WAT     H271058   7.933   8.519   8.581
23606WAT      O71059   2.939   0.502   1.267
23606WAT     H171060   2.938   0.425   1.330
23606WAT     H271061   2.851   0.507   1.220
23607WAT      O71062   8.593   1.810   0.114
23607WAT     H171063   8.588   1.718   0.153
23607WAT     H271064   8.505   1.834   0.074
23608WAT      O71065   7.887   3.400   3.624
23608WAT     H171066   7.856   3.325   3.682
23608WAT     H271067   7.865   3.378   3.528
23609WAT      O71068   8.861   4.317   9.393
23609WAT     H171069   8.770   4.316   9.352
23609WAT     H271070   8.892   4.411   9.404
23610WAT      O71071   9.220   9.050   4.319
23610WAT     H171072   9.170   9.000   4.390
23610WAT     H271073   9.319   9.040   4.334
23611WAT      O71074   1.417   1.020   4.950
23611WAT     H171075   1.500   1.062   4.987
23611WAT     H271076   1.437   0.926   4.921
23612WAT      O71077   0.800   0.159   8.432
23612WAT     H171078   0.843   0.101   8.364
23612WAT     H271079   0.868   0.186   8.501
23613WAT      O71080   8.607   3.757   6.786
23613WAT     H171081   8.688   3.752   6.727
23613WAT     H271082   8.532   3.706   6.744
23614WAT      O71083   7.411   0.645   4.447
23614WAT     H171084   7.433   0.732   4.403
23614WAT     H271085   7.482   0.578   4.423
23615WAT      O71086   0.027   3.612   3.951
23615WAT     H171087  -0.004   3.695   3.997
23615WAT     H271088  -0.017   3.605   3.862
23616WAT      O71089   2.720   2.884   3.979
23616WAT     H171090   2.807   2.894   4.026
23616WAT     H271091   2.691   2.973   3.943
23617WAT      O71092   0.472   3.650   6.142
23617WAT     H171093   0.563   3.617   6.116
23617WAT     H271094   0.407   3.626   6.071
23618WAT      O71095   4.633   8.727   2.388
23618WAT     H171096   4.676   8.816   2.376
23618WAT     H271097   4.703   8.656   2.393
23619WAT      O71098   0.695   5.323   1.294
23619WAT     H171099   0.716   5.327   1.392
23619WAT     H271100   0.762   5.265   1.248
23620WAT      O71101   8.322   7.092   3.569
23620WAT     H171102   8.339   7.154   3.646
23620WAT     H271103   8.245   7.127   3.515
23621WAT      O71104   5.771   1.366   7.616
23621WAT     H171105   5.697   1.389   7.679
23621WAT     H271106   5.857   1.401   7.651
23622WAT      O71107   5.945   8.867   4.847
23622WAT     H171108   5.982   8.775   4.862
23622WAT     H271109   6.016   8.925   4.808
23623WAT      O71110   0.526   7.474   0.115
23623WAT     H171111   0.542   7.512   0.024
23623WAT     H271112   0.436   7.430   0.117
23624WAT      O71113   2.428   6.917   6.221
23624WAT     H171114   2.489   6.929   6.142
23624WAT     H271115   2.351   6.858   6.194
23625WAT      O71116   9.734   0.156   9.812
23625WAT     H171117   9.678   0.226   9.767
23625WAT     H271118   9.831   0.174   9.794
23626WAT      O71119   3.930   7.672   4.994
23626WAT     H171120   3.960   7.740   4.927
23626WAT     H271121   4.005   7.652   5.057
23627WAT      O71122   3.883   7.149   3.027
23627WAT     H171123   3.812   7.210   2.990
23627WAT     H271124   3.973   7.182   3.000
23628WAT      O71125   9.183   6.635   4.420
23628WAT     H171126   9.135   6.593   4.498
23628WAT     H271127   9.241   6.709   4.453
23629WAT      O71128   4.372   9.831   6.125
23629WAT     H171129   4.372   9.928   6.149
23629WAT     H271130   4.367   9.776   6.208
23630WAT      O71131   5.427   7.700   8.215
23630WAT     H171132   5.482   7.631   8.262
23630WAT     H271133   5.483   7.780   8.196
23631WAT      O71134   0.381   5.296   5.851
23631WAT     H171135   0.343   5.349   5.775
23631WAT     H271136   0.318   5.301   5.929
23632WAT      O71137   5.980   1.547   0.963
23632WAT     H171138   5.908   1.548   0.893
23632WAT     H271139   6.069   1.555   0.918
23633WAT      O71140   0.054   2.747   2.226
23633WAT     H171141   0.117   2.670   2.216
23633WAT     H271142   0.071   2.793   2.314
23634WAT      O71143   0.257   8.193   9.336
23634WAT     H171144   0.267   8.107   9.386
23634WAT     H271145   0.262   8.175   9.238
23635WAT      O71146   1.029   0.246   7.723
23635WAT     H171147   0.999   0.341   7.724
23635WAT     H271148   1.124   0.240   7.753
23636WAT      O71149   9.731   0.216   3.522
23636WAT     H171150   9.801   0.252   3.460
23636WAT     H271151   9.716   0.281   3.597
23637WAT      O71152   1.001   8.093   2.149
23637WAT     H171153   0.919   8.121   2.198
23637WAT     H271154   1.035   8.170   2.095
23638WAT      O71155   4.244   3.111   2.033
23638WAT     H171156   4.213   3.044   2.100
23638WAT     H271157   4.342   3.124   2.041
23639WAT      O71158   2.304   0.986   3.892
23639WAT     H171159   2.256   1.024   3.813
23639WAT     H271160   2.337   0.895   3.870
23640WAT      O71161   8.448   5.401   6.855
23640WAT     H171162   8.455   5.372   6.950
23640WAT     H271163   8.420   5.497   6.852
23641WAT      O71164   4.676   0.738   2.706
23641WAT     H171165   4.638   0.665   2.762
23641WAT     H271166   4.770   0.715   2.681
23642WAT      O71167   5.325   2.272   1.129
23642WAT     H171168   5.322   2.187   1.077
23642WAT     H271169   5.394   2.333   1.091
23643WAT      O71170   2.041   1.353   0.304
23643WAT     H171171   2.088   1.272   0.268
23643WAT     H271172   2.050   1.354   0.404
23644WAT      O71173   2.462   1.700   7.293
23644WAT     H171174   2.434   1.635   7.363
23644WAT     H271175   2.558   1.724   7.306
23645WAT      O71176   4.248   4.602   6.790
23645WAT     H171177   4.156   4.565   6.807
23645WAT     H271178   4.315   4.550   6.843
23646WAT      O71179   9.006   5.137   8.748
23646WAT     H171180   8.908   5.156   8.739
23646WAT     H271181   9.057   5.200   8.689
23647WAT      O71182   4.736   3.315   8.622
23647WAT     H171183   4.669   3.291   8.552
23647WAT     H271184   4.822   3.341   8.579
23648WAT      O71185   3.197   1.754   2.674
23648WAT     H171186   3.254   1.716   2.748
23648WAT     H271187   3.119   1.694   2.658
23649WAT      O71188   9.619   7.538   9.196
23649WAT     H171189   9.646   7.554   9.101
23649WAT     H271190   9.694   7.563   9.257
23650WAT      O71191   3.913   2.651   7.415
23650WAT     H171192   3.901   2.728   7.477
23650WAT     H271193   3.933   2.568   7.467
23651WAT      O71194   6.384   8.262   3.073
23651WAT     H171195   6.360   8.170   3.042
23651WAT     H271196   6.398   8.261   3.172
23652WAT      O71197   6.372   0.998   5.945
23652WAT     H171198   6.336   0.960   5.859
23652WAT     H271199   6.468   0.970   5.955
23653WAT      O71200   5.331   5.815   8.844
23653WAT     H171201   5.244   5.765   8.843
23653WAT     H271202   5.320   5.901   8.793
23654WAT      O71203   5.985   2.130   7.525
23654WAT     H171204   5.897   2.156   7.564
23654WAT     H271205   5.996   2.031   7.530
23655WAT      O71206   4.768   1.007   3.720
23655WAT     H171207   4.752   1.072   3.645
23655WAT     H271208   4.831   1.049   3.786
23656WAT      O71209   5.688   8.908   3.309
23656WAT     H171210   5.724   8.942   3.395
23656WAT     H271211   5.746   8.939   3.234
23657WAT      O71212   5.200   7.294   5.637
23657WAT     H171213   5.148   7.219   5.680
23657WAT     H271214   5.147   7.378   5.645
23658WAT      O71215   4.239   2.848   9.428
23658WAT     H171216   4.280   2.935   9.458
23658WAT     H271217   4.142   2.863   9.409
23659WAT      O71218   9.371   1.858   6.737
23659WAT     H171219   9.276   1.868   6.708
23659WAT     H271220   9.393   1.928   6.806
23660WAT      O71221   8.247   7.444   7.830
23660WAT     H171222   8.257   7.516   7.898
23660WAT     H271223   8.296   7.469   7.747
23661WAT      O71224   0.855   5.012   9.159
23661WAT     H171225   0.870   5.045   9.065
23661WAT     H271226   0.834   4.914   9.157
23662WAT      O71227   7.283   5.722   8.395
23662WAT     H171228   7.250   5.719   8.489
23662WAT     H271229   7.246   5.644   8.344
23663WAT      O71230   2.348   0.695   7.542
23663WAT     H171231   2.336   0.715   7.639
23663WAT     H271232   2.328   0.598   7.526
23664WAT      O71233   1.897   0.178   8.193
23664WAT     H171234   1.862   0.087   8.217
23664WAT     H271235   1.821   0.241   8.181
23665WAT      O71236   8.333   3.484   9.573
23665WAT     H171237   8.275   3.499   9.493
23665WAT     H271238   8.376   3.571   9.599
23666WAT      O71239   0.691   3.538   7.595
23666WAT     H171240   0.685   3.485   7.679
23666WAT     H271241   0.733   3.481   7.523
23667WAT      O71242   1.394   1.224   9.549
23667WAT     H171243   1.362   1.132   9.526
23667WAT     H271244   1.339   1.291   9.498
23668WAT      O71245   4.035   3.943   1.845
23668WAT     H171246   3.965   4.004   1.882
23668WAT     H271247   4.018   3.850   1.878
23669WAT      O71248   1.581   6.325   1.749
23669WAT     H171249   1.612   6.400   1.690
23669WAT     H271250   1.574   6.357   1.843
23670WAT      O71251   4.454   0.054   1.281
23670WAT     H171252   4.394   0.007   1.346
23670WAT     H271253   4.452   0.152   1.298
23671WAT      O71254   0.085   1.496   4.823
23671WAT     H171255   0.084   1.413   4.769
23671WAT     H271256   0.126   1.571   4.770
23672WAT      O71257   3.372   4.679   9.832
23672WAT     H171258   3.344   4.706   9.924
23672WAT     H271259   3.299   4.625   9.790
23673WAT      O71260   8.523   1.710   6.649
23673WAT     H171261   8.492   1.707   6.744
23673WAT     H271262   8.601   1.649   6.638
23674WAT      O71263   5.389   4.930   6.715
23674WAT     H171264   5.470   4.988   6.717
23674WAT     H271265   5.332   4.950   6.794
23675WAT      O71266   0.580   2.657   9.097
23675WAT     H171267   0.581   2.635   8.999
23675WAT     H271268   0.589   2.572   9.150
23676WAT      O71269   1.238   3.994   7.943
23676WAT     H171270   1.317   4.037   7.898
23676WAT     H271271   1.248   4.002   8.042
23677WAT      O71272   0.864   7.943   0.860
23677WAT     H171273   0.962   7.928   0.843
23677WAT     H271274   0.850   8.036   0.894
23678WAT      O71275   9.754   2.034   8.954
23678WAT     H171276   9.844   2.035   8.911
23678WAT     H271277   9.727   2.127   8.977
23679WAT      O71278   4.781   2.010   3.008
23679WAT     H171279   4.756   2.074   3.081
23679WAT     H271280   4.743   2.042   2.921
23680WAT      O71281   8.410   0.772   8.069
23680WAT     H171282   8.417   0.747   8.166
23680WAT     H271283   8.409   0.871   8.059
23681WAT      O71284   4.950   8.227   1.957
23681WAT     H171285   4.869   8.169   1.966
23681WAT     H271286   4.926   8.310   1.907
23682WAT      O71287   3.209   0.777   7.384
23682WAT     H171288   3.176   0.698   7.333
23682WAT     H271289   3.132   0.829   7.420
23683WAT      O71290   5.360   7.577   5.495
23683WAT     H171291   5.402   7.535   5.575
23683WAT     H271292   5.315   7.507   5.440
23684WAT      O71293   8.274   8.792   0.598
23684WAT     H171294   8.359   8.749   0.568
23684WAT     H271295   8.201   8.724   0.602
23685WAT      O71296   5.133   1.409   5.238
23685WAT     H171297   5.049   1.460   5.224
23685WAT     H271298   5.197   1.464   5.293
23686WAT      O71299   0.499   3.573   6.599
23686WAT     H171300   0.504   3.662   6.646
23686WAT     H271301   0.452   3.584   6.512
23687WAT      O71302   5.555   3.147   2.876
23687WAT     H171303   5.626   3.137   2.806
23687WAT     H271304   5.598   3.165   2.965
23688WAT      O71305   3.686   0.474   5.784
23688WAT     H171306   3.758   0.514   5.841
23688WAT     H271307   3.606   0.455   5.841
23689WAT      O71308   6.446   6.947   5.544
23689WAT     H171309   6.455   7.019   5.476
23689WAT     H271310   6.534   6.930   5.587
23690WAT      O71311   7.613   3.034   9.720
23690WAT     H171312   7.535   2.988   9.762
23690WAT     H271313   7.612   3.019   9.621
23691WAT      O71314   4.069   3.808   9.306
23691WAT     H171315   4.121   3.821   9.390
23691WAT     H271316   4.087   3.884   9.244
23692WAT      O71317   1.662   8.194   8.162
23692WAT     H171318   1.712   8.226   8.242
23692WAT     H271319   1.648   8.270   8.098
23693WAT      O71320   5.541   4.215   1.929
23693WAT     H171321   5.568   4.125   1.962
23693WAT     H271322   5.445   4.231   1.949
23694WAT      O71323   5.174   6.345   7.702
23694WAT     H171324   5.230   6.427   7.708
23694WAT     H271325   5.140   6.334   7.608
23695WAT      O71326   4.330   6.072   3.574
23695WAT     H171327   4.366   6.164   3.558
23695WAT     H271328   4.366   6.037   3.661
23696WAT      O71329   5.011   6.365   5.297
23696WAT     H171330   4.939   6.314   5.344
23696WAT     H271331   5.099   6.344   5.338
23697WAT      O71332   5.932   0.038   2.806
23697WAT     H171333   5.861  -0.032   2.798
23697WAT     H271334   5.942   0.085   2.718
23698WAT      O71335   4.980   7.658   4.110
23698WAT     H171336   5.024   7.693   4.027
23698WAT     H271337   5.046   7.603   4.162
23699WAT      O71338   8.389   8.123   4.407
23699WAT     H171339   8.338   8.071   4.338
23699WAT     H271340   8.401   8.066   4.488
23700WAT      O71341   2.923   0.939   6.760
23700WAT     H171342   2.832   0.959   6.796
23700WAT     H271343   2.915   0.882   6.678
23701WAT      O71344   1.157   4.761   7.177
23701WAT     H171345   1.159   4.667   7.142
23701WAT     H271346   1.244   4.806   7.154
23702WAT      O71347   1.253   2.483   2.469
23702WAT     H171348   1.229   2.556   2.533
23702WAT     H271349   1.177   2.465   2.408
23703WAT      O71350   8.966   9.719   6.688
23703WAT     H171351   8.936   9.779   6.763
23703WAT     H271352   8.967   9.624   6.721
23704WAT      O71353   1.567   0.985   1.141
23704WAT     H171354   1.539   0.908   1.199
23704WAT     H271355   1.492   1.010   1.080
23705WAT      O71356   1.665   3.981   9.332
23705WAT     H171357   1.754   4.024   9.344
23705WAT     H271358   1.649   3.963   9.235
23706WAT      O71359   7.711   3.571   8.007
23706WAT     H171360   7.710   3.671   8.014
23706WAT     H271361   7.660   3.543   7.926
23707WAT      O71362   4.432   3.564   4.019
23707WAT     H171363   4.478   3.648   3.989
23707WAT     H271364   4.361   3.540   3.952
23708WAT      O71365   7.953   2.761   6.738
23708WAT     H171366   7.895   2.832   6.778
23708WAT     H271367   7.985   2.791   6.648
23709WAT      O71368   6.465   5.739   4.330
23709WAT     H171369   6.523   5.738   4.248
23709WAT     H271370   6.510   5.793   4.401
23710WAT      O71371   3.842   3.061   3.896
23710WAT     H171372   3.924   3.043   3.951
23710WAT     H271373   3.807   2.975   3.859
23711WAT      O71374   9.841   4.366   2.322
23711WAT     H171375   9.928   4.329   2.289
23711WAT     H271376   9.795   4.298   2.378
23712WAT      O71377   0.618   9.012   3.682
23712WAT     H171378   0.696   8.957   3.655
23712WAT     H271379   0.539   8.953   3.698
23713WAT      O71380   1.883   8.402   2.828
23713WAT     H171381   1.901   8.304   2.814
23713WAT     H271382   1.969   8.449   2.847
23714WAT      O71383   4.590   1.201   6.047
23714WAT     H171384   4.529   1.276   6.021
23714WAT     H271385   4.569   1.121   5.991
23715WAT      O71386   0.014   5.340   1.227
23715WAT     H171387   0.098   5.373   1.269
23715WAT     H271388   0.010   5.371   1.131
23716WAT      O71389   6.772   8.497   2.007
23716WAT     H171390   6.701   8.511   1.937
23716WAT     H271391   6.818   8.584   2.025
23717WAT      O71392   7.621   9.005   7.441
23717WAT     H171393   7.678   9.065   7.385
23717WAT     H271394   7.536   8.985   7.393
23718WAT      O71395   3.809   2.817   5.888
23718WAT     H171396   3.807   2.717   5.882
23718WAT     H271397   3.734   2.848   5.946
23719WAT      O71398   3.128   0.183   1.331
23719WAT     H171399   3.218   0.144   1.354
23719WAT     H271400   3.124   0.278   1.362
23720WAT      O71401   8.030   8.039   3.081
23720WAT     H171402   8.095   8.045   3.156
23720WAT     H271403   7.938   8.027   3.117
23721WAT      O71404   1.167   7.868   6.454
23721WAT     H171405   1.208   7.941   6.510
23721WAT     H271406   1.187   7.779   6.496
23722WAT      O71407   3.048   1.759   1.067
23722WAT     H171408   3.119   1.810   1.019
23722WAT     H271409   3.057   1.661   1.047
23723WAT      O71410   9.874   6.567   0.580
23723WAT     H171411   9.893   6.582   0.677
23723WAT     H271412   9.934   6.496   0.545
23724WAT      O71413   6.452   9.619   7.781
23724WAT     H171414   6.431   9.667   7.695
23724WAT     H271415   6.548   9.632   7.804
23725WAT      O71416   8.099   7.255   6.502
23725WAT     H171417   8.017   7.226   6.551
23725WAT     H271418   8.173   7.270   6.568
23726WAT      O71419   3.938   0.894   5.576
23726WAT     H171420   3.996   0.895   5.495
23726WAT     H271421   3.888   0.981   5.582
23727WAT      O71422   1.644   1.391   7.700
23727WAT     H171423   1.549   1.377   7.673
23727WAT     H271424   1.686   1.461   7.642
23728WAT      O71425   0.397   0.728   7.279
23728WAT     H171426   0.471   0.768   7.332
23728WAT     H271427   0.309   0.764   7.311
23729WAT      O71428   1.944   7.245   8.647
23729WAT     H171429   1.915   7.158   8.687
23729WAT     H271430   2.004   7.228   8.569
23730WAT      O71431   1.620   6.236   5.908
23730WAT     H171432   1.612   6.148   5.956
23730WAT     H271433   1.544   6.295   5.934
23731WAT      O71434   3.691   0.801   3.464
23731WAT     H171435   3.733   0.712   3.453
23731WAT     H271436   3.725   0.845   3.548
23732WAT      O71437   3.475   8.114   4.719
23732WAT     H171438   3.377   8.116   4.738
23732WAT     H271439   3.525   8.104   4.805
23733WAT      O71440   7.811   8.620   3.359
23733WAT     H171441   7.874   8.683   3.312
23733WAT     H271442   7.787   8.546   3.296
23734WAT      O71443   3.182   4.795   0.519
23734WAT     H171444   3.219   4.709   0.483
23734WAT     H271445   3.102   4.822   0.466
23735WAT      O71446   4.714   5.943   5.743
23735WAT     H171447   4.684   5.851   5.716
23735WAT     H271448   4.814   5.948   5.737
23736WAT      O71449   3.566   7.389   8.654
23736WAT     H171450   3.616   7.350   8.731
23736WAT     H271451   3.470   7.400   8.679
23737WAT      O71452   0.813   6.820   8.191
23737WAT     H171453   0.900   6.793   8.151
23737WAT     H271454   0.757   6.867   8.122
23738WAT      O71455   9.570   1.119   8.011
23738WAT     H171456   9.632   1.155   7.942
23738WAT     H271457   9.561   1.020   8.001
23739WAT      O71458   7.972   5.403   9.784
23739WAT     H171459   8.035   5.341   9.737
23739WAT     H271460   8.020   5.452   9.857
23740WAT      O71461   1.060   4.960   2.605
23740WAT     H171462   0.983   4.943   2.666
23740WAT     H271463   1.144   4.973   2.659
23741WAT      O71464   6.564   5.393   3.891
23741WAT     H171465   6.658   5.409   3.859
23741WAT     H271466   6.560   5.405   3.990
23742WAT      O71467   9.212   5.507   4.759
23742WAT     H171468   9.258   5.443   4.697
23742WAT     H271469   9.177   5.585   4.707
23743WAT      O71470   5.378   5.668   3.122
23743WAT     H171471   5.303   5.637   3.180
23743WAT     H271472   5.344   5.739   3.060
23744WAT      O71473   1.843   9.627   9.794
23744WAT     H171474   1.842   9.567   9.873
23744WAT     H271475   1.770   9.695   9.802
23745WAT      O71476   1.261   2.963   9.701
23745WAT     H171477   1.278   3.061   9.688
23745WAT     H271478   1.219   2.947   9.791
23746WAT      O71479   2.348   8.703   3.137
23746WAT     H171480   2.348   8.663   3.229
23746WAT     H271481   2.291   8.785   3.136
23747WAT      O71482   3.024   2.013   1.523
23747WAT     H171483   2.980   1.924   1.532
23747WAT     H271484   3.003   2.051   1.433
23748WAT      O71485   9.658   7.107   0.587
23748WAT     H171486   9.573   7.058   0.568
23748WAT     H271487   9.718   7.049   0.642
23749WAT      O71488   0.097   9.235   3.523
23749WAT     H171489   0.092   9.295   3.443
23749WAT     H271490   0.175   9.262   3.579
23750WAT      O71491   4.188   1.105   7.216
23750WAT     H171492   4.210   1.185   7.271
23750WAT     H271493   4.265   1.041   7.217
23751WAT      O71494   6.700   1.399   6.234
23751WAT     H171495   6.624   1.464   6.235
23751WAT     H271496   6.783   1.446   6.205
23752WAT      O71497   1.998   4.115   7.461
23752WAT     H171498   1.931   4.047   7.434
23752WAT     H271499   2.047   4.147   7.380
23753WAT      O71500   1.941   1.770   4.218
23753WAT     H171501   1.852   1.728   4.233
23753WAT     H271502   1.989   1.721   4.145
23754WAT      O71503   2.760   6.020   8.860
23754WAT     H171504   2.692   6.021   8.933
23754WAT     H271505   2.715   6.012   8.771
23755WAT      O71506   5.485   6.414   9.680
23755WAT     H171507   5.474   6.482   9.753
23755WAT     H271508   5.478   6.459   9.591
23756WAT      O71509   6.694   9.063   5.092
23756WAT     H171510   6.729   9.150   5.056
23756WAT     H271511   6.719   9.055   5.188
23757WAT      O71512   7.011   0.986   7.599
23757WAT     H171513   6.951   1.011   7.675
23757WAT     H271514   7.096   1.039   7.606
23758WAT      O71515   6.272   0.323   2.582
23758WAT     H171516   6.305   0.411   2.547
23758WAT     H271517   6.269   0.326   2.682
23759WAT      O71518   6.654   5.853   8.682
23759WAT     H171519   6.644   5.777   8.618
23759WAT     H271520   6.624   5.938   8.638
23760WAT      O71521   9.813   6.474   5.174
23760WAT     H171522   9.763   6.391   5.200
23760WAT     H271523   9.759   6.554   5.199
23761WAT      O71524   8.888   0.420   4.974
23761WAT     H171525   8.952   0.406   4.899
23761WAT     H271526   8.922   0.375   5.056
23762WAT      O71527   0.266   1.524   5.024
23762WAT     H171528   0.268   1.619   5.056
23762WAT     H271529   0.206   1.517   4.943
23763WAT      O71530   1.439   8.116   0.331
23763WAT     H171531   1.477   8.205   0.303
23763WAT     H271532   1.384   8.127   0.413
23764WAT      O71533   8.836   6.246   5.460
23764WAT     H171534   8.781   6.166   5.483
23764WAT     H271535   8.843   6.254   5.360
23765WAT      O71536   4.639   2.555   8.120
23765WAT     H171537   4.605   2.604   8.040
23765WAT     H271538   4.738   2.541   8.110
23766WAT      O71539   1.201   4.122   2.324
23766WAT     H171540   1.248   4.164   2.402
23766WAT     H271541   1.102   4.120   2.342
23767WAT      O71542   1.335   9.748   6.095
23767WAT     H171543   1.305   9.653   6.094
23767WAT     H271544   1.363   9.772   6.188
23768WAT      O71545   1.264   7.256   4.890
23768WAT     H171546   1.207   7.218   4.817
23768WAT     H271547   1.206   7.283   4.967
23769WAT      O71548   3.061   7.580   6.341
23769WAT     H171549   3.081   7.674   6.316
23769WAT     H271550   3.085   7.519   6.266
23770WAT      O71551   5.850   0.580   6.804
23770WAT     H171552   5.918   0.541   6.742
23770WAT     H271553   5.894   0.647   6.863
23771WAT      O71554   5.360   2.679   1.921
23771WAT     H171555   5.342   2.639   1.831
23771WAT     H271556   5.457   2.671   1.942
23772WAT      O71557   8.795   8.192   8.580
23772WAT     H171558   8.726   8.262   8.563
23772WAT     H271559   8.750   8.109   8.614
23773WAT      O71560   5.347   4.289   9.403
23773WAT     H171561   5.379   4.328   9.317
23773WAT     H271562   5.273   4.346   9.440
23774WAT      O71563   5.660   6.594   4.199
23774WAT     H171564   5.592   6.527   4.229
23774WAT     H271565   5.743   6.585   4.254
23775WAT      O71566   7.258   0.563   1.813
23775WAT     H171567   7.327   0.507   1.766
23775WAT     H271568   7.227   0.635   1.750
23776WAT      O71569   1.203   8.749   6.780
23776WAT     H171570   1.180   8.757   6.683
23776WAT     H271571   1.144   8.810   6.833
23777WAT      O71572   0.422   8.086   0.735
23777WAT     H171573   0.450   8.066   0.829
23777WAT     H271574   0.420   8.186   0.721
23778WAT      O71575   7.551   1.293   1.355
23778WAT     H171576   7.612   1.216   1.374
23778WAT     H271577   7.478   1.295   1.423
23779WAT      O71578   7.803   3.236   1.633
23779WAT     H171579   7.885   3.214   1.686
23779WAT     H271580   7.786   3.164   1.567
23780WAT      O71581   7.630   3.071   2.688
23780WAT     H171582   7.545   3.060   2.637
23780WAT     H271583   7.674   3.157   2.663
23781WAT      O71584   2.446   6.053   4.087
23781WAT     H171585   2.499   6.107   4.021
23781WAT     H271586   2.482   6.070   4.179
23782WAT      O71587   8.869   4.939   2.846
23782WAT     H171588   8.838   4.846   2.824
23782WAT     H271589   8.793   4.991   2.885
23783WAT      O71590   3.610   5.333   1.303
23783WAT     H171591   3.598   5.351   1.400
23783WAT     H271592   3.579   5.240   1.282
23784WAT      O71593   4.015   7.993   0.322
23784WAT     H171594   3.936   7.935   0.300
23784WAT     H271595   4.075   7.944   0.386
23785WAT      O71596   0.699   2.640   1.475
23785WAT     H171597   0.733   2.565   1.532
23785WAT     H271598   0.772   2.707   1.461
23786WAT      O71599   6.539   1.603   9.503
23786WAT     H171600   6.497   1.513   9.513
23786WAT     H271601   6.575   1.613   9.410
23787WAT      O71602   2.620   0.313   5.448
23787WAT     H171603   2.531   0.268   5.457
23787WAT     H271604   2.684   0.252   5.400
23788WAT      O71605   7.761   9.699   0.632
23788WAT     H171606   7.767   9.798   0.626
23788WAT     H271607   7.676   9.668   0.592
23789WAT      O71608   0.705   4.642   2.910
23789WAT     H171609   0.802   4.627   2.893
23789WAT     H271610   0.670   4.570   2.971
23790WAT      O71611   9.861   6.403   2.987
23790WAT     H171612   9.939   6.346   2.959
23790WAT     H271613   9.892   6.470   3.053
23791WAT      O71614   4.801   7.603   3.722
23791WAT     H171615   4.881   7.559   3.763
23791WAT     H271616   4.780   7.687   3.771
23792WAT      O71617   7.442   5.302   2.269
23792WAT     H171618   7.405   5.225   2.322
23792WAT     H271619   7.528   5.275   2.227
23793WAT      O71620   6.611   4.278   2.045
23793WAT     H171621   6.646   4.246   2.134
23793WAT     H271622   6.539   4.345   2.061
23794WAT      O71623   3.970   5.283   6.964
23794WAT     H171624   3.911   5.273   6.883
23794WAT     H271625   3.935   5.357   7.022
23795WAT      O71626   6.562   3.341   1.532
23795WAT     H171627   6.513   3.371   1.614
23795WAT     H271628   6.536   3.399   1.455
23796WAT      O71629   2.139   5.731   2.029
23796WAT     H171630   2.235   5.749   2.007
23796WAT     H271631   2.080   5.788   1.972
23797WAT      O71632   4.701   9.361   7.415
23797WAT     H171633   4.683   9.313   7.501
23797WAT     H271634   4.682   9.300   7.338
23798WAT      O71635   2.485   4.915   7.875
23798WAT     H171636   2.559   4.971   7.837
23798WAT     H271637   2.403   4.927   7.820
23799WAT      O71638   3.139   1.475   6.155
23799WAT     H171639   3.155   1.571   6.131
23799WAT     H271640   3.118   1.468   6.253
23800WAT      O71641   0.698   1.646   4.863
23800WAT     H171642   0.781   1.590   4.855
23800WAT     H271643   0.617   1.589   4.851
23801WAT      O71644   2.338   2.523   4.953
23801WAT     H171645   2.313   2.428   4.972
23801WAT     H271646   2.319   2.543   4.857
23802WAT      O71647   4.856   4.067   8.876
23802WAT     H171648   4.795   4.144   8.895
23802WAT     H271649   4.911   4.048   8.958
23803WAT      O71650   1.333   2.402   0.484
23803WAT     H171651   1.312   2.304   0.485
23803WAT     H271652   1.359   2.432   0.575
23804WAT      O71653   6.711   2.861   1.062
23804WAT     H171654   6.810   2.873   1.049
23804WAT     H271655   6.695   2.789   1.129
23805WAT      O71656   8.348   7.702   9.889
23805WAT     H171657   8.417   7.671   9.824
23805WAT     H271658   8.381   7.784   9.936
23806WAT      O71659   0.029   5.016   3.866
23806WAT     H171660   0.060   4.947   3.931
23806WAT     H271661   0.101   5.084   3.853
23807WAT      O71662   5.384   9.315   5.993
23807WAT     H171663   5.473   9.342   5.956
23807WAT     H271664   5.324   9.285   5.919
23808WAT      O71665   7.430   1.422   7.406
23808WAT     H171666   7.440   1.509   7.357
23808WAT     H271667   7.501   1.359   7.377
23809WAT      O71668   6.564   9.428   8.593
23809WAT     H171669   6.497   9.367   8.552
23809WAT     H271670   6.606   9.485   8.521
23810WAT      O71671   4.618   7.433   6.802
23810WAT     H171672   4.622   7.482   6.889
23810WAT     H271673   4.546   7.364   6.805
23811WAT      O71674   1.403   8.897   3.071
23811WAT     H171675   1.458   8.823   3.111
23811WAT     H271676   1.354   8.944   3.144
23812WAT      O71677   2.715   3.267   9.262
23812WAT     H171678   2.758   3.331   9.198
23812WAT     H271679   2.717   3.306   9.354
23813WAT      O71680   8.954   7.722   0.685
23813WAT     H171681   8.986   7.691   0.775
23813WAT     H271682   8.866   7.769   0.696
23814WAT      O71683   5.940   6.187   9.147
23814WAT     H171684   5.876   6.173   9.071
23814WAT     H271685   5.911   6.132   9.225
23815WAT      O71686   2.312   1.562   9.882
23815WAT     H171687   2.284   1.476   9.838
23815WAT     H271688   2.244   1.588   9.950
23816WAT      O71689   7.641   9.252   3.801
23816WAT     H171690   7.721   9.306   3.776
23816WAT     H271691   7.565   9.313   3.823
23817WAT      O71692   7.491   3.091   3.305
23817WAT     H171693   7.406   3.072   3.353
23817WAT     H271694   7.492   3.042   3.218
23818WAT      O71695   2.730   3.031   7.031
23818WAT     H171696   2.726   2.933   7.053
23818WAT     H271697   2.819   3.053   6.992
23819WAT      O71698   1.303   6.730   2.064
23819WAT     H171699   1.311   6.822   2.100
23819WAT     H271700   1.341   6.726   1.972
23820WAT      O71701   2.353   6.880   1.754
23820WAT     H171702   2.276   6.920   1.705
23820WAT     H271703   2.400   6.814   1.694
23821WAT      O71704   2.064   9.299   3.919
23821WAT     H171705   2.053   9.290   4.018
23821WAT     H271706   2.039   9.392   3.892
23822WAT      O71707   8.086   4.216   2.932
23822WAT     H171708   8.101   4.117   2.933
23822WAT     H271709   8.034   4.241   2.850
23823WAT      O71710   0.056   5.875   9.241
23823WAT     H171711   0.050   5.779   9.213
23823WAT     H271712  -0.011   5.929   9.189
23824WAT      O71713   5.910   8.507   7.820
23824WAT     H171714   5.956   8.419   7.808
23824WAT     H271715   5.811   8.493   7.825
23825WAT      O71716   3.989   1.283   1.215
23825WAT     H171717   4.035   1.319   1.296
23825WAT     H271718   4.031   1.195   1.190
23826WAT      O71719   3.217   9.623   1.673
23826WAT     H171720   3.128   9.665   1.690
23826WAT     H271721   3.275   9.687   1.623
23827WAT      O71722   6.426   3.700   1.969
23827WAT     H171723   6.469   3.784   1.935
23827WAT     H271724   6.339   3.685   1.921
23828WAT      O71725   7.360   2.622   7.885
23828WAT     H171726   7.322   2.676   7.810
23828WAT     H271727   7.458   2.636   7.889
23829WAT      O71728   9.319   3.543   7.009
23829WAT     H171729   9.290   3.595   6.929
23829WAT     H271730   9.245   3.541   7.076
23830WAT      O71731   7.163   5.075   7.442
23830WAT     H171732   7.209   5.095   7.355
23830WAT     H271733   7.083   5.018   7.425
23831WAT      O71734   9.352   6.922   5.305
23831WAT     H171735   9.360   6.832   5.349
23831WAT     H271736   9.409   6.988   5.355
23832WAT      O71737   5.608   4.817   6.467
23832WAT     H171738   5.656   4.798   6.381
23832WAT     H271739   5.602   4.734   6.521
23833WAT      O71740   4.413   1.437   5.515
23833WAT     H171741   4.326   1.412   5.557
23833WAT     H271742   4.452   1.356   5.469
23834WAT      O71743   4.148   6.510   4.230
23834WAT     H171744   4.125   6.435   4.291
23834WAT     H271745   4.065   6.544   4.184
23835WAT      O71746   3.586   8.810   8.677
23835WAT     H171747   3.609   8.722   8.634
23835WAT     H271748   3.664   8.842   8.731
23836WAT      O71749   3.641   2.613   8.582
23836WAT     H171750   3.581   2.690   8.565
23836WAT     H271751   3.661   2.607   8.680
23837WAT      O71752   1.058   6.942   0.250
23837WAT     H171753   1.100   7.020   0.202
23837WAT     H271754   0.974   6.972   0.294
23838WAT      O71755   4.530   1.569   1.802
23838WAT     H171756   4.445   1.620   1.816
23838WAT     H271757   4.511   1.471   1.802
23839WAT      O71758   7.437   8.864   0.714
23839WAT     H171759   7.401   8.912   0.794
23839WAT     H271760   7.406   8.909   0.631
23840WAT      O71761   9.331   8.700   6.032
23840WAT     H171762   9.366   8.634   6.099
23840WAT     H271763   9.322   8.656   5.943
23841WAT      O71764   1.202   4.800   8.729
23841WAT     H171765   1.220   4.898   8.715
23841WAT     H271766   1.199   4.754   8.640
23842WAT      O71767   3.464   2.419   2.974
23842WAT     H171768   3.553   2.445   2.938
23842WAT     H271769   3.430   2.492   3.034
23843WAT      O71770   2.227   4.105   8.644
23843WAT     H171771   2.184   4.171   8.705
23843WAT     H271772   2.317   4.138   8.617
23844WAT      O71773   9.840   3.441   0.767
23844WAT     H171774   9.789   3.512   0.816
23844WAT     H271775   9.906   3.398   0.829
23845WAT      O71776   1.464   0.576   4.591
23845WAT     H171777   1.461   0.492   4.645
23845WAT     H271778   1.534   0.637   4.627
23846WAT      O71779   8.129   9.659   7.030
23846WAT     H171780   8.213   9.653   7.084
23846WAT     H271781   8.149   9.632   6.936
23847WAT      O71782   6.892   3.230   7.455
23847WAT     H171783   6.886   3.134   7.426
23847WAT     H271784   6.872   3.289   7.376
23848WAT      O71785   5.671   9.396   5.925
23848WAT     H171786   5.681   9.489   5.890
23848WAT     H271787   5.760   9.350   5.925
23849WAT      O71788   3.921   7.688   7.265
23849WAT     H171789   3.993   7.694   7.334
23849WAT     H271790   3.833   7.672   7.309
23850WAT      O71791   9.587   2.944   3.443
23850WAT     H171792   9.626   2.908   3.358
23850WAT     H271793   9.574   3.043   3.434
23851WAT      O71794   5.556   8.636   7.504
23851WAT     H171795   5.649   8.658   7.535
23851WAT     H271796   5.491   8.652   7.578
23852WAT      O71797   8.799   8.421   4.930
23852WAT     H171798   8.791   8.422   4.831
23852WAT     H271799   8.887   8.460   4.957
23853WAT      O71800   1.799   7.387   0.137
23853WAT     H171801   1.871   7.439   0.091
23853WAT     H271802   1.754   7.446   0.205
23854WAT      O71803   1.715   9.204   9.328
23854WAT     H171804   1.661   9.120   9.324
23854WAT     H271805   1.684   9.268   9.258
23855WAT      O71806   4.724   6.246   3.361
23855WAT     H171807   4.640   6.219   3.314
23855WAT     H271808   4.708   6.248   3.459
23856WAT      O71809   4.880   4.038   9.407
23856WAT     H171810   4.809   3.974   9.436
23856WAT     H271811   4.967   3.989   9.395
23857WAT      O71812   6.461   4.592   4.019
23857WAT     H171813   6.486   4.687   4.042
23857WAT     H271814   6.413   4.551   4.097
23858WAT      O71815   6.799   6.762   6.745
23858WAT     H171816   6.890   6.755   6.785
23858WAT     H271817   6.744   6.683   6.771
23859WAT      O71818   4.175   7.533   5.140
23859WAT     H171819   4.202   7.568   5.051
23859WAT     H271820   4.185   7.433   5.141
23860WAT      O71821   8.082   4.243   5.930
23860WAT     H171822   8.066   4.152   5.892
23860WAT     H271823   7.997   4.296   5.927
23861WAT      O71824   5.294   6.756   3.315
23861WAT     H171825   5.362   6.781   3.384
23861WAT     H271826   5.226   6.695   3.355
23862WAT      O71827   0.999   9.460   9.631
23862WAT     H171828   0.980   9.547   9.677
23862WAT     H271829   1.066   9.408   9.685
23863WAT      O71830   2.640   9.112   5.101
23863WAT     H171831   2.639   9.207   5.070
23863WAT     H271832   2.613   9.108   5.197
23864WAT      O71833   3.652   5.909   8.327
23864WAT     H171834   3.704   5.825   8.319
23864WAT     H271835   3.581   5.912   8.257
23865WAT      O71836   7.233   9.373   8.637
23865WAT     H171837   7.312   9.425   8.607
23865WAT     H271838   7.177   9.347   8.558
23866WAT      O71839   4.572   0.024   0.169
23866WAT     H171840   4.641   0.048   0.237
23866WAT     H271841   4.540  -0.069   0.186
23867WAT      O71842   2.385   4.574   7.301
23867WAT     H171843   2.435   4.612   7.222
23867WAT     H271844   2.443   4.580   7.382
23868WAT      O71845   1.891   8.609   3.442
23868WAT     H171846   1.853   8.701   3.437
23868WAT     H271847   1.909   8.576   3.349
23869WAT      O71848   9.629   6.920   8.405
23869WAT     H171849   9.727   6.903   8.391
23869WAT     H271850   9.580   6.833   8.402
23870WAT      O71851   4.752   7.295   1.980
23870WAT     H171852   4.821   7.364   1.959
23870WAT     H271853   4.723   7.304   2.075
23871WAT      O71854   0.721   1.176   3.086
23871WAT     H171855   0.665   1.103   3.048
23871WAT     H271856   0.667   1.228   3.153
23872WAT      O71857   7.886   2.337   8.987
23872WAT     H171858   7.874   2.428   8.946
23872WAT     H271859   7.939   2.345   9.071
23873WAT      O71860   0.057   8.527   5.627
23873WAT     H171861   0.063   8.453   5.693
23873WAT     H271862   0.119   8.509   5.551
23874WAT      O71863   1.138   8.304   0.960
23874WAT     H171864   1.059   8.342   1.009
23874WAT     H271865   1.169   8.370   0.891
23875WAT      O71866   9.201   4.872   1.120
23875WAT     H171867   9.140   4.860   1.041
23875WAT     H271868   9.183   4.799   1.186
23876WAT      O71869   0.822   4.603   3.298
23876WAT     H171870   0.873   4.663   3.237
23876WAT     H271871   0.758   4.548   3.245
23877WAT      O71872   0.246   6.894   5.421
23877WAT     H171873   0.330   6.906   5.368
23877WAT     H271874   0.178   6.849   5.364
23878WAT      O71875   3.677   7.331   0.096
23878WAT     H171876   3.741   7.396   0.055
23878WAT     H271877   3.596   7.324   0.038
23879WAT      O71878   6.675   5.618   2.926
23879WAT     H171879   6.580   5.596   2.901
23879WAT     H271880   6.721   5.660   2.847
23880WAT      O71881   1.906   9.000   8.938
23880WAT     H171882   1.822   9.054   8.935
23880WAT     H271883   1.885   8.903   8.927
23881WAT      O71884   4.913   3.829   1.230
23881WAT     H171885   4.926   3.928   1.240
23881WAT     H271886   4.981   3.781   1.286
23882WAT      O71887   7.114   3.935   7.262
23882WAT     H171888   7.128   3.843   7.300
23882WAT     H271889   7.094   3.928   7.164
23883WAT      O71890   2.229   1.053   8.903
23883WAT     H171891   2.264   1.058   8.809
23883WAT     H271892   2.297   1.010   8.962
23884WAT      O71893   4.211   2.605   6.159
23884WAT     H171894   4.151   2.582   6.235
23884WAT     H271895   4.164   2.591   6.073
23885WAT      O71896   6.776   0.244   5.889
23885WAT     H171897   6.733   0.160   5.856
23885WAT     H271898   6.874   0.243   5.867
23886WAT      O71899   2.020   9.331   0.314
23886WAT     H171900   2.049   9.243   0.277
23886WAT     H271901   2.096   9.373   0.364
23887WAT      O71902   8.278   4.086   3.743
23887WAT     H171903   8.230   4.048   3.664
23887WAT     H271904   8.357   4.139   3.712
23888WAT      O71905   6.780   4.548   0.238
23888WAT     H171906   6.820   4.548   0.147
23888WAT     H271907   6.708   4.479   0.242
23889WAT      O71908   2.843   2.733   8.818
23889WAT     H171909   2.781   2.790   8.873
23889WAT     H271910   2.897   2.675   8.878
23890WAT      O71911   5.919   0.592   2.247
23890WAT     H171912   5.836   0.539   2.262
23890WAT     H271913   5.986   0.571   2.319
23891WAT      O71914   7.586   1.198   6.007
23891WAT     H171915   7.505   1.219   6.062
23891WAT     H271916   7.649   1.276   6.010
23892WAT      O71917   5.993   9.412   3.499
23892WAT     H171918   5.914   9.382   3.446
23892WAT     H271919   6.051   9.333   3.520
23893WAT      O71920   5.517   1.396   5.847
23893WAT     H171921   5.543   1.325   5.912
23893WAT     H271922   5.587   1.404   5.776
23894WAT      O71923   1.599   1.419   9.342
23894WAT     H171924   1.511   1.385   9.308
23894WAT     H271925   1.665   1.344   9.345
23895WAT      O71926   9.156   8.900   4.554
23895WAT     H171927   9.176   8.945   4.641
23895WAT     H271928   9.217   8.822   4.542
23896WAT      O71929   0.372   0.542   4.939
23896WAT     H171930   0.309   0.613   4.970
23896WAT     H271931   0.412   0.568   4.851
23897WAT      O71932   8.124   4.623   5.964
23897WAT     H171933   8.147   4.555   5.894
23897WAT     H271934   8.170   4.709   5.942
23898WAT      O71935   5.358   1.126   8.604
23898WAT     H171936   5.446   1.104   8.647
23898WAT     H271937   5.370   1.136   8.506
23899WAT      O71938   5.968   9.428   7.097
23899WAT     H171939   5.950   9.424   6.999
23899WAT     H271940   5.917   9.356   7.144
23900WAT      O71941   5.564   7.987   6.043
23900WAT     H171942   5.527   8.020   6.130
23900WAT     H271943   5.657   7.955   6.056
23901WAT      O71944   5.430   4.505   6.211
23901WAT     H171945   5.383   4.492   6.123
23901WAT     H271946   5.366   4.490   6.286
23902WAT      O71947   6.086   2.624   2.360
23902WAT     H171948   6.008   2.685   2.347
23902WAT     H271949   6.107   2.578   2.274
23903WAT      O71950   7.810   5.430   4.745
23903WAT     H171951   7.844   5.453   4.654
23903WAT     H271952   7.714   5.455   4.753
23904WAT      O71953   7.119   0.089   4.628
23904WAT     H171954   7.048   0.141   4.676
23904WAT     H271955   7.077   0.009   4.584
23905WAT      O71956   2.638   1.823   2.110
23905WAT     H171957   2.683   1.844   2.198
23905WAT     H271958   2.567   1.891   2.092
23906WAT      O71959   3.932   0.858   3.986
23906WAT     H171960   3.969   0.810   4.066
23906WAT     H271961   4.005   0.881   3.923
23907WAT      O71962   5.425   9.326   3.886
23907WAT     H171963   5.514   9.370   3.875
23907WAT     H271964   5.354   9.386   3.851
23908WAT      O71965   1.490   4.859   1.253
23908WAT     H171966   1.483   4.938   1.314
23908WAT     H271967   1.541   4.885   1.171
23909WAT      O71968   8.095   7.766   2.254
23909WAT     H171969   8.167   7.836   2.256
23909WAT     H271970   8.043   7.774   2.169
23910WAT      O71971   7.215   5.705   1.521
23910WAT     H171972   7.140   5.701   1.455
23910WAT     H271973   7.289   5.761   1.484
23911WAT      O71974   2.665   6.139   0.758
23911WAT     H171975   2.638   6.050   0.722
23911WAT     H271976   2.647   6.143   0.856
23912WAT      O71977   4.140   6.214   0.573
23912WAT     H171978   4.165   6.139   0.635
23912WAT     H271979   4.136   6.180   0.480
23913WAT      O71980   7.061   4.144   4.348
23913WAT     H171981   7.048   4.052   4.386
23913WAT     H271982   7.125   4.140   4.271
23914WAT      O71983   8.845   5.274   7.739
23914WAT     H171984   8.866   5.273   7.641
23914WAT     H271985   8.928   5.255   7.791
23915WAT      O71986   3.421   4.166   4.117
23915WAT     H171987   3.500   4.174   4.177
23915WAT     H271988   3.420   4.075   4.075
23916WAT      O71989   6.059   0.768   3.098
23916WAT     H171990   6.098   0.849   3.142
23916WAT     H271991   5.960   0.766   3.115
23917WAT      O71992   0.768   3.096   7.425
23917WAT     H171993   0.738   3.007   7.461
23917WAT     H271994   0.861   3.089   7.391
23918WAT      O71995   1.750   0.484   1.154
23918WAT     H171996   1.708   0.415   1.213
23918WAT     H271997   1.842   0.505   1.189
23919WAT      O71998   0.383   5.687   3.680
23919WAT     H171999   0.384   5.758   3.751
23919WAT     H272000   0.471   5.686   3.632
23920WAT      O72001   2.838   2.264   6.522
23920WAT     H172002   2.781   2.308   6.453
23920WAT     H272003   2.924   2.315   6.530
23921WAT      O72004   8.825   9.215   8.816
23921WAT     H172005   8.912   9.199   8.770
23921WAT     H272006   8.841   9.271   8.898
23922WAT      O72007   4.974   3.470   6.097
23922WAT     H172008   5.065   3.511   6.086
23922WAT     H272009   4.954   3.412   6.018
23923WAT      O72010   7.958   9.238   0.558
23923WAT     H172011   7.929   9.233   0.462
23923WAT     H272012   7.903   9.306   0.606
23924WAT      O72013   5.276   5.734   4.191
23924WAT     H172014   5.292   5.740   4.092
23924WAT     H272015   5.195   5.678   4.208
23925WAT      O72016   5.981   0.350   7.088
23925WAT     H172017   6.035   0.424   7.048
23925WAT     H272018   5.961   0.282   7.017
23926WAT      O72019   0.266   7.688   5.205
23926WAT     H172020   0.207   7.641   5.140
23926WAT     H272021   0.289   7.779   5.170
23927WAT      O72022   0.519   1.902   1.734
23927WAT     H172023   0.571   1.834   1.786
23927WAT     H272024   0.423   1.876   1.731
23928WAT      O72025   6.864   8.538   4.087
23928WAT     H172026   6.912   8.623   4.109
23928WAT     H272027   6.886   8.468   4.154
23929WAT      O72028   7.670   8.823   4.722
23929WAT     H172029   7.662   8.831   4.821
23929WAT     H272030   7.626   8.739   4.691
23930WAT      O72031   0.377   9.563   6.448
23930WAT     H172032   0.467   9.605   6.436
23930WAT     H272033   0.362   9.543   6.544
23931WAT      O72034   7.400   1.455   8.535
23931WAT     H172035   7.397   1.358   8.512
23931WAT     H272036   7.454   1.504   8.466
23932WAT      O72037   9.887   1.830   9.689
23932WAT     H172038   9.835   1.788   9.764
23932WAT     H272039   9.871   1.778   9.605
23933WAT      O72040   9.537   3.141   7.741
23933WAT     H172041   9.508   3.225   7.787
23933WAT     H272042   9.635   3.127   7.757
23934WAT      O72043   9.421   3.610   3.772
23934WAT     H172044   9.475   3.678   3.722
23934WAT     H272045   9.326   3.616   3.743
23935WAT      O72046   7.367   3.840   1.882
23935WAT     H172047   7.450   3.785   1.872
23935WAT     H272048   7.290   3.780   1.902
23936WAT      O72049   0.195   4.720   3.728
23936WAT     H172050   0.223   4.777   3.805
23936WAT     H272051   0.096   4.729   3.714
23937WAT      O72052   8.875   4.358   2.051
23937WAT     H172053   8.853   4.262   2.037
23937WAT     H272054   8.964   4.366   2.095
23938WAT      O72055   4.059   2.013   5.944
23938WAT     H172056   4.032   2.109   5.935
23938WAT     H272057   4.025   1.977   6.030
23939WAT      O72058   0.704   5.914   8.770
23939WAT     H172059   0.794   5.869   8.770
23939WAT     H272060   0.633   5.847   8.792
23940WAT      O72061   1.558   0.046   4.726
23940WAT     H172062   1.642   0.051   4.671
23940WAT     H272063   1.521   0.138   4.738
23941WAT      O72064   7.317   7.493   7.132
23941WAT     H172065   7.331   7.557   7.207
23941WAT     H272066   7.264   7.414   7.165
23942WAT      O72067   5.538   1.227   7.256
23942WAT     H172068   5.509   1.304   7.198
23942WAT     H272069   5.460   1.195   7.310
23943WAT      O72070   9.146   0.768   0.440
23943WAT     H172071   9.169   0.804   0.350
23943WAT     H272072   9.228   0.728   0.481
23944WAT      O72073   0.829   9.088   5.117
23944WAT     H172074   0.914   9.041   5.141
23944WAT     H272075   0.782   9.035   5.046
23945WAT      O72076   7.302   4.724   4.090
23945WAT     H172077   7.336   4.793   4.155
23945WAT     H272078   7.343   4.636   4.112
23946WAT      O72079   2.233   3.848   3.502
23946WAT     H172080   2.294   3.773   3.531
23946WAT     H272081   2.180   3.879   3.581
23947WAT      O72082   5.702   1.202   1.029
23947WAT     H172083   5.719   1.109   1.062
23947WAT     H272084   5.628   1.243   1.082
23948WAT      O72085   4.303   1.650   7.141
23948WAT     H172086   4.394   1.656   7.182
23948WAT     H272087   4.238   1.702   7.196
23949WAT      O72088   3.181   5.730   6.900
23949WAT     H172089   3.098   5.732   6.843
23949WAT     H272090   3.162   5.677   6.983
23950WAT      O72091   1.123   2.393   8.769
23950WAT     H172092   1.223   2.391   8.773
23950WAT     H272093   1.093   2.477   8.724
23951WAT      O72094   3.365   3.295   2.745
23951WAT     H172095   3.441   3.337   2.795
23951WAT     H272096   3.365   3.330   2.651
23952WAT      O72097   0.984   0.520   8.112
23952WAT     H172098   0.970   0.590   8.041
23952WAT     H272099   1.058   0.549   8.172
23953WAT      O72100   2.228   7.186   0.847
23953WAT     H172101   2.221   7.142   0.758
23953WAT     H272102   2.140   7.230   0.869
23954WAT      O72103   6.472   3.550   6.648
23954WAT     H172104   6.449   3.629   6.704
23954WAT     H272105   6.512   3.478   6.706
23955WAT      O72106   8.708   4.953   4.822
23955WAT     H172107   8.751   4.978   4.909
23955WAT     H272108   8.704   4.854   4.813
23956WAT      O72109   7.580   2.270   7.641
23956WAT     H172110   7.505   2.327   7.605
23956WAT     H272111   7.655   2.269   7.575
23957WAT      O72112   3.701   2.811   2.156
23957WAT     H172113   3.762   2.733   2.167
23957WAT     H272114   3.613   2.791   2.199
23958WAT      O72115   4.682   3.178   7.974
23958WAT     H172116   4.682   3.273   7.941
23958WAT     H272117   4.728   3.174   8.063
23959WAT      O72118   7.054   8.213   1.192
23959WAT     H172119   7.031   8.301   1.150
23959WAT     H272120   7.064   8.225   1.291
23960WAT      O72121   0.596   6.278   7.583
23960WAT     H172122   0.695   6.278   7.594
23960WAT     H272123   0.558   6.195   7.625
23961WAT      O72124   3.486   7.150   0.784
23961WAT     H172125   3.553   7.134   0.857
23961WAT     H272126   3.480   7.070   0.725
23962WAT      O72127   4.062   9.685   4.524
23962WAT     H172128   4.070   9.633   4.609
23962WAT     H272129   4.009   9.768   4.540
23963WAT      O72130   1.427   8.739   2.478
23963WAT     H172131   1.491   8.813   2.459
23963WAT     H272132   1.334   8.770   2.456
23964WAT      O72133   1.744   6.438   9.318
23964WAT     H172134   1.773   6.463   9.410
23964WAT     H272135   1.717   6.342   9.317
23965WAT      O72136   8.032   1.997   4.783
23965WAT     H172137   8.042   2.031   4.877
23965WAT     H272138   7.941   1.955   4.773
23966WAT      O72139   2.017   2.666   6.460
23966WAT     H172140   2.116   2.674   6.446
23966WAT     H272141   2.000   2.605   6.538
23967WAT      O72142   5.016   8.670   2.999
23967WAT     H172143   5.020   8.616   3.083
23967WAT     H272144   5.082   8.633   2.933
23968WAT      O72145   0.219   9.808   0.354
23968WAT     H172146   0.149   9.768   0.413
23968WAT     H272147   0.187   9.897   0.319
23969WAT      O72148   1.349   6.077   4.836
23969WAT     H172149   1.381   6.131   4.914
23969WAT     H272150   1.299   5.997   4.868
23970WAT      O72151   4.053   4.737   8.994
23970WAT     H172152   4.019   4.678   8.921
23970WAT     H272153   4.065   4.830   8.959
23971WAT      O72154   1.958   2.874   5.069
23971WAT     H172155   1.898   2.858   4.991
23971WAT     H272156   1.984   2.971   5.071
23972WAT      O72157   9.601   3.209   3.369
23972WAT     H172158   9.626   3.280   3.435
23972WAT     H272159   9.618   3.242   3.276
23973WAT      O72160   1.517   4.558   1.043
23973WAT     H172161   1.588   4.533   1.109
23973WAT     H272162   1.537   4.649   1.006
23974WAT      O72163   9.464   6.267   3.716
23974WAT     H172164   9.416   6.313   3.641
23974WAT     H272165   9.399   6.213   3.769
23975WAT      O72166   4.693   6.475   4.174
23975WAT     H172167   4.736   6.428   4.097
23975WAT     H272168   4.628   6.413   4.219
23976WAT      O72169   7.801   8.138   3.365
23976WAT     H172170   7.878   8.201   3.356
23976WAT     H272171   7.798   8.078   3.285
23977WAT      O72172   8.308   7.261   6.666
23977WAT     H172173   8.300   7.328   6.739
23977WAT     H272174   8.362   7.183   6.698
23978WAT      O72175   8.909   4.229   6.554
23978WAT     H172176   8.997   4.183   6.566
23978WAT     H272177   8.900   4.301   6.624
23979WAT      O72178   6.567   8.122   7.404
23979WAT     H172179   6.637   8.176   7.451
23979WAT     H272180   6.477   8.149   7.436
23980WAT      O72181   0.670   5.370   7.595
23980WAT     H172182   0.674   5.346   7.498
23980WAT     H272183   0.761   5.363   7.635
23981WAT      O72184   7.688   7.787   0.494
23981WAT     H172185   7.749   7.775   0.572
23981WAT     H272186   7.685   7.702   0.440
23982WAT      O72187   3.043   8.976   2.319
23982WAT     H172188   3.092   9.045   2.372
23982WAT     H272189   2.984   8.923   2.380
23983WAT      O72190   7.479   9.526   2.725
23983WAT     H172191   7.558   9.473   2.693
23983WAT     H272192   7.429   9.473   2.794
23984WAT      O72193   5.012   7.140   2.348
23984WAT     H172194   5.105   7.153   2.382
23984WAT     H272195   5.012   7.068   2.279
23985WAT      O72196   8.772   5.748   9.425
23985WAT     H172197   8.683   5.743   9.469
23985WAT     H272198   8.826   5.667   9.448
23986WAT      O72199   6.523   7.131   8.000
23986WAT     H172200   6.516   7.039   7.961
23986WAT     H272201   6.437   7.179   7.987
23987WAT      O72202   8.934   7.749   1.342
23987WAT     H172203   8.910   7.687   1.418
23987WAT     H272204   9.031   7.774   1.350
23988WAT      O72205   6.844   0.905   6.623
23988WAT     H172206   6.841   0.805   6.619
23988WAT     H272207   6.752   0.942   6.610
23989WAT      O72208   8.762   9.806   1.480
23989WAT     H172209   8.827   9.788   1.554
23989WAT     H272210   8.762   9.904   1.459
23990WAT      O72211   3.436   4.645   6.318
23990WAT     H172212   3.371   4.708   6.275
23990WAT     H272213   3.424   4.648   6.417
23991WAT      O72214   7.187   5.102   5.649
23991WAT     H172215   7.090   5.090   5.671
23991WAT     H272216   7.237   5.128   5.732
23992WAT      O72217   6.065   9.571   8.879
23992WAT     H172218   6.143   9.625   8.909
23992WAT     H272219   6.096   9.500   8.815
23993WAT      O72220   0.620   3.444   2.018
23993WAT     H172221   0.691   3.375   2.002
23993WAT     H272222   0.661   3.535   2.018
23994WAT      O72223   1.013   7.398   8.149
23994WAT     H172224   1.038   7.474   8.090
23994WAT     H272225   0.916   7.401   8.169
23995WAT      O72226   6.662   1.752   2.727
23995WAT     H172227   6.575   1.704   2.740
23995WAT     H272228   6.646   1.851   2.726
23996WAT      O72229   7.605   8.988   3.760
23996WAT     H172230   7.613   9.088   3.762
23996WAT     H272231   7.684   8.948   3.806
23997WAT      O72232   9.376   2.074   0.681
23997WAT     H172233   9.368   2.174   0.680
23997WAT     H272234   9.286   2.033   0.697
23998WAT      O72235   8.070   3.712   3.761
23998WAT     H172236   8.152   3.686   3.709
23998WAT     H272237   8.084   3.688   3.858
23999WAT      O72238   8.444   4.649   4.746
23999WAT     H172239   8.420   4.715   4.674
23999WAT     H272240   8.382   4.571   4.742
24000WAT      O72241   1.992   1.887   2.828
24000WAT     H172242   2.081   1.906   2.870
24000WAT     H272243   1.999   1.899   2.729
24001WAT      O72244   6.593   1.519   4.209
24001WAT     H172245   6.604   1.613   4.241
24001WAT     H272246   6.515   1.514   4.147
24002WAT      O72247   8.695   8.506   9.612
24002WAT     H172248   8.621   8.550   9.561
24002WAT     H272249   8.772   8.570   9.620
24003WAT      O72250   3.282   9.488   5.054
24003WAT     H172251   3.278   9.396   5.017
24003WAT     H272252   3.354   9.493   5.123
24004WAT      O72253   1.470   1.449   1.669
24004WAT     H172254   1.554   1.422   1.622
24004WAT     H272255   1.401   1.377   1.657
24005WAT      O72256   8.059   6.728   7.681
24005WAT     H172257   8.089   6.748   7.774
24005WAT     H272258   8.105   6.789   7.617
24006WAT      O72259   0.956   1.815   4.698
24006WAT     H172260   1.011   1.821   4.615
24006WAT     H272261   0.953   1.720   4.729
24007WAT      O72262   3.965   7.628   2.202
24007WAT     H172263   4.039   7.560   2.198
24007WAT     H272264   3.877   7.580   2.206
24008WAT      O72265   6.650   3.855   9.514
24008WAT     H172266   6.579   3.855   9.585
24008WAT     H272267   6.646   3.769   9.463
24009WAT      O72268   6.537   2.454   8.389
24009WAT     H172269   6.481   2.400   8.326
24009WAT     H272270   6.604   2.507   8.336
24010WAT      O72271   1.320   2.776   8.401
24010WAT     H172272   1.304   2.751   8.305
24010WAT     H272273   1.291   2.870   8.416
24011WAT      O72274   6.708   3.236   3.277
24011WAT     H172275   6.610   3.237   3.299
24011WAT     H272276   6.728   3.312   3.215
24012WAT      O72277   7.744   6.036   2.753
24012WAT     H172278   7.779   6.021   2.845
24012WAT     H272279   7.816   6.076   2.696
24013WAT      O72280   7.339   6.806   1.106
24013WAT     H172281   7.249   6.781   1.141
24013WAT     H272282   7.330   6.850   1.017
24014WAT      O72283   0.878   5.593   0.697
24014WAT     H172284   0.837   5.623   0.610
24014WAT     H272285   0.805   5.577   0.764
24015WAT      O72286   0.914   7.831   9.145
24015WAT     H172287   0.862   7.915   9.128
24015WAT     H272288   1.006   7.854   9.176
24016WAT      O72289   2.695   7.347   3.714
24016WAT     H172290   2.631   7.308   3.649
24016WAT     H272291   2.742   7.274   3.764
24017WAT      O72292   6.913   6.271   4.776
24017WAT     H172293   6.816   6.250   4.789
24017WAT     H272294   6.953   6.301   4.863
24018WAT      O72295   5.325   5.747   0.859
24018WAT     H172296   5.415   5.705   0.850
24018WAT     H272297   5.312   5.777   0.954
24019WAT      O72298   5.826   7.614   4.529
24019WAT     H172299   5.908   7.667   4.507
24019WAT     H272300   5.754   7.635   4.462
24020WAT      O72301   8.830   1.371   5.168
24020WAT     H172302   8.801   1.342   5.077
24020WAT     H272303   8.930   1.370   5.173
24021WAT      O72304   1.317   2.792   1.461
24021WAT     H172305   1.293   2.765   1.554
24021WAT     H272306   1.415   2.776   1.446
24022WAT      O72307   1.781   5.393   8.123
24022WAT     H172308   1.857   5.393   8.058
24022WAT     H272309   1.817   5.402   8.216
24023WAT      O72310   8.599   1.902   4.706
24023WAT     H172311   8.506   1.887   4.671
24023WAT     H272312   8.595   1.963   4.785
24024WAT      O72313   0.688   6.417   5.274
24024WAT     H172314   0.599   6.436   5.232
24024WAT     H272315   0.745   6.500   5.270
24025WAT      O72316   5.863   7.418   6.012
24025WAT     H172317   5.852   7.340   5.950
24025WAT     H272318   5.935   7.478   5.977
24026WAT      O72319   0.562   2.367   9.205
24026WAT     H172320   0.630   2.294   9.193
24026WAT     H272321   0.544   2.380   9.302
24027WAT      O72322   2.401   3.665   6.125
24027WAT     H172323   2.493   3.700   6.104
24027WAT     H272324   2.401   3.629   6.218
24028WAT      O72325   6.282   6.561   6.271
24028WAT     H172326   6.335   6.624   6.215
24028WAT     H272327   6.266   6.476   6.220
24029WAT      O72328   0.294   5.443   7.331
24029WAT     H172329   0.320   5.466   7.425
24029WAT     H272330   0.260   5.525   7.285
24030WAT      O72331   4.326   5.286   1.108
24030WAT     H172332   4.294   5.237   1.190
24030WAT     H272333   4.299   5.234   1.027
24031WAT      O72334   8.404   5.733   5.001
24031WAT     H172335   8.409   5.828   4.972
24031WAT     H272336   8.331   5.722   5.069
24032WAT      O72337   8.128   2.936   5.291
24032WAT     H172338   8.062   2.970   5.224
24032WAT     H272339   8.218   2.927   5.247
24033WAT      O72340   3.614   1.295   6.992
24033WAT     H172341   3.528   1.346   6.989
24033WAT     H272342   3.619   1.245   7.079
24034WAT      O72343   3.842   5.150   5.025
24034WAT     H172344   3.751   5.190   5.013
24034WAT     H272345   3.849   5.108   5.115
24035WAT      O72346   6.327   1.329   6.245
24035WAT     H172347   6.365   1.421   6.255
24035WAT     H272348   6.340   1.297   6.151
24036WAT      O72349   3.448   6.448   6.710
24036WAT     H172350   3.486   6.534   6.746
24036WAT     H272351   3.352   6.440   6.737
24037WAT      O72352   1.428   2.805   3.006
24037WAT     H172353   1.341   2.766   3.038
24037WAT     H272354   1.419   2.904   3.000
24038WAT      O72355   8.914   7.905   2.717
24038WAT     H172356   8.995   7.939   2.671
24038WAT     H272357   8.833   7.954   2.684
24039WAT      O72358   5.011   7.450   3.781
24039WAT     H172359   4.951   7.412   3.852
24039WAT     H272360   5.104   7.456   3.817
24040WAT      O72361   6.671   5.500   6.665
24040WAT     H172362   6.586   5.450   6.647
24040WAT     H272363   6.719   5.458   6.742
24041WAT      O72364   5.374   6.024   4.940
24041WAT     H172365   5.437   6.002   5.014
24041WAT     H272366   5.411   5.990   4.854
24042WAT      O72367   3.637   4.597   6.606
24042WAT     H172368   3.540   4.620   6.597
24042WAT     H272369   3.656   4.567   6.699
24043WAT      O72370   8.170   5.972   9.250
24043WAT     H172371   8.162   5.876   9.276
24043WAT     H272372   8.266   5.997   9.245
24044WAT      O72373   8.346   9.195   3.907
24044WAT     H172374   8.436   9.151   3.913
24044WAT     H272375   8.355   9.281   3.857
24045WAT      O72376   1.457   7.830   8.549
24045WAT     H172377   1.498   7.897   8.611
24045WAT     H272378   1.368   7.864   8.518
24046WAT      O72379   3.469   3.303   7.446
24046WAT     H172380   3.546   3.366   7.456
24046WAT     H272381   3.432   3.309   7.354
24047WAT      O72382   4.092   7.810   4.016
24047WAT     H172383   4.077   7.879   3.945
24047WAT     H272384   4.109   7.722   3.973
24048WAT      O72385   8.479   2.053   3.125
24048WAT     H172386   8.488   1.954   3.116
24048WAT     H272387   8.487   2.095   3.035
24049WAT      O72388   8.171   6.914   6.702
24049WAT     H172389   8.205   6.944   6.791
24049WAT     H272390   8.217   6.829   6.675
24050WAT      O72391   8.257   7.009   6.966
24050WAT     H172392   8.195   6.942   7.006
24050WAT     H272393   8.332   7.028   7.029
24051WAT      O72394   1.966   3.478   4.519
24051WAT     H172395   1.984   3.471   4.421
24051WAT     H272396   2.002   3.564   4.554
24052WAT      O72397   6.856   6.063   5.105
24052WAT     H172398   6.902   5.985   5.147
24052WAT     H272399   6.868   6.059   5.006
24053WAT      O72400   1.598   1.892   9.568
24053WAT     H172401   1.649   1.807   9.556
24053WAT     H272402   1.662   1.966   9.586
24054WAT      O72403   6.149   0.555   9.176
24054WAT     H172404   6.138   0.625   9.246
24054WAT     H272405   6.169   0.467   9.220
24055WAT      O72406   4.999   8.563   7.846
24055WAT     H172407   4.903   8.562   7.872
24055WAT     H272408   5.014   8.499   7.771
24056WAT      O72409   9.027   3.503   5.927
24056WAT     H172410   9.021   3.471   6.022
24056WAT     H272411   9.089   3.443   5.876
24057WAT      O72412   4.036   7.273   7.463
24057WAT     H172413   3.968   7.252   7.533
24057WAT     H272414   4.043   7.195   7.400
24058WAT      O72415   7.796   4.868   1.787
24058WAT     H172416   7.710   4.882   1.835
24058WAT     H272417   7.872   4.868   1.852
24059WAT      O72418   9.814   8.136   6.311
24059WAT     H172419   9.878   8.074   6.264
24059WAT     H272420   9.747   8.082   6.362
24060WAT      O72421   6.776   1.271   6.652
24060WAT     H172422   6.709   1.266   6.578
24060WAT     H272423   6.754   1.203   6.722
24061WAT      O72424   2.320   0.995   6.311
24061WAT     H172425   2.285   1.089   6.314
24061WAT     H272426   2.408   0.994   6.263
24062WAT      O72427   8.955   5.914   1.274
24062WAT     H172428   9.023   5.921   1.200
24062WAT     H272429   8.989   5.852   1.344
24063WAT      O72430   6.846   8.367   4.295
24063WAT     H172431   6.849   8.268   4.306
24063WAT     H272432   6.897   8.411   4.369
24064WAT      O72433   6.780   2.881   8.286
24064WAT     H172434   6.750   2.944   8.357
24064WAT     H272435   6.879   2.889   8.274
24065WAT      O72436   4.042   0.455   6.280
24065WAT     H172437   3.994   0.525   6.334
24065WAT     H272438   3.996   0.445   6.191
24066WAT      O72439   0.352   8.560   4.010
24066WAT     H172440   0.291   8.635   4.036
24066WAT     H272441   0.416   8.541   4.084
24067WAT      O72442   0.542   8.712   7.665
24067WAT     H172443   0.456   8.676   7.630
24067WAT     H272444   0.524   8.771   7.743
24068WAT      O72445   5.085   3.939   8.032
24068WAT     H172446   5.089   3.884   8.116
24068WAT     H272447   5.099   4.035   8.055
24069WAT      O72448   2.062   3.574   9.893
24069WAT     H172449   2.069   3.499   9.959
24069WAT     H272450   2.079   3.539   9.801
24070WAT      O72451   6.921   1.133   2.541
24070WAT     H172452   6.953   1.069   2.611
24070WAT     H272453   6.958   1.107   2.452
24071WAT      O72454   1.649   6.061   4.082
24071WAT     H172455   1.573   6.024   4.136
24071WAT     H272456   1.733   6.013   4.106
24072WAT      O72457   2.872   4.749   4.946
24072WAT     H172458   2.952   4.744   4.886
24072WAT     H272459   2.853   4.845   4.969
24073WAT      O72460   7.809   3.229   6.434
24073WAT     H172461   7.837   3.282   6.354
24073WAT     H272462   7.714   3.251   6.456
24074WAT      O72463   2.929   3.855   0.834
24074WAT     H172464   2.855   3.881   0.897
24074WAT     H272465   2.922   3.908   0.750
24075WAT      O72466   9.485   7.135   7.226
24075WAT     H172467   9.538   7.211   7.264
24075WAT     H272468   9.535   7.050   7.237
24076WAT      O72469   6.708   9.742   4.489
24076WAT     H172470   6.667   9.739   4.398
24076WAT     H272471   6.808   9.740   4.480
24077WAT      O72472   6.193   6.952   5.662
24077WAT     H172473   6.277   6.959   5.609
24077WAT     H272474   6.123   6.905   5.609
24078WAT      O72475   9.771   8.799   4.520
24078WAT     H172476   9.731   8.709   4.504
24078WAT     H272477   9.776   8.849   4.433
24079WAT      O72478   3.377   1.177   8.898
24079WAT     H172479   3.345   1.238   8.826
24079WAT     H272480   3.312   1.102   8.909
24080WAT      O72481   7.860   6.730   1.736
24080WAT     H172482   7.893   6.820   1.708
24080WAT     H272483   7.923   6.690   1.803
24081WAT      O72484   0.725   4.073   1.777
24081WAT     H172485   0.694   4.004   1.842
24081WAT     H272486   0.819   4.098   1.798
24082WAT      O72487   9.061   3.152   6.113
24082WAT     H172488   8.995   3.102   6.170
24082WAT     H272489   9.053   3.122   6.018
24083WAT      O72490   9.224   2.623   6.732
24083WAT     H172491   9.180   2.553   6.787
24083WAT     H272492   9.313   2.590   6.700
24084WAT      O72493   1.669   4.495   0.064
24084WAT     H172494   1.692   4.443  -0.018
24084WAT     H272495   1.588   4.551   0.047
24085WAT      O72496   4.863   2.442   3.747
24085WAT     H172497   4.885   2.418   3.841
24085WAT     H272498   4.877   2.540   3.734
24086WAT      O72499   9.747   7.235   7.896
24086WAT     H172500   9.782   7.145   7.923
24086WAT     H272501   9.704   7.279   7.975
24087WAT      O72502   1.056   9.057   7.103
24087WAT     H172503   1.135   9.083   7.159
24087WAT     H272504   0.981   9.122   7.119
24088WAT      O72505   4.821   8.759   0.282
24088WAT     H172506   4.724   8.783   0.275
24088WAT     H272507   4.871   8.798   0.205
24089WAT      O72508   5.044   4.526   4.844
24089WAT     H172509   4.974   4.555   4.780
24089WAT     H272510   5.135   4.551   4.809
24090WAT      O72511   5.913   3.383   8.936
24090WAT     H172512   5.967   3.386   9.020
24090WAT     H272513   5.815   3.378   8.960
24091WAT      O72514   9.446   9.080   4.889
24091WAT     H172515   9.483   9.000   4.842
24091WAT     H272516   9.521   9.130   4.934
24092WAT      O72517   1.425   6.161   0.723
24092WAT     H172518   1.516   6.181   0.688
24092WAT     H272519   1.365   6.239   0.706
24093WAT      O72520   8.903   2.508   3.198
24093WAT     H172521   8.969   2.461   3.257
24093WAT     H272522   8.949   2.540   3.115
24094WAT      O72523   1.505   2.350   3.649
24094WAT     H172524   1.534   2.258   3.622
24094WAT     H272525   1.425   2.343   3.708
24095WAT      O72526   7.255   1.035   8.998
24095WAT     H172527   7.320   1.096   8.954
24095WAT     H272528   7.168   1.037   8.948
24096WAT      O72529   2.166   6.553   6.786
24096WAT     H172530   2.143   6.511   6.698
24096WAT     H272531   2.166   6.653   6.777
24097WAT      O72532   2.975   7.870   3.712
24097WAT     H172533   2.919   7.856   3.630
24097WAT     H272534   3.069   7.842   3.693
24098WAT      O72535   4.465   1.549   1.146
24098WAT     H172536   4.544   1.535   1.206
24098WAT     H272537   4.484   1.623   1.082
24099WAT      O72538   7.701   6.742   3.053
24099WAT     H172539   7.741   6.758   3.144
24099WAT     H272540   7.769   6.697   2.995
24100WAT      O72541   7.484   6.763   4.115
24100WAT     H172542   7.460   6.854   4.079
24100WAT     H272543   7.552   6.720   4.055
24101WAT      O72544   1.164   5.355   0.240
24101WAT     H172545   1.121   5.363   0.330
24101WAT     H272546   1.107   5.401   0.171
24102WAT      O72547   0.690   8.391   5.437
24102WAT     H172548   0.633   8.473   5.435
24102WAT     H272549   0.692   8.354   5.530
24103WAT      O72550   0.178   1.505   6.337
24103WAT     H172551   0.099   1.567   6.336
24103WAT     H272552   0.193   1.468   6.245
24104WAT      O72553   6.157   3.686   2.797
24104WAT     H172554   6.151   3.762   2.862
24104WAT     H272555   6.245   3.639   2.808
24105WAT      O72556   7.883   6.032   1.722
24105WAT     H172557   7.890   6.130   1.701
24105WAT     H272558   7.812   6.018   1.791
24106WAT      O72559   7.563   2.568   1.820
24106WAT     H172560   7.549   2.657   1.864
24106WAT     H272561   7.535   2.573   1.724
24107WAT      O72562   4.922   0.636   8.887
24107WAT     H172563   5.016   0.605   8.902
24107WAT     H272564   4.922   0.711   8.821
24108WAT      O72565   9.061   4.384   0.291
24108WAT     H172566   9.042   4.368   0.194
24108WAT     H272567   8.998   4.453   0.327
24109WAT      O72568   7.494   4.969   3.905
24109WAT     H172569   7.557   4.897   3.933
24109WAT     H272570   7.403   4.930   3.890
24110WAT      O72571   6.965   7.806   9.060
24110WAT     H172572   7.044   7.865   9.044
24110WAT     H272573   6.900   7.816   8.984
24111WAT      O72574   1.598   2.668   6.985
24111WAT     H172575   1.665   2.715   7.043
24111WAT     H272576   1.633   2.665   6.891
24112WAT      O72577   3.823   5.812   0.015
24112WAT     H172578   3.872   5.899   0.009
24112WAT     H272579   3.735   5.827   0.061
24113WAT      O72580   9.661   6.019   1.598
24113WAT     H172581   9.625   6.109   1.623
24113WAT     H272582   9.761   6.021   1.603
24114WAT      O72583   9.316   6.400   0.071
24114WAT     H172584   9.367   6.334   0.015
24114WAT     H272585   9.305   6.485   0.020
24115WAT      O72586   2.522   1.465   2.569
24115WAT     H172587   2.543   1.420   2.656
24115WAT     H272588   2.604   1.466   2.512
24116WAT      O72589   9.499   8.905   4.117
24116WAT     H172590   9.563   8.925   4.043
24116WAT     H272591   9.494   8.984   4.179
24117WAT      O72592   4.546   2.458   2.073
24117WAT     H172593   4.490   2.507   2.140
24117WAT     H272594   4.633   2.506   2.060
24118WAT      O72595   5.525   8.258   0.374
24118WAT     H172596   5.488   8.350   0.365
24118WAT     H272597   5.605   8.260   0.434
24119WAT      O72598   3.186   0.639   4.630
24119WAT     H172599   3.216   0.555   4.585
24119WAT     H272600   3.089   0.655   4.609
24120WAT      O72601   6.751   9.302   7.060
24120WAT     H172602   6.729   9.398   7.043
24120WAT     H272603   6.671   9.255   7.097
24121WAT      O72604   6.593   7.453   0.090
24121WAT     H172605   6.657   7.529   0.099
24121WAT     H272606   6.515   7.467   0.151
24122WAT      O72607   8.763   3.387   2.134
24122WAT     H172608   8.805   3.456   2.076
24122WAT     H272609   8.739   3.427   2.223
24123WAT      O72610   7.835   5.957   1.464
24123WAT     H172611   7.817   5.975   1.561
24123WAT     H272612   7.790   6.026   1.408
24124WAT      O72613   9.089   1.065   9.417
24124WAT     H172614   9.185   1.089   9.428
24124WAT     H272615   9.042   1.138   9.367
24125WAT      O72616   9.499   6.322   7.004
24125WAT     H172617   9.403   6.323   6.976
24125WAT     H272618   9.556   6.344   6.925
24126WAT      O72619   9.656   8.527   3.079
24126WAT     H172620   9.737   8.498   3.030
24126WAT     H272621   9.585   8.457   3.072
24127WAT      O72622   2.644   2.729   1.833
24127WAT     H172623   2.714   2.758   1.767
24127WAT     H272624   2.554   2.753   1.797
24128WAT      O72625   9.427   0.037   3.654
24128WAT     H172626   9.376   0.064   3.573
24128WAT     H272627   9.480  -0.045   3.634
24129WAT      O72628   9.751   0.669   3.184
24129WAT     H172629   9.692   0.739   3.223
24129WAT     H272630   9.846   0.700   3.185
24130WAT      O72631   4.807   2.127   8.897
24130WAT     H172632   4.722   2.075   8.912
24130WAT     H272633   4.789   2.224   8.913
24131WAT      O72634   4.288   1.738   8.972
24131WAT     H172635   4.241   1.728   8.884
24131WAT     H272636   4.294   1.835   8.995
24132WAT      O72637   6.346   1.364   9.501
24132WAT     H172638   6.273   1.359   9.433
24132WAT     H272639   6.313   1.411   9.583
24133WAT      O72640   3.184   4.273   7.103
24133WAT     H172641   3.234   4.357   7.123
24133WAT     H272642   3.086   4.291   7.111
24134WAT      O72643   8.145   1.837   4.395
24134WAT     H172644   8.060   1.828   4.447
24134WAT     H272645   8.194   1.749   4.395
24135WAT      O72646   0.467   0.891   3.799
24135WAT     H172647   0.374   0.916   3.823
24135WAT     H272648   0.532   0.947   3.850
24136WAT      O72649   4.200   7.433   1.619
24136WAT     H172650   4.147   7.459   1.539
24136WAT     H272651   4.153   7.361   1.670
24137WAT      O72652   5.810   3.489   5.688
24137WAT     H172653   5.845   3.577   5.657
24137WAT     H272654   5.860   3.415   5.643
24138WAT      O72655   8.647   6.655   1.133
24138WAT     H172656   8.570   6.603   1.097
24138WAT     H272657   8.717   6.664   1.061
24139WAT      O72658   1.157   7.843   2.916
24139WAT     H172659   1.135   7.929   2.872
24139WAT     H272660   1.201   7.860   3.005
24140WAT      O72661   2.288   7.986   6.015
24140WAT     H172662   2.273   8.034   6.101
24140WAT     H272663   2.214   8.007   5.951
24141WAT      O72664   0.922   0.030   2.897
24141WAT     H172665   0.996   0.091   2.925
24141WAT     H272666   0.938  -0.061   2.935
24142WAT      O72667   3.829   6.532   9.796
24142WAT     H172668   3.736   6.546   9.828
24142WAT     H272669   3.863   6.616   9.754
24143WAT      O72670   8.841   8.718   0.350
24143WAT     H172671   8.939   8.710   0.331
24143WAT     H272672   8.827   8.788   0.421
24144WAT      O72673   2.431   5.098   7.247
24144WAT     H172674   2.447   5.083   7.344
24144WAT     H272675   2.429   5.196   7.227
24145WAT      O72676   1.384   0.325   1.441
24145WAT     H172677   1.322   0.396   1.407
24145WAT     H272678   1.332   0.240   1.455
24146WAT      O72679   4.960   5.731   4.906
24146WAT     H172680   4.931   5.827   4.911
24146WAT     H272681   4.943   5.686   4.994
24147WAT      O72682   9.254   5.198   9.870
24147WAT     H172683   9.313   5.260   9.922
24147WAT     H272684   9.206   5.249   9.799
24148WAT      O72685   5.017   7.238   5.178
24148WAT     H172686   5.079   7.161   5.194
24148WAT     H272687   4.961   7.219   5.098
24149WAT      O72688   4.701   3.778   7.181
24149WAT     H172689   4.782   3.758   7.236
24149WAT     H272690   4.711   3.869   7.141
24150WAT      O72691   7.871   9.592   1.797
24150WAT     H172692   7.927   9.637   1.867
24150WAT     H272693   7.888   9.493   1.799
24151WAT      O72694   1.176   7.012   1.729
24151WAT     H172695   1.206   7.102   1.698
24151WAT     H272696   1.221   6.941   1.674
24152WAT      O72697   4.482   7.231   9.202
24152WAT     H172698   4.429   7.220   9.286
24152WAT     H272699   4.485   7.328   9.178
24153WAT      O72700   7.309   7.653   4.391
24153WAT     H172701   7.227   7.710   4.393
24153WAT     H272702   7.312   7.595   4.472
24154WAT      O72703   0.717   0.346   6.407
24154WAT     H172704   0.769   0.270   6.448
24154WAT     H272705   0.778   0.421   6.386
24155WAT      O72706   8.545   3.581   9.175
24155WAT     H172707   8.547   3.545   9.268
24155WAT     H272708   8.451   3.586   9.143
24156WAT      O72709   9.699   4.768   2.572
24156WAT     H172710   9.697   4.737   2.668
24156WAT     H272711   9.626   4.833   2.556
24157WAT      O72712   9.655   6.863   7.279
24157WAT     H172713   9.622   6.821   7.364
24157WAT     H272714   9.753   6.881   7.287
24158WAT      O72715   3.623   5.160   7.183
24158WAT     H172716   3.543   5.106   7.156
24158WAT     H272717   3.647   5.224   7.110
24159WAT      O72718   7.213   5.499   1.186
24159WAT     H172719   7.198   5.567   1.114
24159WAT     H272720   7.311   5.488   1.200
24160WAT      O72721   8.721   9.012   9.453
24160WAT     H172722   8.744   9.020   9.550
24160WAT     H272723   8.751   9.095   9.405
24161WAT      O72724   6.126   2.638   4.983
24161WAT     H172725   6.031   2.666   4.965
24161WAT     H272726   6.170   2.612   4.897
24162WAT      O72727   6.008   7.057   8.201
24162WAT     H172728   5.944   6.982   8.219
24162WAT     H272729   5.990   7.132   8.264
24163WAT      O72730   4.717   9.344   0.924
24163WAT     H172731   4.699   9.340   0.825
24163WAT     H272732   4.633   9.369   0.972
24164WAT      O72733   9.864   8.374   2.706
24164WAT     H172734   9.804   8.408   2.634
24164WAT     H272735   9.958   8.368   2.671
24165WAT      O72736   2.865   1.151   3.451
24165WAT     H172737   2.828   1.243   3.467
24165WAT     H272738   2.862   1.098   3.535
24166WAT      O72739   9.042   0.823   8.176
24166WAT     H172740   9.043   0.923   8.167
24166WAT     H272741   9.063   0.782   8.087
24167WAT      O72742   8.434   9.119   6.147
24167WAT     H172743   8.478   9.111   6.057
24167WAT     H272744   8.393   9.031   6.171
24168WAT      O72745   8.322   2.544   2.611
24168WAT     H172746   8.250   2.476   2.622
24168WAT     H272747   8.410   2.498   2.595
24169WAT      O72748   0.496   8.849   0.381
24169WAT     H172749   0.563   8.839   0.307
24169WAT     H272750   0.544   8.868   0.467
24170WAT      O72751   0.183   2.979   2.121
24170WAT     H172752   0.146   3.016   2.035
24170WAT     H272753   0.146   2.887   2.136
24171WAT      O72754   1.140   3.352   0.645
24171WAT     H172755   1.214   3.419   0.653
24171WAT     H272756   1.136   3.297   0.729
24172WAT      O72757   2.613   7.630   4.616
24172WAT     H172758   2.569   7.655   4.703
24172WAT     H272759   2.678   7.556   4.632
24173WAT      O72760   6.264   4.592   9.188
24173WAT     H172761   6.302   4.505   9.156
24173WAT     H272762   6.268   4.659   9.115
24174WAT      O72763   9.617   2.119   1.291
24174WAT     H172764   9.534   2.137   1.238
24174WAT     H272765   9.679   2.198   1.283
24175WAT      O72766   8.375   3.750   3.181
24175WAT     H172767   8.281   3.773   3.206
24175WAT     H272768   8.434   3.830   3.194
24176WAT      O72769   0.338   2.695   5.454
24176WAT     H172770   0.407   2.730   5.391
24176WAT     H272771   0.377   2.620   5.507
24177WAT      O72772   9.686   4.250   6.720
24177WAT     H172773   9.603   4.228   6.771
24177WAT     H272774   9.745   4.170   6.714
24178WAT      O72775   1.734   1.939   8.706
24178WAT     H172776   1.770   1.847   8.691
24178WAT     H272777   1.788   1.984   8.776
24179WAT      O72778   7.742   3.766   8.361
24179WAT     H172779   7.721   3.675   8.397
24179WAT     H272780   7.784   3.821   8.433
24180WAT      O72781   8.012   0.885   8.972
24180WAT     H172782   7.969   0.813   8.919
24180WAT     H272783   8.004   0.865   9.069
24181WAT      O72784   3.238   3.953   5.702
24181WAT     H172785   3.312   3.888   5.685
24181WAT     H272786   3.172   3.913   5.766
24182WAT      O72787   6.185   7.195   6.629
24182WAT     H172788   6.285   7.205   6.624
24182WAT     H272789   6.152   7.143   6.550
24183WAT      O72790   9.365   9.180   8.074
24183WAT     H172791   9.291   9.241   8.104
24183WAT     H272792   9.389   9.118   8.148
24184WAT      O72793   7.824   2.286   5.334
24184WAT     H172794   7.823   2.193   5.369
24184WAT     H272795   7.820   2.351   5.410
24185WAT      O72796   5.414   1.045   7.536
24185WAT     H172797   5.437   1.135   7.572
24185WAT     H272798   5.376   1.054   7.444
24186WAT      O72799   6.315   4.786   7.648
24186WAT     H172800   6.303   4.853   7.574
24186WAT     H272801   6.344   4.698   7.609
24187WAT      O72802   7.910   0.478   5.824
24187WAT     H172803   7.838   0.534   5.864
24187WAT     H272804   7.929   0.400   5.884
24188WAT      O72805   8.628   5.041   4.561
24188WAT     H172806   8.661   5.135   4.556
24188WAT     H272807   8.641   5.006   4.654
24189WAT      O72808   2.633   5.816   3.734
24189WAT     H172809   2.705   5.831   3.802
24189WAT     H272810   2.660   5.743   3.672
24190WAT      O72811   5.619   4.794   3.137
24190WAT     H172812   5.710   4.813   3.172
24190WAT     H272813   5.552   4.804   3.210
24191WAT      O72814   6.998   5.937   1.687
24191WAT     H172815   7.041   6.004   1.626
24191WAT     H272816   6.930   5.885   1.637
24192WAT      O72817   7.499   1.077   7.630
24192WAT     H172818   7.529   1.172   7.639
24192WAT     H272819   7.536   1.038   7.545
24193WAT      O72820   0.870   3.746   0.954
24193WAT     H172821   0.904   3.668   0.901
24193WAT     H272822   0.795   3.715   1.012
24194WAT      O72823   8.677   2.035   2.725
24194WAT     H172824   8.727   2.115   2.760
24194WAT     H272825   8.587   2.064   2.694
24195WAT      O72826   2.872   0.360   0.665
24195WAT     H172827   2.779   0.335   0.692
24195WAT     H272828   2.929   0.367   0.747
24196WAT      O72829   1.494   5.882   1.054
24196WAT     H172830   1.489   5.830   0.969
24196WAT     H272831   1.524   5.976   1.035
24197WAT      O72832   2.192   7.612   7.195
24197WAT     H172833   2.265   7.574   7.251
24197WAT     H272834   2.166   7.702   7.232
24198WAT      O72835   5.715   3.382   7.815
24198WAT     H172836   5.788   3.332   7.862
24198WAT     H272837   5.754   3.449   7.753
24199WAT      O72838   9.415   9.757   7.447
24199WAT     H172839   9.396   9.811   7.529
24199WAT     H272840   9.482   9.686   7.469
24200WAT      O72841   9.140   0.605   4.915
24200WAT     H172842   9.157   0.554   5.000
24200WAT     H272843   9.127   0.540   4.840
24201WAT      O72844   5.465   1.260   3.664
24201WAT     H172845   5.529   1.186   3.644
24201WAT     H272846   5.389   1.225   3.719
24202WAT      O72847   3.877   5.959   0.437
24202WAT     H172848   3.814   6.031   0.465
24202WAT     H272849   3.864   5.878   0.495
24203WAT      O72850   2.494   8.289   2.690
24203WAT     H172851   2.440   8.208   2.667
24203WAT     H272852   2.582   8.284   2.644
24204WAT      O72853   5.345   0.057   1.329
24204WAT     H172854   5.300   0.081   1.415
24204WAT     H272855   5.444   0.068   1.339
24205WAT      O72856   5.639   3.685   9.074
24205WAT     H172857   5.640   3.773   9.122
24205WAT     H272858   5.694   3.691   8.992
24206WAT      O72859   2.075   6.887   4.800
24206WAT     H172860   2.111   6.798   4.826
24206WAT     H272861   2.151   6.947   4.774
24207WAT      O72862   0.136   5.812   8.094
24207WAT     H172863   0.164   5.768   8.179
24207WAT     H272864   0.054   5.767   8.059
24208WAT      O72865   9.468   9.310   0.079
24208WAT     H172866   9.559   9.318   0.120
24208WAT     H272867   9.477   9.279  -0.015
24209WAT      O72868   1.431   9.281   5.941
24209WAT     H172869   1.337   9.258   5.919
24209WAT     H272870   1.461   9.357   5.883
24210WAT      O72871   1.863   2.901   7.897
24210WAT     H172872   1.774   2.918   7.854
24210WAT     H272873   1.854   2.829   7.965
24211WAT      O72874   5.129   5.567   2.865
24211WAT     H172875   5.097   5.656   2.834
24211WAT     H272876   5.229   5.565   2.864
24212WAT      O72877   4.527   7.031   2.106
24212WAT     H172878   4.610   6.981   2.080
24212WAT     H272879   4.551   7.122   2.138
24213WAT      O72880   9.296   2.289   2.050
24213WAT     H172881   9.287   2.383   2.083
24213WAT     H272882   9.209   2.241   2.060
24214WAT      O72883   4.673   1.610   0.711
24214WAT     H172884   4.738   1.670   0.758
24214WAT     H272885   4.580   1.635   0.737
24215WAT      O72886   2.694   3.100   0.053
24215WAT     H172887   2.706   3.149   0.140
24215WAT     H272888   2.677   3.003   0.071
24216WAT      O72889   0.927   0.794   1.586
24216WAT     H172890   0.906   0.891   1.586
24216WAT     H272891   0.881   0.749   1.663
24217WAT      O72892   0.435   0.693   6.368
24217WAT     H172893   0.408   0.687   6.464
24217WAT     H272894   0.497   0.770   6.355
24218WAT      O72895   1.667   3.901   3.972
24218WAT     H172896   1.621   3.866   3.890
24218WAT     H272897   1.611   3.881   4.053
24219WAT      O72898   0.388   6.152   0.552
24219WAT     H172899   0.302   6.182   0.594
24219WAT     H272900   0.436   6.091   0.615
24220WAT      O72901   9.562   7.985   6.080
24220WAT     H172902   9.612   8.048   6.020
24220WAT     H272903   9.487   8.034   6.125
24221WAT      O72904   0.706   9.789   3.184
24221WAT     H172905   0.707   9.877   3.137
24221WAT     H272906   0.670   9.800   3.277
24222WAT      O72907   2.146   7.451   3.780
24222WAT     H172908   2.095   7.508   3.716
24222WAT     H272909   2.094   7.440   3.865
24223WAT      O72910   1.244   9.358   2.200
24223WAT     H172911   1.273   9.333   2.107
24223WAT     H272912   1.187   9.440   2.197
24224WAT      O72913   3.865   2.943   6.238
24224WAT     H172914   3.861   2.843   6.240
24224WAT     H272915   3.885   2.974   6.145
24225WAT      O72916   5.632   5.212   3.194
24225WAT     H172917   5.537   5.237   3.175
24225WAT     H272918   5.691   5.245   3.121
24226WAT      O72919   8.995   5.811   9.142
24226WAT     H172920   9.040   5.803   9.231
24226WAT     H272921   8.952   5.723   9.118
24227WAT      O72922   9.838   8.521   7.731
24227WAT     H172923   9.866   8.484   7.819
24227WAT     H272924   9.830   8.447   7.664
24228WAT      O72925   9.091   4.484   3.658
24228WAT     H172926   9.029   4.406   3.656
24228WAT     H272927   9.063   4.547   3.731
24229WAT      O72928   2.847   7.474   8.171
24229WAT     H172929   2.906   7.555   8.175
24229WAT     H272930   2.883   7.410   8.104
24230WAT      O72931   7.602   3.689   4.955
24230WAT     H172932   7.693   3.672   4.994
24230WAT     H272933   7.547   3.741   5.020
24231WAT      O72934   4.629   0.832   8.935
24231WAT     H172935   4.682   0.804   8.854
24231WAT     H272936   4.646   0.928   8.955
24232WAT      O72937   7.418   7.301   9.471
24232WAT     H172938   7.503   7.262   9.435
24232WAT     H272939   7.377   7.238   9.536
24233WAT      O72940   9.851   3.331   8.609
24233WAT     H172941   9.878   3.277   8.529
24233WAT     H272942   9.787   3.278   8.665
24234WAT      O72943   8.634   5.265   5.102
24234WAT     H172944   8.663   5.361   5.103
24234WAT     H272945   8.545   5.256   5.146
24235WAT      O72946   8.112   5.628   2.096
24235WAT     H172947   8.019   5.599   2.072
24235WAT     H272948   8.133   5.599   2.189
24236WAT      O72949   2.735   6.553   0.119
24236WAT     H172950   2.763   6.543   0.024
24236WAT     H272951   2.715   6.649   0.138
24237WAT      O72952   8.962   8.281   7.023
24237WAT     H172953   8.986   8.185   7.034
24237WAT     H272954   9.030   8.326   6.965
24238WAT      O72955   5.981   1.184   5.652
24238WAT     H172956   5.935   1.266   5.684
24238WAT     H272957   5.963   1.109   5.715
24239WAT      O72958   5.282   6.626   0.570
24239WAT     H172959   5.187   6.594   0.577
24239WAT     H272960   5.289   6.692   0.495
24240WAT      O72961   3.847   2.953   8.637
24240WAT     H172962   3.773   3.000   8.686
24240WAT     H272963   3.817   2.932   8.544
24241WAT      O72964   4.494   9.151   8.390
24241WAT     H172965   4.447   9.104   8.465
24241WAT     H272966   4.490   9.095   8.308
24242WAT      O72967   3.837   5.486   7.116
24242WAT     H172968   3.802   5.507   7.207
24242WAT     H272969   3.864   5.570   7.069
24243WAT      O72970   9.174   4.217   4.704
24243WAT     H172971   9.172   4.300   4.648
24243WAT     H272972   9.194   4.241   4.799
24244WAT      O72973   4.087   4.897   9.438
24244WAT     H172974   4.028   4.940   9.506
24244WAT     H272975   4.059   4.803   9.423
24245WAT      O72976   4.418   6.350   1.603
24245WAT     H172977   4.366   6.276   1.646
24245WAT     H272978   4.435   6.422   1.670
24246WAT      O72979   4.725   1.322   2.979
24246WAT     H172980   4.670   1.398   2.945
24246WAT     H272981   4.737   1.332   3.078
24247WAT      O72982   0.040   5.236   9.567
24247WAT     H172983   0.066   5.297   9.492
24247WAT     H272984   0.063   5.142   9.542
24248WAT      O72985   9.542   4.706   5.549
24248WAT     H172986   9.630   4.672   5.581
24248WAT     H272987   9.490   4.742   5.626
24249WAT      O72988   1.243   3.879   1.564
24249WAT     H172989   1.340   3.895   1.582
24249WAT     H272990   1.189   3.910   1.643
24250WAT      O72991   8.300   6.604   6.945
24250WAT     H172992   8.377   6.646   6.992
24250WAT     H272993   8.215   6.629   6.990
24251WAT      O72994   2.161   4.981   7.011
24251WAT     H172995   2.256   5.012   7.019
24251WAT     H272996   2.156   4.906   6.945
24252WAT      O72997   9.368   7.412   4.175
24252WAT     H172998   9.399   7.388   4.083
24252WAT     H272999   9.448   7.426   4.233
24253WAT      O73000   6.193   3.512   5.038
24253WAT     H173001   6.222   3.430   5.086
24253WAT     H273002   6.161   3.580   5.104
24254WAT      O73003   6.495   6.826   4.000
24254WAT     H173004   6.511   6.817   4.099
24254WAT     H273005   6.573   6.872   3.958
24255WAT      O73006   7.110   2.125   8.129
24255WAT     H173007   7.133   2.076   8.044
24255WAT     H273008   7.171   2.095   8.202
24256WAT      O73009   5.057   2.383   2.776
24256WAT     H173010   5.101   2.460   2.730
24256WAT     H273011   5.035   2.312   2.708
24257WAT      O73012   1.511   0.972   6.427
24257WAT     H173013   1.496   1.061   6.471
24257WAT     H273014   1.538   0.986   6.332
24258WAT      O73015   6.492   2.752   7.229
24258WAT     H173016   6.441   2.723   7.310
24258WAT     H273017   6.571   2.692   7.216
24259WAT      O73018   6.377   4.856   5.656
24259WAT     H173019   6.464   4.894   5.626
24259WAT     H273020   6.359   4.885   5.750
24260WAT      O73021   3.031   1.358   6.734
24260WAT     H173022   2.939   1.343   6.769
24260WAT     H273023   3.084   1.273   6.741
24261WAT      O73024   8.599   8.417   3.375
24261WAT     H173025   8.605   8.393   3.472
24261WAT     H273026   8.673   8.481   3.353
24262WAT      O73027   9.826   3.544   5.623
24262WAT     H173028   9.876   3.630   5.631
24262WAT     H273029   9.810   3.524   5.526
24263WAT      O73030   8.033   9.804   1.968
24263WAT     H173031   7.965   9.877   1.961
24263WAT     H273032   8.024   9.759   2.057
24264WAT      O73033   8.224   1.311   3.914
24264WAT     H173034   8.196   1.392   3.967
24264WAT     H273035   8.319   1.321   3.886
24265WAT      O73036   4.133   2.635   5.891
24265WAT     H173037   4.133   2.735   5.898
24265WAT     H273038   4.222   2.604   5.857
24266WAT      O73039   5.461   7.498   1.269
24266WAT     H173040   5.509   7.564   1.212
24266WAT     H273041   5.398   7.546   1.330
24267WAT      O73042   8.020   0.551   6.446
24267WAT     H173043   8.026   0.597   6.357
24267WAT     H273044   8.110   0.517   6.472
24268WAT      O73045   8.342   7.193   9.420
24268WAT     H173046   8.285   7.194   9.338
24268WAT     H273047   8.386   7.104   9.430
24269WAT      O73048   2.682   7.597   2.127
24269WAT     H173049   2.658   7.578   2.031
24269WAT     H273050   2.598   7.597   2.182
24270WAT      O73051   5.333   8.069   7.320
24270WAT     H173052   5.258   8.099   7.261
24270WAT     H273053   5.296   8.042   7.410
24271WAT      O73054   0.653   0.020   8.748
24271WAT     H173055   0.648  -0.079   8.736
24271WAT     H273056   0.640   0.065   8.659
24272WAT      O73057   1.527   5.580   2.177
24272WAT     H173058   1.590   5.658   2.182
24272WAT     H273059   1.460   5.597   2.105
24273WAT      O73060   7.502   6.204   0.009
24273WAT     H173061   7.477   6.214  -0.087
24273WAT     H273062   7.423   6.172   0.061
24274WAT      O73063   6.393   7.497   0.247
24274WAT     H173064   6.310   7.441   0.245
24274WAT     H273065   6.369   7.593   0.234
24275WAT      O73066   8.178   5.728   7.014
24275WAT     H173067   8.086   5.691   7.006
24275WAT     H273068   8.231   5.703   6.932
24276WAT      O73069   0.909   5.238   3.497
24276WAT     H173070   0.905   5.333   3.464
24276WAT     H273071   0.963   5.234   3.581
24277WAT      O73072   1.153   6.338   3.487
24277WAT     H173073   1.053   6.335   3.498
24277WAT     H273074   1.181   6.268   3.423
24278WAT      O73075   7.055   2.397   3.525
24278WAT     H173076   7.057   2.439   3.434
24278WAT     H273077   6.984   2.327   3.528
24279WAT      O73078   7.419   3.690   0.934
24279WAT     H173079   7.424   3.751   1.013
24279WAT     H273080   7.499   3.704   0.876
24280WAT      O73081   9.852   2.528   8.938
24280WAT     H173082   9.949   2.518   8.958
24280WAT     H273083   9.832   2.488   8.848
24281WAT      O73084   3.826   4.130   8.462
24281WAT     H173085   3.780   4.041   8.459
24281WAT     H273086   3.896   4.134   8.390
24282WAT      O73087   5.864   6.315   7.337
24282WAT     H173088   5.917   6.398   7.327
24282WAT     H273089   5.804   6.304   7.258
24283WAT      O73090   8.094   9.727   2.521
24283WAT     H173091   8.000   9.760   2.533
24283WAT     H273092   8.142   9.787   2.457
24284WAT      O73093   6.765   0.547   6.304
24284WAT     H173094   6.783   0.478   6.374
24284WAT     H273095   6.837   0.616   6.306
24285WAT      O73096   1.693   1.887   4.420
24285WAT     H173097   1.734   1.860   4.507
24285WAT     H273098   1.690   1.807   4.359
24286WAT      O73099   3.064   4.764   2.752
24286WAT     H173100   3.121   4.825   2.697
24286WAT     H273101   3.113   4.678   2.768
24287WAT      O73102   5.847   6.403   8.118
24287WAT     H173103   5.898   6.432   8.037
24287WAT     H273104   5.759   6.450   8.120
24288WAT      O73105   5.343   9.599   8.833
24288WAT     H173106   5.389   9.620   8.747
24288WAT     H273107   5.270   9.665   8.850
24289WAT      O73108   1.135   0.470   7.498
24289WAT     H173109   1.225   0.441   7.531
24289WAT     H273110   1.124   0.568   7.516
24290WAT      O73111   6.467   2.486   6.508
24290WAT     H173112   6.466   2.566   6.448
24290WAT     H273113   6.465   2.403   6.452
24291WAT      O73114   3.728   1.104   8.454
24291WAT     H173115   3.697   1.029   8.396
24291WAT     H273116   3.692   1.190   8.419
24292WAT      O73117   2.242   8.285   8.278
24292WAT     H173118   2.333   8.296   8.316
24292WAT     H273119   2.226   8.355   8.207
24293WAT      O73120   6.489   1.029   1.283
24293WAT     H173121   6.560   0.968   1.321
24293WAT     H273122   6.425   0.974   1.229
24294WAT      O73123   6.916   0.774   0.467
24294WAT     H173124   6.823   0.772   0.430
24294WAT     H273125   6.921   0.840   0.542
24295WAT      O73126   3.948   6.673   7.313
24295WAT     H173127   3.862   6.640   7.352
24295WAT     H273128   4.006   6.595   7.288
24296WAT      O73129   5.046   3.436   2.896
24296WAT     H173130   5.118   3.383   2.940
24296WAT     H273131   4.958   3.412   2.936
24297WAT      O73132   5.521   3.684   8.660
24297WAT     H173133   5.469   3.770   8.662
24297WAT     H273134   5.604   3.693   8.714
24298WAT      O73135   6.095   1.185   8.608
24298WAT     H173136   6.091   1.276   8.650
24298WAT     H273137   6.002   1.149   8.599
24299WAT      O73138   8.266   7.497   0.164
24299WAT     H173139   8.338   7.482   0.231
24299WAT     H273140   8.292   7.570   0.101
24300WAT      O73141   8.740   1.564   1.810
24300WAT     H173142   8.824   1.558   1.865
24300WAT     H273143   8.661   1.574   1.870
24301WAT      O73144   7.047   5.879   2.830
24301WAT     H173145   7.004   5.819   2.898
24301WAT     H273146   6.977   5.932   2.783
24302WAT      O73147   6.046   6.527   2.256
24302WAT     H173148   6.121   6.461   2.261
24302WAT     H273149   6.028   6.550   2.160
24303WAT      O73150   4.371   7.258   3.343
24303WAT     H173151   4.289   7.260   3.400
24303WAT     H273152   4.451   7.239   3.400
24304WAT      O73153   6.923   2.296   7.582
24304WAT     H173154   6.909   2.200   7.557
24304WAT     H273155   6.968   2.300   7.671
24305WAT      O73156   4.492   7.073   3.996
24305WAT     H173157   4.512   7.027   3.910
24305WAT     H273158   4.563   7.051   4.063
24306WAT      O73159   8.638   5.702   0.578
24306WAT     H173160   8.586   5.788   0.573
24306WAT     H273161   8.705   5.700   0.504
24307WAT      O73162   7.374   8.967   5.958
24307WAT     H173163   7.296   8.995   6.014
24307WAT     H273164   7.347   8.894   5.896
24308WAT      O73165   8.930   9.836   4.930
24308WAT     H173166   8.986   9.773   4.983
24308WAT     H273167   8.851   9.865   4.985
24309WAT      O73168   4.697   6.712   0.371
24309WAT     H173169   4.796   6.723   0.382
24309WAT     H273170   4.677   6.668   0.284
24310WAT      O73171   6.123   2.399   9.481
24310WAT     H173172   6.160   2.309   9.458
24310WAT     H273173   6.024   2.392   9.494
24311WAT      O73174   8.762   1.638   8.506
24311WAT     H173175   8.800   1.555   8.548
24311WAT     H273176   8.669   1.653   8.540
24312WAT      O73177   5.580   9.550   8.955
24312WAT     H173178   5.497   9.572   8.904
24312WAT     H273179   5.561   9.555   9.053
24313WAT      O73180   6.048   3.319   2.769
24313WAT     H173181   5.975   3.339   2.834
24313WAT     H273182   6.040   3.379   2.690
24314WAT      O73183   9.678   2.277   2.768
24314WAT     H173184   9.709   2.198   2.715
24314WAT     H273185   9.617   2.247   2.841
24315WAT      O73186   5.452   2.303   6.432
24315WAT     H173187   5.404   2.315   6.345
24315WAT     H273188   5.464   2.393   6.475
24316WAT      O73189   2.584   6.681   3.801
24316WAT     H173190   2.591   6.629   3.887
24316WAT     H273191   2.488   6.684   3.772
24317WAT      O73192   4.273   0.800   8.610
24317WAT     H173193   4.254   0.705   8.587
24317WAT     H273194   4.187   0.851   8.617
24318WAT      O73195   9.063   8.409   6.226
24318WAT     H173196   9.120   8.423   6.307
24318WAT     H273197   8.984   8.354   6.251
24319WAT      O73198   7.458   3.201   8.677
24319WAT     H173199   7.503   3.154   8.753
24319WAT     H273200   7.371   3.239   8.708
24320WAT      O73201   2.482   8.725   0.223
24320WAT     H173202   2.398   8.713   0.275
24320WAT     H273203   2.543   8.648   0.241
24321WAT      O73204   6.699   2.781   2.791
24321WAT     H173205   6.663   2.852   2.852
24321WAT     H273206   6.630   2.759   2.722
24322WAT      O73207   0.009   7.292   8.808
24322WAT     H173208  -0.076   7.240   8.805
24322WAT     H273209   0.072   7.259   8.738
24323WAT      O73210   3.751   4.601   5.546
24323WAT     H173211   3.815   4.665   5.588
24323WAT     H273212   3.774   4.508   5.575
24324WAT      O73213   8.555   5.653   7.831
24324WAT     H173214   8.551   5.752   7.817
24324WAT     H273215   8.489   5.627   7.902
24325WAT      O73216   6.294   8.100   7.496
24325WAT     H173217   6.251   8.037   7.561
24325WAT     H273218   6.236   8.181   7.486
24326WAT      O73219   2.160   0.327   8.625
24326WAT     H173220   2.116   0.276   8.550
24326WAT     H273221   2.099   0.399   8.656
24327WAT      O73222   5.621   9.516   3.448
24327WAT     H173223   5.661   9.570   3.521
24327WAT     H273224   5.607   9.574   3.367
24328WAT      O73225   3.758   1.351   4.064
24328WAT     H173226   3.800   1.442   4.064
24328WAT     H273227   3.802   1.294   3.994
24329WAT      O73228   8.863   8.915   4.484
24329WAT     H173229   8.953   8.937   4.523
24329WAT     H273230   8.812   8.858   4.548
24330WAT      O73231   7.900   3.804   7.857
24330WAT     H173232   7.810   3.797   7.813
24330WAT     H273233   7.890   3.781   7.954
24331WAT      O73234   0.812   0.113   4.817
24331WAT     H173235   0.802   0.199   4.767
24331WAT     H273236   0.887   0.060   4.777
24332WAT      O73237   1.473   2.170   0.743
24332WAT     H173238   1.401   2.238   0.754
24332WAT     H273239   1.498   2.163   0.646
24333WAT      O73240   9.422   9.198   6.164
24333WAT     H173241   9.347   9.134   6.146
24333WAT     H273242   9.509   9.150   6.154
24334WAT      O73243   7.425   4.523   4.416
24334WAT     H173244   7.360   4.516   4.492
24334WAT     H273245   7.507   4.470   4.437
24335WAT      O73246   7.289   2.960   2.909
24335WAT     H173247   7.253   2.882   2.960
24335WAT     H273248   7.216   3.028   2.896
24336WAT      O73249   1.834   7.737   2.738
24336WAT     H173250   1.825   7.641   2.711
24336WAT     H273251   1.825   7.746   2.837
24337WAT      O73252   0.304   8.618   1.114
24337WAT     H173253   0.317   8.657   1.205
24337WAT     H273254   0.214   8.574   1.109
24338WAT      O73255   0.684   2.806   2.500
24338WAT     H173256   0.680   2.765   2.591
24338WAT     H273257   0.761   2.870   2.496
24339WAT      O73258   4.633   7.697   1.392
24339WAT     H173259   4.606   7.719   1.298
24339WAT     H273260   4.571   7.628   1.429
24340WAT      O73261   5.045   7.464   8.768
24340WAT     H173262   5.132   7.418   8.753
24340WAT     H273263   4.981   7.440   8.695
24341WAT      O73264   8.427   1.323   7.724
24341WAT     H173265   8.364   1.393   7.689
24341WAT     H273266   8.436   1.250   7.656
24342WAT      O73267   6.345   8.415   6.219
24342WAT     H173268   6.266   8.477   6.225
24342WAT     H273269   6.313   8.322   6.202
24343WAT      O73270   1.951   7.381   6.263
24343WAT     H173271   1.965   7.404   6.359
24343WAT     H273272   2.040   7.371   6.218
24344WAT      O73273   4.439   2.602   6.830
24344WAT     H173274   4.483   2.518   6.796
24344WAT     H273275   4.349   2.579   6.868
24345WAT      O73276   0.079   8.997   4.753
24345WAT     H173277   0.068   9.025   4.658
24345WAT     H273278  -0.011   8.992   4.796
24346WAT      O73279   6.832   1.207   3.213
24346WAT     H173280   6.921   1.194   3.255
24346WAT     H273281   6.765   1.149   3.259
24347WAT      O73282   6.114   5.263   1.796
24347WAT     H173283   6.117   5.269   1.896
24347WAT     H273284   6.111   5.355   1.757
24348WAT      O73285   6.903   8.677   3.679
24348WAT     H173286   7.003   8.671   3.684
24348WAT     H273287   6.873   8.766   3.714
24349WAT      O73288   5.564   7.608   2.796
24349WAT     H173289   5.659   7.578   2.782
24349WAT     H273290   5.510   7.531   2.829
24350WAT      O73291   6.352   3.376   3.909
24350WAT     H173292   6.295   3.456   3.928
24350WAT     H273293   6.446   3.395   3.938
24351WAT      O73294   6.219   1.659   2.463
24351WAT     H173295   6.180   1.603   2.390
24351WAT     H273296   6.152   1.726   2.494
24352WAT      O73297   0.137   0.365   8.781
24352WAT     H173298   0.057   0.366   8.721
24352WAT     H273299   0.197   0.442   8.759
24353WAT      O73300   1.904   2.985   8.847
24353WAT     H173301   1.808   2.986   8.876
24353WAT     H273302   1.931   2.892   8.822
24354WAT      O73303   0.814   6.549   0.206
24354WAT     H173304   0.914   6.553   0.203
24354WAT     H273305   0.780   6.511   0.120
24355WAT      O73306   3.174   5.787   5.202
24355WAT     H173307   3.222   5.863   5.158
24355WAT     H273308   3.134   5.728   5.132
24356WAT      O73309   1.938   7.324   3.530
24356WAT     H173310   1.974   7.279   3.612
24356WAT     H273311   1.841   7.301   3.519
24357WAT      O73312   9.586   4.315   7.070
24357WAT     H173313   9.556   4.322   6.974
24357WAT     H273314   9.580   4.220   7.099
24358WAT      O73315   6.158   1.956   9.011
24358WAT     H173316   6.208   1.908   9.082
24358WAT     H273317   6.172   2.055   9.020
24359WAT      O73318   9.296   9.475   8.329
24359WAT     H173319   9.266   9.449   8.237
24359WAT     H273320   9.218   9.508   8.381
24360WAT      O73321   6.625   5.204   6.663
24360WAT     H173322   6.679   5.254   6.732
24360WAT     H273323   6.566   5.138   6.709
24361WAT      O73324   5.050   6.081   1.555
24361WAT     H173325   4.999   6.088   1.470
24361WAT     H273326   5.029   5.994   1.600
24362WAT      O73327   9.782   0.785   6.015
24362WAT     H173328   9.724   0.762   6.093
24362WAT     H273329   9.763   0.722   5.940
24363WAT      O73330   2.260   8.898   7.206
24363WAT     H173331   2.308   8.984   7.186
24363WAT     H273332   2.318   8.821   7.181
24364WAT      O73333   3.173   5.363   6.404
24364WAT     H173334   3.158   5.430   6.331
24364WAT     H273335   3.149   5.404   6.492
24365WAT      O73336   1.723   1.804   1.834
24365WAT     H173337   1.786   1.821   1.759
24365WAT     H273338   1.716   1.886   1.891
24366WAT      O73339   6.182   6.440   0.560
24366WAT     H173340   6.276   6.473   0.555
24366WAT     H273341   6.149   6.447   0.655
24367WAT      O73342   3.554   6.831   0.734
24367WAT     H173343   3.545   6.873   0.644
24367WAT     H273344   3.538   6.733   0.726
24368WAT      O73345   6.523   8.993   1.228
24368WAT     H173346   6.542   8.895   1.231
24368WAT     H273347   6.447   9.011   1.165
24369WAT      O73348   1.057   8.891   7.685
24369WAT     H173349   1.025   8.904   7.779
24369WAT     H273350   0.994   8.937   7.622
24370WAT      O73351   5.250   8.218   0.869
24370WAT     H173352   5.286   8.158   0.798
24370WAT     H273353   5.268   8.313   0.844
24371WAT      O73354   3.746   2.426   1.777
24371WAT     H173355   3.755   2.420   1.678
24371WAT     H273356   3.833   2.456   1.817
24372WAT      O73357   4.830   4.381   7.121
24372WAT     H173358   4.886   4.462   7.136
24372WAT     H273359   4.885   4.311   7.074
24373WAT      O73360   3.998   7.500   1.187
24373WAT     H173361   3.948   7.570   1.135
24373WAT     H273362   3.993   7.521   1.285
24374WAT      O73363   0.925   1.126   6.018
24374WAT     H173364   0.852   1.092   6.077
24374WAT     H273365   0.985   1.050   5.992
24375WAT      O73366   2.830   9.337   1.989
24375WAT     H173367   2.908   9.317   1.930
24375WAT     H273368   2.826   9.270   2.063
24376WAT      O73369   9.674   3.162   5.454
24376WAT     H173370   9.649   3.233   5.520
24376WAT     H273371   9.610   3.086   5.462
24377WAT      O73372   2.993   4.912   4.265
24377WAT     H173373   3.061   4.931   4.336
24377WAT     H273374   2.901   4.919   4.303
24378WAT      O73375   3.101   3.828   1.764
24378WAT     H173376   3.168   3.878   1.820
24378WAT     H273377   3.077   3.884   1.684
24379WAT      O73378   3.969   8.777   2.813
24379WAT     H173379   3.952   8.831   2.730
24379WAT     H273380   3.916   8.692   2.809
24380WAT      O73381   9.394   1.721   2.241
24380WAT     H173382   9.427   1.809   2.275
24380WAT     H273383   9.416   1.650   2.307
24381WAT      O73384   0.502   1.121   1.146
24381WAT     H173385   0.563   1.148   1.221
24381WAT     H273386   0.517   1.182   1.068
24382WAT      O73387   7.466   0.304   9.223
24382WAT     H173388   7.465   0.226   9.161
24382WAT     H273389   7.469   0.389   9.170
24383WAT      O73390   5.168   7.679   8.486
24383WAT     H173391   5.138   7.711   8.576
24383WAT     H273392   5.218   7.752   8.439
24384WAT      O73393   7.178   7.343   8.096
24384WAT     H173394   7.104   7.314   8.035
24384WAT     H273395   7.213   7.432   8.067
24385WAT      O73396   0.664   1.998   7.982
24385WAT     H173397   0.618   2.086   7.983
24385WAT     H273398   0.762   2.011   7.968
24386WAT      O73399   7.450   1.148   1.739
24386WAT     H173400   7.491   1.057   1.726
24386WAT     H273401   7.488   1.189   1.821
24387WAT      O73402   4.189   5.097   6.420
24387WAT     H173403   4.265   5.045   6.457
24387WAT     H273404   4.197   5.193   6.448
24388WAT      O73405   3.588   6.466   4.531
24388WAT     H173406   3.652   6.408   4.580
24388WAT     H273407   3.516   6.410   4.491
24389WAT      O73408   6.789   7.466   0.436
24389WAT     H173409   6.822   7.527   0.364
24389WAT     H273410   6.708   7.506   0.479
24390WAT      O73411   8.208   0.408   7.267
24390WAT     H173412   8.124   0.431   7.218
24390WAT     H273413   8.258   0.338   7.216
24391WAT      O73414   6.550   8.140   4.258
24391WAT     H173415   6.524   8.194   4.338
24391WAT     H273416   6.629   8.082   4.281
24392WAT      O73417   6.118   2.813   7.254
24392WAT     H173418   6.173   2.871   7.193
24392WAT     H273419   6.076   2.740   7.200
24393WAT      O73420   0.697   0.971   6.176
24393WAT     H173421   0.719   0.875   6.154
24393WAT     H273422   0.716   0.988   6.272
24394WAT      O73423   9.254   2.527   2.172
24394WAT     H173424   9.159   2.546   2.196
24394WAT     H273425   9.308   2.611   2.178
24395WAT      O73426   6.975   8.313   5.096
24395WAT     H173427   6.980   8.258   5.179
24395WAT     H273428   7.024   8.399   5.111
24396WAT      O73429   4.281   1.221   0.667
24396WAT     H173430   4.251   1.280   0.591
24396WAT     H273431   4.371   1.184   0.646
24397WAT      O73432   7.467   1.126   5.740
24397WAT     H173433   7.537   1.184   5.697
24397WAT     H273434   7.473   1.135   5.839
24398WAT      O73435   8.600   2.358   9.315
24398WAT     H173436   8.531   2.301   9.271
24398WAT     H273437   8.571   2.380   9.409
24399WAT      O73438   1.994   9.401   2.646
24399WAT     H173439   2.001   9.495   2.681
24399WAT     H273440   2.018   9.337   2.719
24400WAT      O73441   7.612   7.705   8.881
24400WAT     H173442   7.589   7.743   8.791
24400WAT     H273443   7.591   7.773   8.951
24401WAT      O73444   8.191   2.521   6.533
24401WAT     H173445   8.266   2.521   6.599
24401WAT     H273446   8.150   2.612   6.528
24402WAT      O73447   0.564   6.460   3.927
24402WAT     H173448   0.582   6.542   3.981
24402WAT     H273449   0.466   6.448   3.914
24403WAT      O73450   5.339   0.772   8.879
24403WAT     H173451   5.305   0.679   8.887
24403WAT     H273452   5.398   0.779   8.798
24404WAT      O73453   1.140   7.449   6.038
24404WAT     H173454   1.207   7.503   6.088
24404WAT     H273455   1.052   7.452   6.085
24405WAT      O73456   1.223   3.638   2.360
24405WAT     H173457   1.163   3.611   2.435
24405WAT     H273458   1.239   3.737   2.364
24406WAT      O73459   3.569   3.462   2.869
24406WAT     H173460   3.611   3.518   2.798
24406WAT     H273461   3.641   3.415   2.921
24407WAT      O73462   5.479   4.158   6.790
24407WAT     H173463   5.415   4.235   6.785
24407WAT     H273464   5.533   4.155   6.706
24408WAT      O73465   2.579   5.016   2.353
24408WAT     H173466   2.585   5.103   2.304
24408WAT     H273467   2.650   5.010   2.422
24409WAT      O73468   1.571   3.640   6.410
24409WAT     H173469   1.576   3.713   6.479
24409WAT     H273470   1.540   3.679   6.323
24410WAT      O73471   4.008   8.002   6.190
24410WAT     H173472   4.025   8.073   6.258
24410WAT     H273473   3.938   8.032   6.126
24411WAT      O73474   5.667   8.857   2.084
24411WAT     H173475   5.686   8.773   2.032
24411WAT     H273476   5.594   8.908   2.038
24412WAT      O73477   0.339   6.465   6.153
24412WAT     H173478   0.279   6.399   6.107
24412WAT     H273479   0.301   6.557   6.141
24413WAT      O73480   0.934   3.801   0.418
24413WAT     H173481   0.899   3.862   0.347
24413WAT     H273482   0.929   3.706   0.386
24414WAT      O73483   5.687   4.920   0.780
24414WAT     H173484   5.653   4.831   0.811
24414WAT     H273485   5.689   4.984   0.856
24415WAT      O73486   9.454   2.648   9.207
24415WAT     H173487   9.427   2.730   9.156
24415WAT     H273488   9.551   2.630   9.193
24416WAT      O73489   5.295   1.282   6.444
24416WAT     H173490   5.270   1.241   6.356
24416WAT     H273491   5.218   1.336   6.479
24417WAT      O73492   5.196   7.251   4.342
24417WAT     H173493   5.209   7.304   4.425
24417WAT     H273494   5.147   7.166   4.364
24418WAT      O73495   7.477   0.857   9.147
24418WAT     H173496   7.411   0.921   9.107
24418WAT     H273497   7.568   0.898   9.148
24419WAT      O73498   7.380   5.767   2.416
24419WAT     H173499   7.314   5.837   2.441
24419WAT     H273500   7.381   5.756   2.316
24420WAT      O73501   3.362   3.539   8.754
24420WAT     H173502   3.310   3.614   8.713
24420WAT     H273503   3.436   3.577   8.810
24421WAT      O73504   8.484   3.647   4.395
24421WAT     H173505   8.431   3.574   4.352
24421WAT     H273506   8.482   3.728   4.337
24422WAT      O73507   2.924   9.631   9.531
24422WAT     H173508   2.932   9.613   9.433
24422WAT     H273509   3.013   9.657   9.568
24423WAT      O73510   3.231   8.275   4.921
24423WAT     H173511   3.175   8.195   4.942
24423WAT     H273512   3.314   8.273   4.977
24424WAT      O73513   3.734   5.617   5.139
24424WAT     H173514   3.802   5.544   5.142
24424WAT     H273515   3.663   5.593   5.072
24425WAT      O73516   0.722   6.458   1.144
24425WAT     H173517   0.628   6.425   1.136
24425WAT     H273518   0.770   6.444   1.058
24426WAT      O73519   0.076   2.879   8.572
24426WAT     H173520   0.050   2.923   8.658
24426WAT     H273521   0.095   2.948   8.503
24427WAT      O73522   5.437   0.106   6.187
24427WAT     H173523   5.436   0.157   6.273
24427WAT     H273524   5.502   0.030   6.194
24428WAT      O73525   7.258   9.363   7.934
24428WAT     H173526   7.212   9.319   7.857
24428WAT     H273527   7.265   9.461   7.918
24429WAT      O73528   2.407   3.345   4.459
24429WAT     H173529   2.407   3.276   4.532
24429WAT     H273530   2.353   3.424   4.489
24430WAT      O73531   1.004   0.243   8.114
24430WAT     H173532   0.949   0.201   8.041
24430WAT     H273533   0.982   0.340   8.122
24431WAT      O73534   0.282   6.426   7.077
24431WAT     H173535   0.252   6.390   6.989
24431WAT     H273536   0.312   6.350   7.135
24432WAT      O73537   2.813   9.324   9.410
24432WAT     H173538   2.887   9.391   9.401
24432WAT     H273539   2.783   9.319   9.505
24433WAT      O73540   8.419   5.181   8.415
24433WAT     H173541   8.463   5.157   8.329
24433WAT     H273542   8.369   5.102   8.451
24434WAT      O73543   4.716   5.733   9.542
24434WAT     H173544   4.656   5.728   9.622
24434WAT     H273545   4.794   5.671   9.555
24435WAT      O73546   3.299   5.807   1.440
24435WAT     H173547   3.363   5.817   1.364
24435WAT     H273548   3.347   5.821   1.526
24436WAT      O73549   2.064   5.968   8.438
24436WAT     H173550   2.048   5.931   8.529
24436WAT     H273551   2.138   5.918   8.394
24437WAT      O73552   0.415   4.045   6.812
24437WAT     H173553   0.341   4.050   6.879
24437WAT     H273554   0.384   4.081   6.724
24438WAT      O73555   6.584   1.926   0.998
24438WAT     H173556   6.584   1.829   1.023
24438WAT     H273557   6.671   1.967   1.024
24439WAT      O73558   7.643   9.159   4.094
24439WAT     H173559   7.660   9.196   4.003
24439WAT     H273560   7.680   9.221   4.163
24440WAT      O73561   8.366   6.994   8.456
24440WAT     H173562   8.447   6.977   8.513
24440WAT     H273563   8.344   7.092   8.458
24441WAT      O73564   2.391   7.870   8.461
24441WAT     H173565   2.350   7.828   8.542
24441WAT     H273566   2.319   7.914   8.406
24442WAT      O73567   5.090   2.991   9.251
24442WAT     H173568   5.120   2.898   9.230
24442WAT     H273569   5.090   3.046   9.167
24443WAT      O73570   5.719   7.005   2.849
24443WAT     H173571   5.811   6.974   2.828
24443WAT     H273572   5.723   7.098   2.886
24444WAT      O73573   4.225   3.547   6.199
24444WAT     H173574   4.252   3.637   6.162
24444WAT     H273575   4.307   3.498   6.229
24445WAT      O73576   3.154   8.933   8.321
24445WAT     H173577   3.186   9.021   8.355
24445WAT     H273578   3.122   8.876   8.397
24446WAT      O73579   3.965   7.051   3.992
24446WAT     H173580   3.936   7.030   4.085
24446WAT     H273581   4.055   7.096   3.995
24447WAT      O73582   7.917   6.964   2.348
24447WAT     H173583   7.858   7.035   2.386
24447WAT     H273584   7.860   6.890   2.311
24448WAT      O73585   8.886   3.560   3.990
24448WAT     H173586   8.968   3.583   4.044
24448WAT     H273587   8.877   3.461   3.985
24449WAT      O73588   5.813   3.736   0.473
24449WAT     H173589   5.855   3.658   0.426
24449WAT     H273590   5.806   3.813   0.409
24450WAT      O73591   6.295   3.197   4.393
24450WAT     H173592   6.265   3.221   4.300
24450WAT     H273593   6.388   3.229   4.406
24451WAT      O73594   4.757   9.419   9.877
24451WAT     H173595   4.701   9.460   9.804
24451WAT     H273596   4.845   9.392   9.839
24452WAT      O73597   1.831   1.429   4.114
24452WAT     H173598   1.804   1.487   4.191
24452WAT     H273599   1.819   1.333   4.138
24453WAT      O73600   8.108   2.424   3.698
24453WAT     H173601   8.014   2.391   3.701
24453WAT     H273602   8.122   2.493   3.769
24454WAT      O73603   0.879   9.501   4.470
24454WAT     H173604   0.822   9.571   4.513
24454WAT     H273605   0.926   9.448   4.540
24455WAT      O73606   3.411   3.183   5.365
24455WAT     H173607   3.330   3.133   5.396
24455WAT     H273608   3.435   3.253   5.432
24456WAT      O73609   6.242   4.221   9.414
24456WAT     H173610   6.188   4.301   9.388
24456WAT     H273611   6.186   4.139   9.405
24457WAT      O73612   8.628   3.952   2.960
24457WAT     H173613   8.530   3.952   2.942
24457WAT     H273614   8.661   4.046   2.966
24458WAT      O73615   9.730   0.503   7.219
24458WAT     H173616   9.721   0.594   7.260
24458WAT     H273617   9.642   0.456   7.224
24459WAT      O73618   3.215   6.916   0.295
24459WAT     H173619   3.224   6.908   0.195
24459WAT     H273620   3.213   7.013   0.320
24460WAT      O73621   4.503   5.996   1.883
24460WAT     H173622   4.568   6.072   1.879
24460WAT     H273623   4.545   5.914   1.844
24461WAT      O73624   5.907   1.976   1.579
24461WAT     H173625   6.002   2.005   1.570
24461WAT     H273626   5.895   1.928   1.666
24462WAT      O73627   4.486   5.446   9.343
24462WAT     H173628   4.448   5.438   9.251
24462WAT     H273629   4.447   5.376   9.401
24463WAT      O73630   1.916   6.730   5.634
24463WAT     H173631   1.845   6.783   5.680
24463WAT     H273632   1.948   6.779   5.553
24464WAT      O73633   4.919   1.607   7.282
24464WAT     H173634   4.879   1.516   7.296
24464WAT     H273635   4.964   1.610   7.193
24465WAT      O73636   8.677   1.504   1.410
24465WAT     H173637   8.729   1.518   1.326
24465WAT     H273638   8.599   1.567   1.411
24466WAT      O73639   9.107   1.956   6.691
24466WAT     H173640   9.022   1.924   6.736
24466WAT     H273641   9.134   2.043   6.731
24467WAT      O73642   7.762   4.208   0.959
24467WAT     H173643   7.713   4.294   0.942
24467WAT     H273644   7.802   4.209   1.050
24468WAT      O73645   7.718   3.503   0.996
24468WAT     H173646   7.798   3.513   1.056
24468WAT     H273647   7.647   3.452   1.044
24469WAT      O73648   4.813   1.814   4.363
24469WAT     H173649   4.847   1.782   4.451
24469WAT     H273650   4.714   1.827   4.368
24470WAT      O73651   8.224   1.061   1.619
24470WAT     H173652   8.207   1.069   1.520
24470WAT     H273653   8.305   1.114   1.643
24471WAT      O73654   2.550   8.961   4.598
24471WAT     H173655   2.641   8.961   4.558
24471WAT     H273656   2.542   8.887   4.665
24472WAT      O73657   6.112   9.821   1.851
24472WAT     H173658   6.120   9.777   1.762
24472WAT     H273659   6.147   9.915   1.846
24473WAT      O73660   5.720   7.751   8.301
24473WAT     H173661   5.722   7.751   8.201
24473WAT     H273662   5.813   7.747   8.336
24474WAT      O73663   6.989   3.530   0.908
24474WAT     H173664   7.007   3.622   0.942
24474WAT     H273665   6.909   3.531   0.848
24475WAT      O73666   8.207   0.791   4.228
24475WAT     H173667   8.226   0.854   4.153
24475WAT     H273668   8.252   0.823   4.311
24476WAT      O73669   6.036   6.969   4.675
24476WAT     H173670   6.001   7.039   4.613
24476WAT     H273671   6.054   7.010   4.765
24477WAT      O73672   9.126   9.253   7.882
24477WAT     H173673   9.104   9.265   7.785
24477WAT     H273674   9.150   9.158   7.900
24478WAT      O73675   3.857   1.973   3.741
24478WAT     H173676   3.912   2.053   3.763
24478WAT     H273677   3.818   1.935   3.824
24479WAT      O73678   7.063   8.462   0.298
24479WAT     H173679   7.121   8.414   0.231
24479WAT     H273680   7.119   8.528   0.348
24480WAT      O73681   4.840   6.705   7.510
24480WAT     H173682   4.782   6.624   7.523
24480WAT     H273683   4.806   6.759   7.433
24481WAT      O73684   6.622   7.473   5.401
24481WAT     H173685   6.561   7.435   5.330
24481WAT     H273686   6.717   7.453   5.377
24482WAT      O73687   4.714   3.581   7.977
24482WAT     H173688   4.740   3.522   7.901
24482WAT     H273689   4.791   3.588   8.041
24483WAT      O73690   6.351   3.680   7.385
24483WAT     H173691   6.254   3.689   7.408
24483WAT     H273692   6.405   3.734   7.450
24484WAT      O73693   4.836   7.160   5.012
24484WAT     H173694   4.822   7.066   4.983
24484WAT     H273695   4.757   7.215   4.984
24485WAT      O73696   9.205   7.843   5.185
24485WAT     H173697   9.231   7.776   5.254
24485WAT     H273698   9.122   7.891   5.215
24486WAT      O73699   6.650   8.601   9.804
24486WAT     H173700   6.623   8.604   9.707
24486WAT     H273701   6.670   8.693   9.836
24487WAT      O73702   6.564   1.982   3.540
24487WAT     H173703   6.578   1.885   3.519
24487WAT     H273704   6.505   2.022   3.469
24488WAT      O73705   8.130   3.025   8.099
24488WAT     H173706   8.202   3.011   8.030
24488WAT     H273707   8.043   3.041   8.053
24489WAT      O73708   0.372   2.292   9.834
24489WAT     H173709   0.288   2.296   9.781
24489WAT     H273710   0.430   2.218   9.800
24490WAT      O73711   3.193   8.425   1.378
24490WAT     H173712   3.140   8.449   1.459
24490WAT     H273713   3.227   8.332   1.387
24491WAT      O73714   7.040   2.217   1.761
24491WAT     H173715   7.056   2.130   1.715
24491WAT     H273716   7.115   2.236   1.824
24492WAT      O73717   9.838   5.024   5.715
24492WAT     H173718   9.889   4.963   5.655
24492WAT     H273719   9.815   5.108   5.667
24493WAT      O73720   2.020   0.908   4.779
24493WAT     H173721   2.095   0.940   4.721
24493WAT     H273722   1.953   0.982   4.790
24494WAT      O73723   9.570   6.274   0.844
24494WAT     H173724   9.561   6.175   0.860
24494WAT     H273725   9.484   6.319   0.865
24495WAT      O73726   6.315   6.584   7.841
24495WAT     H173727   6.301   6.594   7.742
24495WAT     H273728   6.231   6.550   7.884
24496WAT      O73729   4.038   4.806   5.359
24496WAT     H173730   4.094   4.889   5.369
24496WAT     H273731   4.004   4.778   5.449
24497WAT      O73732   9.658   4.192   1.266
24497WAT     H173733   9.580   4.135   1.243
24497WAT     H273734   9.741   4.137   1.267
24498WAT      O73735   6.471   7.040   8.868
24498WAT     H173736   6.433   6.949   8.848
24498WAT     H273737   6.498   7.085   8.783
24499WAT      O73738   4.760   0.085   0.372
24499WAT     H173739   4.743   0.157   0.439
24499WAT     H273740   4.758  -0.004   0.419
24500WAT      O73741   4.367   5.912   2.753
24500WAT     H173742   4.318   5.869   2.829
24500WAT     H273743   4.316   5.896   2.668
24501WAT      O73744   4.737   3.758   4.042
24501WAT     H173745   4.671   3.758   3.966
24501WAT     H273746   4.702   3.815   4.116
24502WAT      O73747   4.952   3.916   6.970
24502WAT     H173748   5.011   3.885   6.896
24502WAT     H273749   4.860   3.880   6.957
24503WAT      O73750   8.869   6.160   3.400
24503WAT     H173751   8.949   6.101   3.410
24503WAT     H273752   8.806   6.145   3.476
24504WAT      O73753   8.743   4.542   1.561
24504WAT     H173754   8.679   4.477   1.601
24504WAT     H273755   8.826   4.546   1.617
24505WAT      O73756   8.422   1.561   3.464
24505WAT     H173757   8.383   1.549   3.373
24505WAT     H273758   8.349   1.557   3.532
24506WAT      O73759   4.555   6.457   2.021
24506WAT     H173760   4.593   6.511   1.946
24506WAT     H273761   4.487   6.512   2.070
24507WAT      O73762   4.155   1.332   4.546
24507WAT     H173763   4.115   1.407   4.493
24507WAT     H273764   4.129   1.343   4.642
24508WAT      O73765   5.068   0.820   0.766
24508WAT     H173766   5.124   0.838   0.847
24508WAT     H273767   5.109   0.863   0.686
24509WAT      O73768   3.517   1.728   7.335
24509WAT     H173769   3.453   1.794   7.295
24509WAT     H273770   3.556   1.671   7.262
24510WAT      O73771   0.405   7.181   7.469
24510WAT     H173772   0.403   7.260   7.406
24510WAT     H273773   0.356   7.204   7.553
24511WAT      O73774   4.334   2.011   9.031
24511WAT     H173775   4.338   2.106   9.002
24511WAT     H273776   4.250   1.996   9.084
24512WAT      O73777   4.452   1.861   3.856
24512WAT     H173778   4.509   1.896   3.782
24512WAT     H273779   4.359   1.899   3.847
24513WAT      O73780   2.626   4.752   4.356
24513WAT     H173781   2.599   4.767   4.451
24513WAT     H273782   2.643   4.841   4.312
24514WAT      O73783   6.224   7.820   6.177
24514WAT     H173784   6.204   7.735   6.129
24514WAT     H273785   6.269   7.884   6.114
24515WAT      O73786   9.001   9.422   6.815
24515WAT     H173787   8.948   9.349   6.858
24515WAT     H273788   9.025   9.395   6.722
24516WAT      O73789   2.284   3.766   4.396
24516WAT     H173790   2.383   3.760   4.380
24516WAT     H273791   2.236   3.771   4.309
24517WAT      O73792   8.402   0.334   7.499
24517WAT     H173793   8.399   0.239   7.469
24517WAT     H273794   8.323   0.384   7.464
24518WAT      O73795   5.583   8.650   0.612
24518WAT     H173796   5.557   8.601   0.695
24518WAT     H273797   5.680   8.676   0.617
24519WAT      O73798   0.605   6.964   9.138
24519WAT     H173799   0.528   7.028   9.150
24519WAT     H273800   0.684   6.998   9.190
24520WAT      O73801   7.150   8.003   0.796
24520WAT     H173802   7.205   7.988   0.713
24520WAT     H273803   7.145   7.918   0.849
24521WAT      O73804   5.874   8.180   5.818
24521WAT     H173805   5.788   8.231   5.823
24521WAT     H273806   5.879   8.117   5.895
24522WAT      O73807   5.826   1.358   6.137
24522WAT     H173808   5.780   1.275   6.169
24522WAT     H273809   5.870   1.404   6.214
24523WAT      O73810   7.998   5.350   8.425
24523WAT     H173811   7.943   5.397   8.494
24523WAT     H273812   8.026   5.415   8.355
24524WAT      O73813   7.075   6.354   5.927
24524WAT     H173814   6.982   6.324   5.948
24524WAT     H273815   7.140   6.297   5.977
24525WAT      O73816   1.984   2.455   8.258
24525WAT     H173817   2.061   2.512   8.286
24525WAT     H273818   1.900   2.509   8.262
24526WAT      O73819   6.059   9.323   0.399
24526WAT     H173820   6.048   9.398   0.334
24526WAT     H273821   6.053   9.359   0.492
24527WAT      O73822   1.324   2.477   1.578
24527WAT     H173823   1.297   2.393   1.624
24527WAT     H273824   1.297   2.555   1.634
24528WAT      O73825   0.938   4.634   6.938
24528WAT     H173826   0.960   4.576   6.860
24528WAT     H273827   0.942   4.730   6.910
24529WAT      O73828   8.699   2.428   9.054
24529WAT     H173829   8.644   2.354   9.015
24529WAT     H273830   8.681   2.434   9.152
24530WAT      O73831   1.345   6.944   6.512
24530WAT     H173832   1.314   7.039   6.519
24530WAT     H273833   1.443   6.939   6.527
24531WAT      O73834   0.865   1.534   9.705
24531WAT     H173835   0.928   1.519   9.781
24531WAT     H273836   0.899   1.487   9.624
24532WAT      O73837   6.940   2.953   9.386
24532WAT     H173838   7.007   2.979   9.456
24532WAT     H273839   6.957   3.007   9.303
24533WAT      O73840   1.942   2.999   8.270
24533WAT     H173841   1.965   2.986   8.174
24533WAT     H273842   1.934   3.096   8.290
24534WAT      O73843   2.700   1.161   5.799
24534WAT     H173844   2.696   1.109   5.713
24534WAT     H273845   2.795   1.183   5.819
24535WAT      O73846   7.527   1.390   7.066
24535WAT     H173847   7.587   1.352   7.136
24535WAT     H273848   7.432   1.386   7.096
24536WAT      O73849   1.931   6.195   7.741
24536WAT     H173850   1.861   6.148   7.687
24536WAT     H273851   2.012   6.136   7.748
24537WAT      O73852   9.100   6.243   0.717
24537WAT     H173853   9.010   6.199   0.716
24537WAT     H273854   9.102   6.313   0.789
24538WAT      O73855   5.299   3.973   6.336
24538WAT     H173856   5.237   3.994   6.411
24538WAT     H273857   5.277   4.032   6.258
24539WAT      O73858   3.344   6.707   0.411
24539WAT     H173859   3.378   6.635   0.350
24539WAT     H273860   3.281   6.766   0.360
24540WAT      O73861   6.618   9.697   4.242
24540WAT     H173862   6.560   9.759   4.189
24540WAT     H273863   6.561   9.624   4.281
24541WAT      O73864   0.567   3.040   1.944
24541WAT     H173865   0.515   3.124   1.964
24541WAT     H273866   0.504   2.963   1.934
24542WAT      O73867   0.051   0.608   1.901
24542WAT     H173868   0.150   0.594   1.892
24542WAT     H273869   0.030   0.704   1.886
24543WAT      O73870   0.741   5.848   3.796
24543WAT     H173871   0.644   5.871   3.794
24543WAT     H273872   0.757   5.779   3.867
24544WAT      O73873   6.875   3.772   8.011
24544WAT     H173874   6.952   3.773   8.076
24544WAT     H273875   6.873   3.683   7.964
24545WAT      O73876   3.899   3.993   5.013
24545WAT     H173877   3.947   3.905   5.002
24545WAT     H273878   3.936   4.041   5.092
24546WAT      O73879   4.241   2.848   6.297
24546WAT     H173880   4.333   2.882   6.282
24546WAT     H273881   4.224   2.771   6.235
24547WAT      O73882   0.681   6.329   0.364
24547WAT     H173883   0.670   6.417   0.319
24547WAT     H273884   0.591   6.294   0.390
24548WAT      O73885   7.119   7.264   5.339
24548WAT     H173886   7.130   7.172   5.300
24548WAT     H273887   7.207   7.312   5.336
24549WAT      O73888   5.322   0.835   3.157
24549WAT     H173889   5.388   0.780   3.208
24549WAT     H273890   5.296   0.786   3.073
24550WAT      O73891   0.916   4.983   5.720
24550WAT     H173892   0.831   5.017   5.679
24550WAT     H273893   0.978   4.952   5.647
24551WAT      O73894   7.211   2.307   7.742
24551WAT     H173895   7.154   2.361   7.803
24551WAT     H273896   7.232   2.361   7.660
24552WAT      O73897   6.185   1.093   8.373
24552WAT     H173898   6.158   1.140   8.457
24552WAT     H273899   6.269   1.134   8.338
24553WAT      O73900   9.488   4.156   3.639
24553WAT     H173901   9.454   4.228   3.699
24553WAT     H273902   9.588   4.158   3.637
24554WAT      O73903   4.757   2.479   6.656
24554WAT     H173904   4.767   2.533   6.572
24554WAT     H273905   4.826   2.507   6.722
24555WAT      O73906   0.524   9.749   7.819
24555WAT     H173907   0.487   9.780   7.907
24555WAT     H273908   0.486   9.659   7.798
24556WAT      O73909   2.560   0.774   9.415
24556WAT     H173910   2.506   0.702   9.371
24556WAT     H273911   2.556   0.763   9.515
24557WAT      O73912   7.069   0.729   5.533
24557WAT     H173913   7.143   0.695   5.592
24557WAT     H273914   7.104   0.740   5.440
24558WAT      O73915   0.820   5.999   0.531
24558WAT     H173916   0.747   5.949   0.577
24558WAT     H273917   0.866   5.938   0.466
24559WAT      O73918   8.987   3.780   9.710
24559WAT     H173919   9.061   3.810   9.650
24559WAT     H273920   8.945   3.859   9.753
24560WAT      O73921   5.877   0.300   7.876
24560WAT     H173922   5.949   0.269   7.938
24560WAT     H273923   5.917   0.336   7.792
24561WAT      O73924   8.770   3.856   3.352
24561WAT     H173925   8.742   3.942   3.394
24561WAT     H273926   8.702   3.785   3.373
24562WAT      O73927   1.433   0.876   0.884
24562WAT     H173928   1.451   0.911   0.792
24562WAT     H273929   1.516   0.834   0.920
24563WAT      O73930   9.258   6.276   2.024
24563WAT     H173931   9.283   6.360   2.072
24563WAT     H273932   9.160   6.261   2.030
24564WAT      O73933   7.364   8.338   1.300
24564WAT     H173934   7.439   8.374   1.356
24564WAT     H273935   7.358   8.389   1.214
24565WAT      O73936   9.734   9.096   8.913
24565WAT     H173937   9.767   9.166   8.976
24565WAT     H273938   9.800   9.085   8.838
24566WAT      O73939   2.499   0.863   0.350
24566WAT     H173940   2.557   0.931   0.307
24566WAT     H273941   2.465   0.898   0.438
24567WAT      O73942   2.051   6.212   1.790
24567WAT     H173943   2.145   6.201   1.757
24567WAT     H273944   2.050   6.278   1.866
24568WAT      O73945   4.186   2.678   1.485
24568WAT     H173946   4.246   2.618   1.431
24568WAT     H273947   4.236   2.712   1.564
24569WAT      O73948   5.282   8.756   4.610
24569WAT     H173949   5.252   8.691   4.681
24569WAT     H273950   5.209   8.821   4.591
24570WAT      O73951   7.727   4.160   6.354
24570WAT     H173952   7.686   4.184   6.442
24570WAT     H273953   7.758   4.244   6.308
24571WAT      O73954   3.711   9.610   4.334
24571WAT     H173955   3.667   9.697   4.312
24571WAT     H273956   3.645   9.535   4.324
24572WAT      O73957   6.434   0.471   9.475
24572WAT     H173958   6.439   0.468   9.375
24572WAT     H273959   6.496   0.541   9.510
24573WAT      O73960   3.224   2.496   9.631
24573WAT     H173961   3.249   2.488   9.727
24573WAT     H273962   3.256   2.416   9.581
24574WAT      O73963   6.642   6.425   1.396
24574WAT     H173964   6.690   6.371   1.465
24574WAT     H273965   6.591   6.499   1.440
24575WAT      O73966   1.909   4.248   4.745
24575WAT     H173967   1.929   4.319   4.813
24575WAT     H273968   1.884   4.292   4.659
24576WAT      O73969   9.153   3.734   5.682
24576WAT     H173970   9.091   3.794   5.733
24576WAT     H273971   9.235   3.785   5.658
24577WAT      O73972   1.911   7.177   0.308
24577WAT     H173973   1.878   7.249   0.247
24577WAT     H273974   1.842   7.105   0.316
24578WAT      O73975   7.186   4.304   9.614
24578WAT     H173976   7.152   4.284   9.705
24578WAT     H273977   7.193   4.404   9.602
24579WAT      O73978   8.182   9.007   0.464
24579WAT     H173979   8.233   9.079   0.511
24579WAT     H273980   8.193   8.921   0.515
24580WAT      O73981   0.338   4.749   3.195
24580WAT     H173982   0.355   4.665   3.143
24580WAT     H273983   0.379   4.741   3.286
24581WAT      O73984   6.945   2.634   5.095
24581WAT     H173985   6.888   2.568   5.045
24581WAT     H273986   7.022   2.661   5.038
24582WAT      O73987   1.579   5.756   9.386
24582WAT     H173988   1.670   5.718   9.371
24582WAT     H273989   1.510   5.687   9.365
24583WAT      O73990   3.217   6.428   8.818
24583WAT     H173991   3.184   6.380   8.899
24583WAT     H273992   3.317   6.418   8.811
24584WAT      O73993   5.245   9.172   4.423
24584WAT     H173994   5.228   9.229   4.343
24584WAT     H273995   5.333   9.127   4.413
24585WAT      O73996   9.783   7.412   6.615
24585WAT     H173997   9.842   7.426   6.535
24585WAT     H273998   9.808   7.327   6.660
24586WAT      O73999   9.488   8.520   5.360
24586WAT     H174000   9.453   8.613   5.369
24586WAT     H274001   9.569   8.510   5.418
24587WAT      O74002   3.805   8.978   4.412
24587WAT     H174003   3.723   8.974   4.470
24587WAT     H274004   3.795   8.914   4.336
24588WAT      O74005   4.072   1.731   3.226
24588WAT     H174006   4.151   1.671   3.226
24588WAT     H274007   4.101   1.825   3.246
24589WAT      O74008   8.918   0.255   3.250
24589WAT     H174009   8.995   0.318   3.258
24589WAT     H274010   8.883   0.234   3.342
24590WAT      O74011   1.497   0.118   2.819
24590WAT     H174012   1.542   0.186   2.877
24590WAT     H274013   1.404   0.149   2.797
24591WAT      O74014   7.707   6.595   6.387
24591WAT     H174015   7.616   6.592   6.348
24591WAT     H274016   7.765   6.657   6.333
24592WAT      O74017   6.832   3.928   1.152
24592WAT     H174018   6.797   3.935   1.058
24592WAT     H274019   6.763   3.885   1.210
24593WAT      O74020   4.596   2.326   2.581
24593WAT     H174021   4.657   2.360   2.509
24593WAT     H274022   4.539   2.401   2.614
24594WAT      O74023   6.749   4.160   6.285
24594WAT     H174024   6.691   4.093   6.240
24594WAT     H274025   6.698   4.245   6.297
24595WAT      O74026   1.897   1.549   1.143
24595WAT     H174027   1.971   1.571   1.079
24595WAT     H274028   1.913   1.459   1.183
24596WAT      O74029   9.029   3.030   3.001
24596WAT     H174030   8.996   2.975   2.925
24596WAT     H274031   8.973   3.013   3.082
24597WAT      O74032   7.334   9.102   6.937
24597WAT     H174033   7.283   9.137   7.016
24597WAT     H274034   7.307   9.008   6.919
24598WAT      O74035   2.958   9.260   6.098
24598WAT     H174036   2.941   9.221   6.189
24598WAT     H274037   2.890   9.331   6.079
24599WAT      O74038   5.727   3.012   7.905
24599WAT     H174039   5.773   2.924   7.895
24599WAT     H274040   5.662   3.007   7.981
24600WAT      O74041   4.518   6.195   0.940
24600WAT     H174042   4.556   6.286   0.952
24600WAT     H274043   4.503   6.177   0.843
24601WAT      O74044   0.797   9.645   9.327
24601WAT     H174045   0.895   9.626   9.325
24601WAT     H274046   0.765   9.645   9.422
24602WAT      O74047   6.926   6.760   2.736
24602WAT     H174048   7.021   6.776   2.710
24602WAT     H274049   6.873   6.736   2.655
24603WAT      O74050   8.293   7.236   2.903
24603WAT     H174051   8.381   7.205   2.864
24603WAT     H274052   8.306   7.258   2.999
24604WAT      O74053   0.226   1.387   6.099
24604WAT     H174054   0.322   1.392   6.071
24604WAT     H274055   0.168   1.374   6.018
24605WAT      O74056   9.209   8.411   1.852
24605WAT     H174057   9.220   8.510   1.844
24605WAT     H274058   9.186   8.388   1.947
24606WAT      O74059   0.069   5.544   5.993
24606WAT     H174060   0.114   5.608   6.055
24606WAT     H274061   0.090   5.568   5.899
24607WAT      O74062   3.153   6.291   5.862
24607WAT     H174063   3.111   6.256   5.778
24607WAT     H274064   3.232   6.347   5.839
24608WAT      O74065   9.524   1.667   1.031
24608WAT     H174066   9.483   1.577   1.013
24608WAT     H274067   9.579   1.695   0.952
24609WAT      O74068   8.316   4.069   4.849
24609WAT     H174069   8.281   4.004   4.782
24609WAT     H274070   8.245   4.134   4.874
24610WAT      O74071   4.130   2.655   7.232
24610WAT     H174072   4.192   2.712   7.286
24610WAT     H274073   4.053   2.628   7.289
24611WAT      O74074   2.129   5.558   1.337
24611WAT     H174075   2.048   5.574   1.281
24611WAT     H274076   2.118   5.604   1.425
24612WAT      O74077   4.919   4.361   7.897
24612WAT     H174078   4.952   4.287   7.838
24612WAT     H274079   4.869   4.428   7.842
24613WAT      O74080   9.521   1.691   9.600
24613WAT     H174081   9.482   1.605   9.567
24613WAT     H274082   9.531   1.755   9.523
24614WAT      O74083   9.811   6.053   6.205
24614WAT     H174084   9.834   6.090   6.115
24614WAT     H274085   9.895   6.020   6.249
24615WAT      O74086   8.378   5.303   9.340
24615WAT     H174087   8.285   5.328   9.314
24615WAT     H274088   8.376   5.216   9.390
24616WAT      O74089   0.856   2.499   9.190
24616WAT     H174090   0.820   2.559   9.261
24616WAT     H274091   0.956   2.503   9.192
24617WAT      O74092   4.634   2.100   5.223
24617WAT     H174093   4.555   2.089   5.284
24617WAT     H274094   4.610   2.070   5.131
24618WAT      O74095   2.047   7.788   0.216
24618WAT     H174096   2.117   7.853   0.243
24618WAT     H274097   2.053   7.770   0.118
24619WAT      O74098   7.567   1.402   9.835
24619WAT     H174099   7.481   1.427   9.792
24619WAT     H274100   7.587   1.466   9.910
24620WAT      O74101   9.189   5.820   7.715
24620WAT     H174102   9.193   5.917   7.692
24620WAT     H274103   9.131   5.808   7.796
24621WAT      O74104   8.540   2.170   6.869
24621WAT     H174105   8.487   2.252   6.891
24621WAT     H274106   8.634   2.181   6.900
24622WAT      O74107   5.101   9.712   8.923
24622WAT     H174108   5.094   9.722   9.022
24622WAT     H274109   5.012   9.687   8.885
24623WAT      O74110   8.408   2.946   5.203
24623WAT     H174111   8.504   2.976   5.204
24623WAT     H274112   8.399   2.867   5.143
24624WAT      O74113   7.783   9.820   2.493
24624WAT     H174114   7.713   9.813   2.564
24624WAT     H274115   7.786   9.736   2.440
24625WAT      O74116   7.829   5.733   7.238
24625WAT     H174117   7.905   5.724   7.302
24625WAT     H274118   7.779   5.817   7.258
24626WAT      O74119   4.386   5.308   2.332
24626WAT     H174120   4.410   5.331   2.426
24626WAT     H274121   4.442   5.362   2.268
24627WAT      O74122   9.871   3.858   4.116
24627WAT     H174123   9.860   3.819   4.208
24627WAT     H274124   9.781   3.877   4.077
24628WAT      O74125   6.235   3.913   7.964
24628WAT     H174126   6.189   4.000   7.978
24628WAT     H274127   6.240   3.863   8.050
24629WAT      O74128   2.857   4.856   2.295
24629WAT     H174129   2.869   4.757   2.302
24629WAT     H274130   2.866   4.896   2.386
24630WAT      O74131   8.162   3.834   7.794
24630WAT     H174132   8.133   3.863   7.703
24630WAT     H274133   8.085   3.791   7.841
24631WAT      O74134   0.991   2.002   5.423
24631WAT     H174135   1.082   2.007   5.381
24631WAT     H274136   0.998   2.024   5.520
24632WAT      O74137   0.902   3.369   8.821
24632WAT     H174138   0.881   3.457   8.779
24632WAT     H274139   0.841   3.298   8.785
24633WAT      O74140   3.398   1.740   9.670
24633WAT     H174141   3.384   1.812   9.603
24633WAT     H274142   3.469   1.767   9.735
24634WAT      O74143   1.726   8.363   4.270
24634WAT     H174144   1.759   8.280   4.224
24634WAT     H274145   1.649   8.401   4.219
24635WAT      O74146   3.312   2.528   2.667
24635WAT     H174147   3.404   2.496   2.645
24635WAT     H274148   3.278   2.481   2.748
24636WAT      O74149   2.263   8.800   8.875
24636WAT     H174150   2.354   8.759   8.890
24636WAT     H274151   2.256   8.885   8.926
24637WAT      O74152   2.206   3.674   0.646
24637WAT     H174153   2.121   3.718   0.619
24637WAT     H274154   2.186   3.590   0.697
24638WAT      O74155   2.713   3.906   4.979
24638WAT     H174156   2.753   3.940   4.893
24638WAT     H274157   2.689   3.809   4.968
24639WAT      O74158   3.486   6.077   3.029
24639WAT     H174159   3.465   6.161   2.978
24639WAT     H274160   3.545   6.019   2.973
24640WAT      O74161   4.727   5.953   0.709
24640WAT     H174162   4.796   6.020   0.679
24640WAT     H274163   4.636   5.989   0.691
24641WAT      O74164   6.695   1.680   1.108
24641WAT     H174165   6.773   1.708   1.164
24641WAT     H274166   6.697   1.580   1.097
24642WAT      O74167   7.336   2.357   6.471
24642WAT     H174168   7.240   2.333   6.465
24642WAT     H274169   7.346   2.443   6.522
24643WAT      O74170   5.659   4.535   9.261
24643WAT     H174171   5.756   4.544   9.239
24643WAT     H274172   5.618   4.465   9.203
24644WAT      O74173   6.238   9.240   9.027
24644WAT     H174174   6.258   9.308   8.956
24644WAT     H274175   6.175   9.171   8.990
24645WAT      O74176   2.526   5.988   8.143
24645WAT     H174177   2.434   5.999   8.105
24645WAT     H274178   2.531   6.037   8.231
24646WAT      O74179   4.577   6.989   3.736
24646WAT     H174180   4.584   7.055   3.660
24646WAT     H274181   4.511   6.918   3.711
24647WAT      O74182   0.214   4.661   4.407
24647WAT     H174183   0.187   4.731   4.472
24647WAT     H274184   0.141   4.647   4.340
24648WAT      O74185   2.537   1.066   9.350
24648WAT     H174186   2.456   1.049   9.294
24648WAT     H274187   2.574   0.979   9.383
24649WAT      O74188   8.920   5.081   4.412
24649WAT     H174189   8.968   5.110   4.330
24649WAT     H274190   8.876   5.160   4.455
24650WAT      O74191   6.342   6.479   1.816
24650WAT     H174192   6.351   6.430   1.903
24650WAT     H274193   6.425   6.531   1.798
24651WAT      O74194   2.299   8.412   2.284
24651WAT     H174195   2.261   8.425   2.193
24651WAT     H274196   2.392   8.376   2.277
24652WAT      O74197   5.720   2.101   0.678
24652WAT     H174198   5.818   2.116   0.665
24652WAT     H274199   5.694   2.015   0.635
24653WAT      O74200   3.524   2.005   9.038
24653WAT     H174201   3.498   2.093   9.079
24653WAT     H274202   3.450   1.939   9.052
24654WAT      O74203   9.633   7.235   1.185
24654WAT     H174204   9.563   7.268   1.121
24654WAT     H274205   9.681   7.158   1.144
24655WAT      O74206   4.790   0.597   4.814
24655WAT     H174207   4.799   0.622   4.718
24655WAT     H274208   4.852   0.653   4.869
24656WAT      O74209   8.076   7.727   9.833
24656WAT     H174210   8.168   7.717   9.870
24656WAT     H274211   8.056   7.650   9.771
24657WAT      O74212   9.182   1.262   9.174
24657WAT     H174213   9.235   1.249   9.258
24657WAT     H274214   9.234   1.226   9.096
24658WAT      O74215   1.019   5.446   3.255
24658WAT     H174216   1.059   5.479   3.341
24658WAT     H274217   0.928   5.486   3.243
24659WAT      O74218   6.626   6.077   4.035
24659WAT     H174219   6.720   6.107   4.047
24659WAT     H274220   6.567   6.157   4.023
24660WAT      O74221   7.087   1.473   9.787
24660WAT     H174222   7.000   1.477   9.737
24660WAT     H274223   7.079   1.524   9.872
24661WAT      O74224   1.405   2.787   3.350
24661WAT     H174225   1.318   2.740   3.363
24661WAT     H274226   1.395   2.884   3.376
24662WAT      O74227   5.463   3.266   8.168
24662WAT     H174228   5.516   3.186   8.138
24662WAT     H274229   5.523   3.332   8.212
24663WAT      O74230   8.097   7.618   1.950
24663WAT     H174231   8.177   7.578   1.996
24663WAT     H274232   8.127   7.680   1.878
24664WAT      O74233   2.054   4.482   9.617
24664WAT     H174234   2.087   4.503   9.709
24664WAT     H274235   2.113   4.527   9.550
24665WAT      O74236   1.876   8.132   7.997
24665WAT     H174237   1.796   8.191   7.998
24665WAT     H274238   1.877   8.074   8.078
24666WAT      O74239   4.898   5.185   3.654
24666WAT     H174240   4.995   5.163   3.666
24666WAT     H274241   4.846   5.153   3.734
24667WAT      O74242   5.617   4.527   1.851
24667WAT     H174243   5.689   4.584   1.812
24667WAT     H274244   5.658   4.453   1.903
24668WAT      O74245   7.163   3.131   0.274
24668WAT     H174246   7.118   3.190   0.340
24668WAT     H274247   7.098   3.105   0.202
24669WAT      O74248   7.891   2.520   1.003
24669WAT     H174249   7.888   2.608   0.956
24669WAT     H274250   7.938   2.530   1.090
24670WAT      O74251   4.071   6.012   9.525
24670WAT     H174252   4.038   6.107   9.530
24670WAT     H274253   4.161   6.006   9.569
24671WAT      O74254   6.101   5.627   3.231
24671WAT     H174255   6.173   5.606   3.165
24671WAT     H274256   6.022   5.569   3.213
24672WAT      O74257   4.282   0.691   2.845
24672WAT     H174258   4.294   0.772   2.788
24672WAT     H274259   4.362   0.632   2.836
24673WAT      O74260   1.072   0.390   9.593
24673WAT     H174261   1.133   0.432   9.526
24673WAT     H274262   1.101   0.416   9.686
24674WAT      O74263   1.510   8.125   4.892
24674WAT     H174264   1.502   8.053   4.961
24674WAT     H274265   1.607   8.141   4.873
24675WAT      O74266   7.895   9.496   5.249
24675WAT     H174267   7.895   9.578   5.306
24675WAT     H274268   7.988   9.462   5.239
24676WAT      O74269   5.450   8.623   9.289
24676WAT     H174270   5.380   8.555   9.310
24676WAT     H274271   5.413   8.689   9.223
24677WAT      O74272   4.613   0.828   4.582
24677WAT     H174273   4.577   0.869   4.666
24677WAT     H274274   4.707   0.798   4.597
24678WAT      O74275   9.106   5.104   1.727
24678WAT     H174276   9.170   5.146   1.662
24678WAT     H274277   9.036   5.054   1.676
24679WAT      O74278   5.771   1.224   1.864
24679WAT     H174279   5.717   1.150   1.825
24679WAT     H274280   5.743   1.241   1.959
24680WAT      O74281   2.756   2.094   4.801
24680WAT     H174282   2.746   2.099   4.701
24680WAT     H274283   2.697   2.023   4.837
24681WAT      O74284   8.584   8.455   5.881
24681WAT     H174285   8.571   8.463   5.782
24681WAT     H274286   8.681   8.458   5.903
24682WAT      O74287   4.745   7.314   9.018
24682WAT     H174288   4.699   7.307   8.929
24682WAT     H274289   4.691   7.373   9.078
24683WAT      O74290   1.300   2.530   1.312
24683WAT     H174291   1.292   2.531   1.412
24683WAT     H274292   1.314   2.623   1.278
24684WAT      O74293   2.523   9.024   0.993
24684WAT     H174294   2.511   8.947   0.930
24684WAT     H274295   2.582   8.996   1.069
24685WAT      O74296   8.331   8.181   0.158
24685WAT     H174297   8.293   8.204   0.068
24685WAT     H274298   8.370   8.263   0.199
24686WAT      O74299   2.494   7.885   6.245
24686WAT     H174300   2.474   7.818   6.316
24686WAT     H274301   2.570   7.851   6.189
24687WAT      O74302   7.358   1.191   2.997
24687WAT     H174303   7.455   1.178   2.975
24687WAT     H274304   7.331   1.125   3.068
24688WAT      O74305   9.272   8.233   1.368
24688WAT     H174306   9.326   8.162   1.324
24688WAT     H274307   9.262   8.311   1.306
24689WAT      O74308   5.581   1.643   8.035
24689WAT     H174309   5.553   1.666   8.129
24689WAT     H274310   5.676   1.610   8.035
24690WAT      O74311   3.118   9.692   1.125
24690WAT     H174312   3.136   9.713   1.029
24690WAT     H274313   3.029   9.729   1.151
24691WAT      O74314   1.414   0.607   6.348
24691WAT     H174315   1.461   0.650   6.271
24691WAT     H274316   1.481   0.558   6.405
24692WAT      O74317   6.559   0.214   1.282
24692WAT     H174318   6.592   0.123   1.305
24692WAT     H274319   6.527   0.215   1.188
24693WAT      O74320   8.401   7.721   9.308
24693WAT     H174321   8.481   7.752   9.358
24693WAT     H274322   8.336   7.678   9.372
24694WAT      O74323   4.666   7.663   7.733
24694WAT     H174324   4.675   7.564   7.742
24694WAT     H274325   4.739   7.708   7.785
24695WAT      O74326   7.502   6.483   8.820
24695WAT     H174327   7.592   6.446   8.839
24695WAT     H274328   7.507   6.548   8.744
24696WAT      O74329   0.017   5.674   4.238
24696WAT     H174330   0.017   5.593   4.296
24696WAT     H274331   0.108   5.717   4.240
24697WAT      O74332   1.265   2.585   6.587
24697WAT     H174333   1.176   2.595   6.542
24697WAT     H274334   1.263   2.507   6.649
24698WAT      O74335   3.005   7.560   8.628
24698WAT     H174336   2.911   7.587   8.651
24698WAT     H274337   3.002   7.493   8.554
24699WAT      O74338   3.923   2.265   3.157
24699WAT     H174339   3.886   2.313   3.078
24699WAT     H274340   3.986   2.193   3.127
24700WAT      O74341   1.747   8.124   8.915
24700WAT     H174342   1.830   8.144   8.862
24700WAT     H274343   1.696   8.052   8.870
24701WAT      O74344   2.426   3.386   0.977
24701WAT     H174345   2.389   3.439   0.901
24701WAT     H274346   2.462   3.448   1.047
24702WAT      O74347   6.435   3.524   3.480
24702WAT     H174348   6.398   3.507   3.389
24702WAT     H274349   6.493   3.447   3.507
24703WAT      O74350   0.154   8.057   0.416
24703WAT     H174351   0.176   8.052   0.319
24703WAT     H274352   0.171   7.969   0.459
24704WAT      O74353   1.225   2.224   9.544
24704WAT     H174354   1.315   2.222   9.587
24704WAT     H274355   1.218   2.302   9.483
24705WAT      O74356   8.763   6.608   4.985
24705WAT     H174357   8.818   6.648   5.059
24705WAT     H274358   8.823   6.560   4.921
24706WAT      O74359   8.687   6.607   3.245
24706WAT     H174360   8.730   6.657   3.169
24706WAT     H274361   8.674   6.668   3.322
24707WAT      O74362   5.780   8.982   4.056
24707WAT     H174363   5.756   8.996   4.152
24707WAT     H274364   5.875   8.951   4.050
24708WAT      O74365   7.678   7.993   8.244
24708WAT     H174366   7.600   7.936   8.217
24708WAT     H274367   7.736   7.942   8.307
24709WAT      O74368   0.653   8.962   8.185
24709WAT     H174369   0.678   8.875   8.143
24709WAT     H274370   0.728   8.994   8.243
24710WAT      O74371   6.748   4.719   2.187
24710WAT     H174372   6.683   4.762   2.249
24710WAT     H274373   6.743   4.764   2.097
24711WAT      O74374   8.506   9.296   1.694
24711WAT     H174375   8.555   9.359   1.635
24711WAT     H274376   8.571   9.237   1.742
24712WAT      O74377   0.012   8.600   2.150
24712WAT     H174378   0.064   8.626   2.069
24712WAT     H274379  -0.041   8.679   2.183
24713WAT      O74380   8.983   9.634   8.762
24713WAT     H174381   8.995   9.732   8.778
24713WAT     H274382   8.887   9.616   8.741
24714WAT      O74383   1.627   9.252   1.158
24714WAT     H174384   1.549   9.313   1.173
24714WAT     H274385   1.677   9.240   1.243
24715WAT      O74386   0.964   8.877   4.234
24715WAT     H174387   0.954   8.786   4.273
24715WAT     H274388   0.995   8.940   4.305
24716WAT      O74389   8.588   4.166   0.941
24716WAT     H174390   8.617   4.169   1.036
24716WAT     H274391   8.633   4.089   0.894
24717WAT      O74392   5.838   2.756   7.902
24717WAT     H174393   5.781   2.679   7.875
24717WAT     H274394   5.927   2.750   7.857
24718WAT      O74395   1.095   7.238   1.879
24718WAT     H174396   1.014   7.258   1.935
24718WAT     H274397   1.066   7.186   1.798
24719WAT      O74398   9.135   7.631   3.407
24719WAT     H174399   9.202   7.639   3.481
24719WAT     H274400   9.181   7.641   3.319
24720WAT      O74401   7.734   1.101   0.167
24720WAT     H174402   7.804   1.170   0.190
24720WAT     H274403   7.763   1.051   0.086
24721WAT      O74404   4.339   8.976   9.701
24721WAT     H174405   4.272   9.027   9.754
24721WAT     H274406   4.408   9.038   9.665
24722WAT      O74407   3.241   1.762   7.707
24722WAT     H174408   3.204   1.753   7.799
24722WAT     H274409   3.244   1.859   7.682
24723WAT      O74410   5.245   1.522   9.765
24723WAT     H174411   5.191   1.489   9.842
24723WAT     H274412   5.273   1.444   9.709
24724WAT      O74413   6.698   8.591   5.106
24724WAT     H174414   6.630   8.547   5.165
24724WAT     H274415   6.779   8.613   5.159
24725WAT      O74416   0.041   2.435   6.902
24725WAT     H174417  -0.016   2.503   6.856
24725WAT     H274418  -0.017   2.364   6.941
24726WAT      O74419   3.319   2.259   9.524
24726WAT     H174420   3.225   2.240   9.552
24726WAT     H274421   3.363   2.175   9.494
24727WAT      O74422   8.507   2.438   1.725
24727WAT     H174423   8.579   2.459   1.791
24727WAT     H274424   8.538   2.464   1.633
24728WAT      O74425   3.852   2.083   8.826
24728WAT     H174426   3.769   2.126   8.790
24728WAT     H274427   3.834   2.049   8.919
24729WAT      O74428   9.072   4.626   8.203
24729WAT     H174429   9.105   4.534   8.182
24729WAT     H274430   8.998   4.620   8.271
24730WAT      O74431   4.130   2.241   9.350
24730WAT     H174432   4.043   2.243   9.300
24730WAT     H274433   4.180   2.158   9.326
24731WAT      O74434   9.284   7.899   3.768
24731WAT     H174435   9.219   7.865   3.835
24731WAT     H274436   9.344   7.966   3.811
24732WAT      O74437   8.870   0.491   5.395
24732WAT     H174438   8.817   0.429   5.453
24732WAT     H274439   8.813   0.520   5.318
24733WAT      O74440   1.143   9.114   5.176
24733WAT     H174441   1.155   9.199   5.228
24733WAT     H274442   1.213   9.048   5.205
24734WAT      O74443   1.747   0.417   4.205
24734WAT     H174444   1.763   0.377   4.115
24734WAT     H274445   1.794   0.505   4.211
24735WAT      O74446   3.722   3.912   6.939
24735WAT     H174447   3.630   3.921   6.978
24735WAT     H274448   3.741   3.989   6.878
24736WAT      O74449   3.036   3.042   8.610
24736WAT     H174450   2.965   2.987   8.565
24736WAT     H274451   3.023   3.037   8.709
24737WAT      O74452   8.463   0.224   5.371
24737WAT     H174453   8.481   0.171   5.288
24737WAT     H274454   8.370   0.206   5.403
24738WAT      O74455   6.053   0.136   8.565
24738WAT     H174456   6.001   0.095   8.640
24738WAT     H274457   6.003   0.124   8.480
24739WAT      O74458   0.015   5.130   1.005
24739WAT     H174459  -0.058   5.095   1.064
24739WAT     H274460   0.002   5.228   0.991
24740WAT      O74461   1.003   4.962   9.872
24740WAT     H174462   1.082   5.023   9.873
24740WAT     H274463   0.919   5.015   9.886
24741WAT      O74464   1.715   3.890   8.156
24741WAT     H174465   1.761   3.953   8.093
24741WAT     H274466   1.784   3.834   8.202
24742WAT      O74467   1.246   8.538   4.576
24742WAT     H174468   1.229   8.467   4.644
24742WAT     H274469   1.344   8.544   4.558
24743WAT      O74470   3.440   6.239   7.209
24743WAT     H174471   3.518   6.178   7.218
24743WAT     H274472   3.402   6.232   7.117
24744WAT      O74473   1.401   1.616   3.607
24744WAT     H174474   1.496   1.592   3.628
24744WAT     H274475   1.360   1.662   3.686
24745WAT      O74476   5.721   0.865   7.190
24745WAT     H174477   5.650   0.813   7.238
24745WAT     H274478   5.770   0.923   7.254
24746WAT      O74479   8.646   5.905   1.905
24746WAT     H174480   8.610   5.819   1.941
24746WAT     H274481   8.644   5.975   1.977
24747WAT      O74482   6.253   3.810   0.829
24747WAT     H174483   6.269   3.712   0.839
24747WAT     H274484   6.160   3.825   0.795
24748WAT      O74485   4.113   3.829   8.420
24748WAT     H174486   4.029   3.788   8.382
24748WAT     H274487   4.131   3.789   8.509
24749WAT      O74488   7.135   8.447   5.803
24749WAT     H174489   7.209   8.443   5.737
24749WAT     H274490   7.171   8.434   5.895
24750WAT      O74491   7.025   0.366   2.425
24750WAT     H174492   6.934   0.405   2.412
24750WAT     H274493   7.080   0.425   2.483
24751WAT      O74494   4.306   4.098   0.104
24751WAT     H174495   4.312   4.000   0.089
24751WAT     H274496   4.246   4.139   0.035
24752WAT      O74497   9.259   2.074   4.663
24752WAT     H174498   9.250   2.169   4.633
24752WAT     H274499   9.168   2.031   4.665
24753WAT      O74500   9.182   3.405   2.347
24753WAT     H174501   9.175   3.435   2.442
24753WAT     H274502   9.279   3.400   2.321
24754WAT      O74503   1.556   5.208   6.497
24754WAT     H174504   1.643   5.242   6.461
24754WAT     H274505   1.541   5.114   6.467
24755WAT      O74506   5.131   4.450   9.501
24755WAT     H174507   5.189   4.530   9.515
24755WAT     H274508   5.092   4.420   9.588
24756WAT      O74509   0.612   0.405   6.978
24756WAT     H174510   0.640   0.372   7.069
24756WAT     H274511   0.607   0.505   6.980
24757WAT      O74512   6.618   5.634   8.135
24757WAT     H174513   6.642   5.639   8.038
24757WAT     H274514   6.702   5.629   8.190
24758WAT      O74515   3.015   8.673   4.708
24758WAT     H174516   3.080   8.596   4.702
24758WAT     H274517   3.055   8.753   4.663
24759WAT      O74518   0.085   0.301   9.776
24759WAT     H174519   0.058   0.388   9.735
24759WAT     H274520   0.174   0.310   9.819
24760WAT      O74521   9.843   7.371   9.547
24760WAT     H174522   9.745   7.390   9.553
24760WAT     H274523   9.887   7.390   9.635
24761WAT      O74524   9.859   5.604   9.244
24761WAT     H174525   9.805   5.588   9.327
24761WAT     H274526   9.799   5.605   9.165
24762WAT      O74527   8.504   6.939   5.964
24762WAT     H174528   8.476   6.992   6.045
24762WAT     H274529   8.423   6.910   5.914
24763WAT      O74530   5.717   9.210   7.696
24763WAT     H174531   5.765   9.172   7.775
24763WAT     H274532   5.629   9.248   7.727
24764WAT      O74533   3.266   7.444   4.961
24764WAT     H174534   3.339   7.468   4.897
24764WAT     H274535   3.182   7.425   4.911
24765WAT      O74536   7.848   2.131   6.323
24765WAT     H174537   7.793   2.182   6.389
24765WAT     H274538   7.911   2.070   6.372
24766WAT      O74539   1.575   3.000   3.690
24766WAT     H174540   1.484   2.963   3.673
24766WAT     H274541   1.611   3.041   3.605
24767WAT      O74542   6.587   8.668   0.532
24767WAT     H174543   6.492   8.641   0.517
24767WAT     H274544   6.643   8.635   0.457
24768WAT      O74545   6.990   6.574   2.927
24768WAT     H174546   6.959   6.649   2.869
24768WAT     H274547   7.089   6.581   2.940
24769WAT      O74548   9.544   2.231   5.796
24769WAT     H174549   9.637   2.269   5.795
24769WAT     H274550   9.487   2.286   5.857
24770WAT      O74551   7.365   9.244   6.300
24770WAT     H174552   7.361   9.146   6.284
24770WAT     H274553   7.346   9.292   6.214
24771WAT      O74554   3.240   7.644   1.687
24771WAT     H174555   3.306   7.609   1.753
24771WAT     H274556   3.261   7.739   1.666
24772WAT      O74557   3.768   0.696   9.059
24772WAT     H174558   3.854   0.671   9.104
24772WAT     H274559   3.714   0.614   9.041
24773WAT      O74560   2.008   4.175   2.643
24773WAT     H174561   1.985   4.271   2.626
24773WAT     H274562   1.951   4.140   2.718
24774WAT      O74563   5.974   5.409   7.830
24774WAT     H174564   6.056   5.466   7.828
24774WAT     H274565   6.001   5.313   7.840
24775WAT      O74566   1.852   1.105   4.843
24775WAT     H174567   1.753   1.106   4.829
24775WAT     H274568   1.891   1.192   4.812
24776WAT      O74569   5.594   8.280   6.648
24776WAT     H174570   5.530   8.207   6.621
24776WAT     H274571   5.630   8.324   6.565
24777WAT      O74572   1.860   8.885   5.350
24777WAT     H174573   1.868   8.831   5.266
24777WAT     H274574   1.811   8.970   5.331
24778WAT      O74575   4.153   6.474   7.311
24778WAT     H174576   4.123   6.383   7.284
24778WAT     H274577   4.222   6.466   7.383
24779WAT      O74578   0.913   8.350   4.402
24779WAT     H174579   0.910   8.312   4.310
24779WAT     H274580   0.889   8.280   4.469
24780WAT      O74581   6.154   2.924   3.138
24780WAT     H174582   6.137   2.941   3.235
24780WAT     H274583   6.251   2.933   3.118
24781WAT      O74584   4.701   8.355   0.967
24781WAT     H174585   4.678   8.438   0.916
24781WAT     H274586   4.790   8.322   0.938
24782WAT      O74587   2.995   3.333   8.914
24782WAT     H174588   3.079   3.346   8.967
24782WAT     H274589   3.010   3.368   8.821
24783WAT      O74590   4.195   4.798   4.547
24783WAT     H174591   4.270   4.787   4.482
24783WAT     H274592   4.192   4.718   4.608
24784WAT      O74593   0.425   4.051   3.975
24784WAT     H174594   0.338   4.003   3.992
24784WAT     H274595   0.407   4.139   3.932
24785WAT      O74596   7.731   2.135   6.865
24785WAT     H174597   7.694   2.045   6.843
24785WAT     H274598   7.831   2.133   6.860
24786WAT      O74599   4.290   0.730   3.364
24786WAT     H174600   4.205   0.677   3.369
24786WAT     H274601   4.328   0.723   3.272
24787WAT      O74602   0.780   2.080   8.538
24787WAT     H174603   0.722   2.015   8.588
24787WAT     H274604   0.860   2.103   8.593
24788WAT      O74605   8.215   2.273   4.826
24788WAT     H174606   8.131   2.220   4.828
24788WAT     H274607   8.236   2.299   4.731
24789WAT      O74608   4.584   2.475   0.767
24789WAT     H174609   4.615   2.380   0.774
24789WAT     H274610   4.655   2.536   0.799
24790WAT      O74611   3.316   7.016   7.994
24790WAT     H174612   3.288   7.079   7.922
24790WAT     H274613   3.352   7.068   8.072
24791WAT      O74614   5.091   2.215   4.654
24791WAT     H174615   5.126   2.240   4.564
24791WAT     H274616   5.167   2.189   4.713
24792WAT      O74617   7.114   8.291   1.721
24792WAT     H174618   7.157   8.207   1.753
24792WAT     H274619   7.014   8.281   1.725
24793WAT      O74620   5.922   2.701   0.423
24793WAT     H174621   5.952   2.795   0.407
24793WAT     H274622   5.996   2.638   0.398
24794WAT      O74623   0.242   8.203   3.161
24794WAT     H174624   0.305   8.237   3.090
24794WAT     H274625   0.198   8.120   3.130
24795WAT      O74626   3.437   5.007   5.422
24795WAT     H174627   3.401   5.101   5.417
24795WAT     H274628   3.360   4.943   5.419
24796WAT      O74629   6.362   9.132   0.502
24796WAT     H174630   6.311   9.056   0.542
24796WAT     H274631   6.370   9.118   0.403
24797WAT      O74632   1.317   1.003   1.710
24797WAT     H174633   1.309   0.987   1.809
24797WAT     H274634   1.403   0.965   1.677
24798WAT      O74635   9.651   1.428   0.199
24798WAT     H174636   9.685   1.334   0.200
24798WAT     H274637   9.714   1.487   0.251
24799WAT      O74638   8.808   1.023   4.499
24799WAT     H174639   8.837   0.963   4.425
24799WAT     H274640   8.783   0.968   4.579
24800WAT      O74641   0.328   0.646   8.162
24800WAT     H174642   0.254   0.600   8.113
24800WAT     H274643   0.416   0.607   8.136
24801WAT      O74644   8.222   4.851   2.708
24801WAT     H174645   8.133   4.811   2.687
24801WAT     H274646   8.280   4.848   2.626
24802WAT      O74647   3.669   5.264   6.372
24802WAT     H174648   3.687   5.173   6.334
24802WAT     H274649   3.587   5.302   6.330
24803WAT      O74650   6.749   3.075   7.666
24803WAT     H174651   6.841   3.102   7.636
24803WAT     H274652   6.741   2.975   7.664
24804WAT      O74653   8.528   6.684   4.821
24804WAT     H174654   8.617   6.686   4.866
24804WAT     H274655   8.457   6.661   4.888
24805WAT      O74656   3.638   8.534   8.583
24805WAT     H174657   3.725   8.553   8.538
24805WAT     H274658   3.572   8.502   8.515
24806WAT      O74659   1.949   5.028   5.984
24806WAT     H174660   2.043   4.993   5.980
24806WAT     H274661   1.901   5.005   5.900
24807WAT      O74662   4.205   4.981   7.088
24807WAT     H174663   4.209   4.973   6.988
24807WAT     H274664   4.203   5.077   7.114
24808WAT      O74665   1.267   4.227   3.334
24808WAT     H174666   1.365   4.231   3.353
24808WAT     H274667   1.228   4.147   3.381
24809WAT      O74668   5.163   1.418   5.683
24809WAT     H174669   5.071   1.387   5.658
24809WAT     H274670   5.208   1.457   5.602
24810WAT      O74671   2.109   6.215   8.253
24810WAT     H174672   2.209   6.218   8.258
24810WAT     H274673   2.080   6.233   8.159
24811WAT      O74674   5.020   3.421   0.681
24811WAT     H174675   5.043   3.325   0.697
24811WAT     H274676   5.102   3.471   0.653
24812WAT      O74677   5.624   7.770   9.577
24812WAT     H174678   5.681   7.836   9.527
24812WAT     H274679   5.542   7.815   9.610
24813WAT      O74680   2.488   1.732   4.577
24813WAT     H174681   2.435   1.733   4.661
24813WAT     H274682   2.493   1.639   4.541
24814WAT      O74683   0.494   9.241   4.029
24814WAT     H174684   0.397   9.220   4.016
24814WAT     H274685   0.523   9.212   4.120
24815WAT      O74686   8.735   1.768   5.408
24815WAT     H174687   8.772   1.860   5.396
24815WAT     H274688   8.805   1.701   5.381
24816WAT      O74689   2.052   8.321   6.164
24816WAT     H174690   1.984   8.381   6.206
24816WAT     H274691   2.134   8.374   6.144
24817WAT      O74692   6.199   3.492   2.064
24817WAT     H174693   6.268   3.478   2.134
24817WAT     H274694   6.155   3.405   2.041
24818WAT      O74695   2.577   8.839   0.473
24818WAT     H174696   2.571   8.935   0.501
24818WAT     H274697   2.534   8.829   0.383
24819WAT      O74698   8.423   9.328   2.594
24819WAT     H174699   8.412   9.423   2.563
24819WAT     H274700   8.340   9.277   2.573
24820WAT      O74701   8.169   7.455   9.005
24820WAT     H174702   8.144   7.442   8.909
24820WAT     H274703   8.109   7.524   9.046
24821WAT      O74704   8.185   6.066   0.634
24821WAT     H174705   8.222   6.065   0.541
24821WAT     H274706   8.096   6.019   0.635
24822WAT      O74707   8.969   8.749   1.918
24822WAT     H174708   9.044   8.718   1.976
24822WAT     H274709   8.953   8.683   1.846
24823WAT      O74710   9.212   4.962   0.142
24823WAT     H174711   9.209   5.033   0.072
24823WAT     H274712   9.289   4.900   0.123
24824WAT      O74713   9.400   2.709   4.604
24824WAT     H174714   9.433   2.795   4.566
24824WAT     H274715   9.478   2.650   4.625
24825WAT      O74716   9.687   0.815   1.170
24825WAT     H174717   9.754   0.825   1.096
24825WAT     H274718   9.611   0.877   1.155
24826WAT      O74719   7.669   8.086   5.212
24826WAT     H174720   7.613   8.052   5.136
24826WAT     H274721   7.613   8.143   5.272
24827WAT      O74722   3.155   8.442   4.731
24827WAT     H174723   3.181   8.371   4.796
24827WAT     H274724   3.204   8.429   4.645
24828WAT      O74725   1.613   5.871   6.644
24828WAT     H174726   1.636   5.808   6.569
24828WAT     H274727   1.648   5.833   6.730
24829WAT      O74728   6.219   9.740   5.049
24829WAT     H174729   6.263   9.718   5.136
24829WAT     H274730   6.266   9.692   4.975
24830WAT      O74731   2.866   6.828   6.687
24830WAT     H174732   2.952   6.829   6.737
24830WAT     H274733   2.884   6.816   6.589
24831WAT      O74734   0.041   3.380   5.021
24831WAT     H174735   0.027   3.296   4.968
24831WAT     H274736  -0.046   3.428   5.031
24832WAT      O74737   7.508   9.673   3.265
24832WAT     H174738   7.417   9.642   3.294
24832WAT     H274739   7.545   9.735   3.335
24833WAT      O74740   6.958   8.750   5.901
24833WAT     H174741   6.946   8.849   5.903
24833WAT     H274742   6.986   8.721   5.810
24834WAT      O74743   6.489   7.756   1.466
24834WAT     H174744   6.414   7.691   1.479
24834WAT     H274745   6.511   7.801   1.552
24835WAT      O74746   7.522   0.672   6.352
24835WAT     H174747   7.454   0.725   6.402
24835WAT     H274748   7.594   0.642   6.414
24836WAT      O74749   3.835   2.763   7.855
24836WAT     H174750   3.778   2.730   7.779
24836WAT     H274751   3.777   2.777   7.936
24837WAT      O74752   9.879   5.462   4.396
24837WAT     H174753   9.834   5.483   4.482
24837WAT     H274754   9.904   5.365   4.394
24838WAT      O74755   4.148   2.197   2.822
24838WAT     H174756   4.231   2.254   2.830
24838WAT     H274757   4.147   2.153   2.733
24839WAT      O74758   9.816   7.862   0.125
24839WAT     H174759   9.862   7.906   0.047
24839WAT     H274760   9.845   7.766   0.131
24840WAT      O74761   6.239   4.648   8.531
24840WAT     H174762   6.217   4.735   8.575
24840WAT     H274763   6.155   4.595   8.517
24841WAT      O74764   5.642   7.673   0.204
24841WAT     H174765   5.646   7.619   0.288
24841WAT     H274766   5.732   7.712   0.185
24842WAT      O74767   8.174   6.500   2.520
24842WAT     H174768   8.109   6.481   2.447
24842WAT     H274769   8.229   6.580   2.496
24843WAT      O74770   7.855   5.063   1.070
24843WAT     H174771   7.933   5.060   1.133
24843WAT     H274772   7.800   4.980   1.082
24844WAT      O74773   4.504   9.080   5.263
24844WAT     H174774   4.537   9.112   5.352
24844WAT     H274775   4.548   9.133   5.191
24845WAT      O74776   0.127   9.049   9.742
24845WAT     H174777   0.048   8.988   9.746
24845WAT     H274778   0.142   9.078   9.648
24846WAT      O74779   2.360   0.337   3.967
24846WAT     H174780   2.418   0.416   3.984
24846WAT     H274781   2.383   0.264   4.031
24847WAT      O74782   4.952   5.564   9.615
24847WAT     H174783   5.008   5.641   9.647
24847WAT     H274784   4.891   5.535   9.689
24848WAT      O74785   3.304   9.479   0.011
24848WAT     H174786   3.239   9.453   0.082
24848WAT     H274787   3.264   9.462  -0.079
24849WAT      O74788   5.424   9.177   6.228
24849WAT     H174789   5.427   9.218   6.137
24849WAT     H274790   5.509   9.125   6.244
24850WAT      O74791   7.620   8.714   4.256
24850WAT     H174792   7.693   8.701   4.323
24850WAT     H274793   7.654   8.694   4.165
24851WAT      O74794   6.635   6.049   3.666
24851WAT     H174795   6.555   6.043   3.725
24851WAT     H274796   6.612   6.015   3.575
24852WAT      O74797   2.517   1.612   2.015
24852WAT     H174798   2.581   1.665   2.069
24852WAT     H274799   2.430   1.661   2.009
24853WAT      O74800   0.223   4.083   5.557
24853WAT     H174801   0.195   4.094   5.652
24853WAT     H274802   0.262   3.992   5.544
24854WAT      O74803   6.877   4.861   4.603
24854WAT     H174804   6.942   4.784   4.598
24854WAT     H274805   6.784   4.825   4.608
24855WAT      O74806   3.818   7.163   7.592
24855WAT     H174807   3.777   7.161   7.500
24855WAT     H274808   3.819   7.071   7.630
24856WAT      O74809   2.362   8.909   6.461
24856WAT     H174810   2.301   8.855   6.403
24856WAT     H274811   2.312   8.989   6.496
24857WAT      O74812   1.214   5.381   5.939
24857WAT     H174813   1.166   5.344   5.859
24857WAT     H274814   1.150   5.435   5.994
24858WAT      O74815   4.854   4.434   8.298
24858WAT     H174816   4.818   4.378   8.372
24858WAT     H274817   4.898   4.516   8.336
24859WAT      O74818   3.788   4.941   0.919
24859WAT     H174819   3.743   5.022   0.882
24859WAT     H274820   3.878   4.967   0.955
24860WAT      O74821   2.944   3.676   8.798
24860WAT     H174822   2.949   3.593   8.742
24860WAT     H274823   3.010   3.670   8.872
24861WAT      O74824   2.552   2.244   5.367
24861WAT     H174825   2.522   2.211   5.277
24861WAT     H274826   2.651   2.236   5.374
24862WAT      O74827   8.745   4.937   2.526
24862WAT     H174828   8.759   4.935   2.427
24862WAT     H274829   8.803   4.868   2.569
24863WAT      O74830   8.875   7.187   0.823
24863WAT     H174831   8.946   7.151   0.763
24863WAT     H274832   8.785   7.174   0.779
24864WAT      O74833   3.588   6.682   1.613
24864WAT     H174834   3.654   6.754   1.594
24864WAT     H274835   3.617   6.630   1.693
24865WAT      O74836   3.490   0.318   2.723
24865WAT     H174837   3.447   0.241   2.769
24865WAT     H274838   3.429   0.355   2.653
24866WAT      O74839   1.516   9.439   1.648
24866WAT     H174840   1.534   9.342   1.668
24866WAT     H274841   1.512   9.452   1.549
24867WAT      O74842   7.727   7.619   3.292
24867WAT     H174843   7.741   7.611   3.391
24867WAT     H274844   7.814   7.608   3.245
24868WAT      O74845   2.918   6.083   3.400
24868WAT     H174846   2.819   6.100   3.395
24868WAT     H274847   2.959   6.100   3.310
24869WAT      O74848   8.250   0.229   5.157
24869WAT     H174849   8.331   0.194   5.110
24869WAT     H274850   8.171   0.171   5.134
24870WAT      O74851   9.866   1.677   6.383
24870WAT     H174852   9.901   1.727   6.463
24870WAT     H274853   9.788   1.726   6.345
24871WAT      O74854   7.760   2.952   6.783
24871WAT     H174855   7.790   3.047   6.795
24871WAT     H274856   7.728   2.940   6.689
24872WAT      O74857   9.807   4.351   4.067
24872WAT     H174858   9.828   4.261   4.029
24872WAT     H274859   9.708   4.364   4.068
24873WAT      O74860   3.042   1.467   6.416
24873WAT     H174861   2.947   1.500   6.417
24873WAT     H274862   3.090   1.502   6.496
24874WAT      O74863   6.720   4.123   5.011
24874WAT     H174864   6.680   4.206   4.972
24874WAT     H274865   6.818   4.122   4.991
24875WAT      O74866   9.709   6.415   5.832
24875WAT     H174867   9.802   6.440   5.805
24875WAT     H274868   9.668   6.359   5.761
24876WAT      O74869   5.545   0.593   4.969
24876WAT     H174870   5.570   0.656   5.043
24876WAT     H274871   5.503   0.511   5.007
24877WAT      O74872   6.870   5.603   7.759
24877WAT     H174873   6.925   5.557   7.690
24877WAT     H274874   6.924   5.618   7.842
24878WAT      O74875   4.340   7.479   3.706
24878WAT     H174876   4.292   7.493   3.793
24878WAT     H274877   4.291   7.528   3.634
24879WAT      O74878   6.314   2.264   2.178
24879WAT     H174879   6.297   2.338   2.113
24879WAT     H274880   6.307   2.176   2.131
24880WAT      O74881   0.725   4.362   1.276
24880WAT     H174882   0.661   4.403   1.211
24880WAT     H274883   0.819   4.386   1.250
24881WAT      O74884   7.956   0.736   0.272
24881WAT     H174885   7.928   0.759   0.365
24881WAT     H274886   7.910   0.653   0.242
24882WAT      O74887   6.877   8.978   6.030
24882WAT     H174888   6.913   9.068   6.003
24882WAT     H274889   6.887   8.967   6.129
24883WAT      O74890   0.220   0.916   7.338
24883WAT     H174891   0.137   0.972   7.330
24883WAT     H274892   0.300   0.976   7.339
24884WAT      O74893   7.798   0.606   3.172
24884WAT     H174894   7.885   0.582   3.216
24884WAT     H274895   7.812   0.681   3.108
24885WAT      O74896   0.061   6.040   2.983
24885WAT     H174897   0.072   5.943   3.006
24885WAT     H274898  -0.023   6.052   2.929
24886WAT      O74899   2.903   7.560   3.947
24886WAT     H174900   2.885   7.491   4.016
24886WAT     H274901   2.909   7.650   3.990
24887WAT      O74902   7.153   5.002   4.885
24887WAT     H174903   7.234   5.030   4.832
24887WAT     H274904   7.170   4.912   4.925
24888WAT      O74905   7.379   7.867   1.363
24888WAT     H174906   7.294   7.906   1.399
24888WAT     H274907   7.423   7.934   1.302
24889WAT      O74908   6.723   9.049   5.388
24889WAT     H174909   6.728   9.127   5.450
24889WAT     H274910   6.806   8.994   5.396
24890WAT      O74911   7.013   8.792   5.090
24890WAT     H174912   7.040   8.839   5.174
24890WAT     H274913   6.946   8.847   5.040
24891WAT      O74914   6.586   6.485   6.149
24891WAT     H174915   6.494   6.455   6.127
24891WAT     H274916   6.587   6.524   6.241
24892WAT      O74917   7.432   7.041   4.575
24892WAT     H174918   7.501   7.064   4.644
24892WAT     H274919   7.346   7.086   4.597
24893WAT      O74920   5.251   3.888   9.059
24893WAT     H174921   5.342   3.887   9.017
24893WAT     H274922   5.254   3.939   9.145
24894WAT      O74923   8.427   8.749   3.838
24894WAT     H174924   8.456   8.844   3.828
24894WAT     H274925   8.329   8.745   3.856
24895WAT      O74926   4.424   8.161   9.720
24895WAT     H174927   4.349   8.179   9.784
24895WAT     H274928   4.511   8.189   9.760
24896WAT      O74929   0.735   6.963   1.665
24896WAT     H174930   0.742   6.873   1.622
24896WAT     H274931   0.728   6.952   1.764
24897WAT      O74932   0.151   9.573   7.994
24897WAT     H174933   0.248   9.563   8.018
24897WAT     H274934   0.108   9.640   8.054
24898WAT      O74935   1.033   6.635   2.151
24898WAT     H174936   0.961   6.693   2.191
24898WAT     H274937   1.094   6.692   2.096
24899WAT      O74938   8.499   7.043   3.953
24899WAT     H174939   8.442   6.963   3.976
24899WAT     H274940   8.457   7.126   3.989
24900WAT      O74941   3.797   7.102   2.376
24900WAT     H174942   3.835   7.078   2.465
24900WAT     H274943   3.862   7.162   2.328
24901WAT      O74944   0.669   3.635   2.521
24901WAT     H174945   0.717   3.689   2.590
24901WAT     H274946   0.570   3.653   2.528
24902WAT      O74947   1.402   6.054   4.570
24902WAT     H174948   1.391   6.042   4.669
24902WAT     H274949   1.461   6.132   4.553
24903WAT      O74950   6.562   3.358   0.013
24903WAT     H174951   6.616   3.288  -0.033
24903WAT     H274952   6.466   3.351  -0.016
24904WAT      O74953   8.383   8.006   7.972
24904WAT     H174954   8.285   8.003   7.954
24904WAT     H274955   8.430   7.945   7.908
24905WAT      O74956   6.169   8.650   7.674
24905WAT     H174957   6.098   8.642   7.744
24905WAT     H274958   6.204   8.744   7.673
24906WAT      O74959   3.858   1.563   3.444
24906WAT     H174960   3.924   1.529   3.378
24906WAT     H274961   3.891   1.648   3.485
24907WAT      O74962   8.485   2.823   5.788
24907WAT     H174963   8.513   2.914   5.757
24907WAT     H274964   8.563   2.760   5.780
24908WAT      O74965   5.228   3.256   6.866
24908WAT     H174966   5.247   3.265   6.768
24908WAT     H274967   5.252   3.164   6.897
24909WAT      O74968   6.686   1.852   1.779
24909WAT     H174969   6.784   1.870   1.783
24909WAT     H274970   6.666   1.794   1.699
24910WAT      O74971   6.721   9.259   1.031
24910WAT     H174972   6.624   9.238   1.043
24910WAT     H274973   6.732   9.334   0.967
24911WAT      O74974   7.446   6.487   2.377
24911WAT     H174975   7.384   6.494   2.456
24911WAT     H274976   7.515   6.559   2.383
24912WAT      O74977   0.936   8.249   3.787
24912WAT     H174978   1.020   8.263   3.840
24912WAT     H274979   0.917   8.151   3.781
24913WAT      O74980   3.280   1.377   8.737
24913WAT     H174981   3.243   1.465   8.706
24913WAT     H274982   3.378   1.374   8.720
24914WAT      O74983   5.724   9.745   9.850
24914WAT     H174984   5.778   9.713   9.772
24914WAT     H274985   5.700   9.667   9.908
24915WAT      O74986   8.856   1.333   2.647
24915WAT     H174987   8.766   1.373   2.666
24915WAT     H274988   8.926   1.388   2.692
24916WAT      O74989   7.450   0.210   4.542
24916WAT     H174990   7.357   0.216   4.506
24916WAT     H274991   7.477   0.114   4.550
24917WAT      O74992   2.851   1.124   5.174
24917WAT     H174993   2.947   1.101   5.157
24917WAT     H274994   2.845   1.196   5.242
24918WAT      O74995   6.925   1.121   9.438
24918WAT     H174996   6.972   1.095   9.353
24918WAT     H274997   6.924   1.044   9.501
24919WAT      O74998   4.380   9.086   1.188
24919WAT     H174999   4.305   9.119   1.130
24919WAT     H275000   4.458   9.148   1.181
24920WAT      O75001   4.500   0.752   6.758
24920WAT     H175002   4.511   0.722   6.853
24920WAT     H275003   4.410   0.722   6.725
24921WAT      O75004   2.961   9.069   2.709
24921WAT     H175005   2.939   9.007   2.783
24921WAT     H275006   3.040   9.126   2.735
24922WAT      O75007   9.682   8.433   7.251
24922WAT     H175008   9.775   8.467   7.261
24922WAT     H275009   9.618   8.509   7.260
24923WAT      O75010   7.245   1.343   6.058
24923WAT     H175011   7.230   1.277   5.985
24923WAT     H275012   7.157   1.371   6.096
24924WAT      O75013   9.806   8.082   4.720
24924WAT     H175014   9.796   8.070   4.818
24924WAT     H275015   9.834   7.995   4.678
24925WAT      O75016   3.626   9.612   1.255
24925WAT     H175017   3.574   9.691   1.224
24925WAT     H275018   3.723   9.634   1.258
24926WAT      O75019   7.744   4.390   3.103
24926WAT     H175020   7.741   4.297   3.065
24926WAT     H275021   7.839   4.418   3.113
24927WAT      O75022   7.351   1.106   0.866
24927WAT     H175023   7.371   1.044   0.790
24927WAT     H275024   7.375   1.062   0.952
24928WAT      O75025   4.520   2.859   5.966
24928WAT     H175026   4.515   2.803   6.049
24928WAT     H275027   4.439   2.843   5.910
24929WAT      O75028   2.751   0.079   5.312
24929WAT     H175029   2.735   0.059   5.215
24929WAT     H275030   2.846   0.107   5.324
24930WAT      O75031   0.680   2.836   6.529
24930WAT     H175032   0.733   2.751   6.528
24930WAT     H275033   0.701   2.889   6.447
24931WAT      O75034   4.810   2.438   1.571
24931WAT     H175035   4.854   2.349   1.556
24931WAT     H275036   4.880   2.507   1.588
24932WAT      O75037   5.841   9.455   0.944
24932WAT     H175038   5.759   9.424   0.992
24932WAT     H275039   5.893   9.517   1.004
24933WAT      O75040   7.575   6.894   0.884
24933WAT     H175041   7.629   6.962   0.834
24933WAT     H275042   7.636   6.834   0.935
24934WAT      O75043   5.912   6.022   2.540
24934WAT     H175044   5.978   5.949   2.522
24934WAT     H275045   5.940   6.073   2.622
24935WAT      O75046   7.530   5.344   5.142
24935WAT     H175047   7.606   5.398   5.179
24935WAT     H275048   7.552   5.246   5.150
24936WAT      O75049   3.262   4.281   0.407
24936WAT     H175050   3.252   4.286   0.507
24936WAT     H275051   3.275   4.186   0.380
24937WAT      O75052   9.594   7.466   4.306
24937WAT     H175053   9.652   7.527   4.251
24937WAT     H275054   9.594   7.497   4.401
24938WAT      O75055   1.396   5.571   1.703
24938WAT     H175056   1.409   5.650   1.763
24938WAT     H275057   1.342   5.501   1.750
24939WAT      O75058   7.550   2.966   4.481
24939WAT     H175059   7.626   2.929   4.428
24939WAT     H275060   7.580   3.048   4.529
24940WAT      O75061   2.365   2.855   5.659
24940WAT     H175062   2.383   2.930   5.597
24940WAT     H275063   2.436   2.851   5.729
24941WAT      O75064   5.999   0.171   5.696
24941WAT     H175065   6.036   0.156   5.787
24941WAT     H275066   6.074   0.186   5.631
24942WAT      O75067   1.915   2.794   2.620
24942WAT     H175068   1.892   2.888   2.647
24942WAT     H275069   2.014   2.780   2.629
24943WAT      O75070   1.443   2.062   5.232
24943WAT     H175071   1.476   2.152   5.260
24943WAT     H275072   1.501   2.025   5.159
24944WAT      O75073   2.599   1.524   9.884
24944WAT     H175074   2.501   1.541   9.889
24944WAT     H275075   2.630   1.479   9.968
24945WAT      O75076   4.952   7.406   2.449
24945WAT     H175077   4.962   7.352   2.365
24945WAT     H275078   4.952   7.345   2.528
24946WAT      O75079   2.810   2.780   0.885
24946WAT     H175080   2.839   2.803   0.792
24946WAT     H275081   2.868   2.828   0.951
24947WAT      O75082   7.190   6.462   0.305
24947WAT     H175083   7.122   6.451   0.233
24947WAT     H275084   7.148   6.445   0.394
24948WAT      O75085   6.950   6.620   6.535
24948WAT     H175086   7.012   6.566   6.592
24948WAT     H275087   6.856   6.595   6.556
24949WAT      O75088   8.611   6.785   3.745
24949WAT     H175089   8.516   6.767   3.722
24949WAT     H275090   8.621   6.881   3.772
24950WAT      O75091   0.629  -0.002   5.589
24950WAT     H175092   0.531  -0.010   5.568
24950WAT     H275093   0.659   0.091   5.569
24951WAT      O75094   8.804   8.972   9.724
24951WAT     H175095   8.815   9.053   9.781
24951WAT     H275096   8.878   8.907   9.743
24952WAT      O75097   2.082   6.436   6.552
24952WAT     H175098   2.098   6.490   6.469
24952WAT     H275099   1.987   6.447   6.581
24953WAT      O75100   4.692   2.919   6.215
24953WAT     H175101   4.705   2.996   6.152
24953WAT     H275102   4.767   2.917   6.281
24954WAT      O75103   6.982   0.411   3.610
24954WAT     H175104   6.945   0.456   3.692
24954WAT     H275105   7.038   0.332   3.637
24955WAT      O75106   8.824   1.933   8.826
24955WAT     H175107   8.830   1.941   8.926
24955WAT     H275108   8.915   1.918   8.788
24956WAT      O75109   7.488   1.495   6.825
24956WAT     H175110   7.501   1.484   6.924
24956WAT     H275111   7.408   1.553   6.808
24957WAT      O75112   4.773   8.529   2.670
24957WAT     H175113   4.790   8.462   2.742
24957WAT     H275114   4.757   8.619   2.711
24958WAT      O75115   3.091   8.130   4.345
24958WAT     H175116   3.006   8.154   4.298
24958WAT     H275117   3.143   8.213   4.364
24959WAT      O75118   5.587   5.540   9.170
24959WAT     H175119   5.669   5.543   9.227
24959WAT     H275120   5.539   5.627   9.175
24960WAT      O75121   4.996   9.835   6.339
24960WAT     H175122   4.998   9.790   6.250
24960WAT     H275123   4.913   9.809   6.388
24961WAT      O75124   6.916   5.435   2.087
24961WAT     H175125   6.956   5.505   2.027
24961WAT     H275126   6.819   5.424   2.064
24962WAT      O75127   8.754   9.277   7.760
24962WAT     H175128   8.821   9.202   7.756
24962WAT     H275129   8.730   9.304   7.667
24963WAT      O75130   5.416   4.175   2.225
24963WAT     H175131   5.371   4.159   2.138
24963WAT     H275132   5.350   4.164   2.299
24964WAT      O75133   6.312   4.992   0.380
24964WAT     H175134   6.292   4.927   0.307
24964WAT     H275135   6.405   4.976   0.414
24965WAT      O75136   8.346   8.657   7.566
24965WAT     H175137   8.280   8.679   7.638
24965WAT     H275138   8.438   8.676   7.598
24966WAT      O75139   0.582   4.498   5.970
24966WAT     H175140   0.513   4.496   6.041
24966WAT     H275141   0.554   4.439   5.894
24967WAT      O75142   3.852   8.043   8.886
24967WAT     H175143   3.779   8.111   8.878
24967WAT     H275144   3.935   8.079   8.845
24968WAT      O75145   8.497   2.631   5.332
24968WAT     H175146   8.467   2.690   5.407
24968WAT     H275147   8.446   2.653   5.249
24969WAT      O75148   5.868   5.858   2.021
24969WAT     H175149   5.866   5.943   1.969
24969WAT     H275150   5.963   5.828   2.032
24970WAT      O75151   5.720   6.956   4.026
24970WAT     H175152   5.641   6.947   4.086
24970WAT     H275153   5.804   6.946   4.079
24971WAT      O75154   1.567   3.591   5.532
24971WAT     H175155   1.543   3.590   5.435
24971WAT     H275156   1.624   3.512   5.553
24972WAT      O75157   6.652   3.515   8.956
24972WAT     H175158   6.738   3.559   8.982
24972WAT     H275159   6.580   3.585   8.950
24973WAT      O75160   5.040   3.579   3.789
24973WAT     H175161   5.032   3.518   3.868
24973WAT     H275162   5.127   3.628   3.794
24974WAT      O75163   1.352   2.816   2.119
24974WAT     H175164   1.372   2.907   2.082
24974WAT     H275165   1.418   2.795   2.191
24975WAT      O75166   0.141   1.315   3.891
24975WAT     H175167   0.204   1.285   3.962
24975WAT     H275168   0.147   1.414   3.881
24976WAT      O75169   9.071   5.183   0.635
24976WAT     H175170   8.990   5.165   0.692
24976WAT     H275171   9.041   5.215   0.545
24977WAT      O75172   9.568   1.385   8.065
24977WAT     H175173   9.557   1.294   8.025
24977WAT     H275174   9.654   1.425   8.034
24978WAT      O75175   9.755   6.795   6.051
24978WAT     H175176   9.804   6.810   5.965
24978WAT     H275177   9.796   6.718   6.100
24979WAT      O75178   3.226   7.211   2.793
24979WAT     H175179   3.281   7.192   2.712
24979WAT     H275180   3.172   7.129   2.816
24980WAT      O75181   7.738   0.901   0.986
24980WAT     H175182   7.812   0.885   1.051
24980WAT     H275183   7.653   0.864   1.023
24981WAT      O75184   5.870   3.511   0.335
24981WAT     H175185   5.802   3.438   0.324
24981WAT     H275186   5.947   3.493   0.274
24982WAT      O75187   1.447   5.956   4.226
24982WAT     H175188   1.355   5.993   4.213
24982WAT     H275189   1.483   5.986   4.314
24983WAT      O75190   4.107   6.693   9.284
24983WAT     H175191   4.105   6.771   9.222
24983WAT     H275192   4.114   6.609   9.231
24984WAT      O75193   5.490   7.221   7.131
24984WAT     H175194   5.516   7.200   7.037
24984WAT     H275195   5.568   7.207   7.192
24985WAT      O75196   7.460   7.006   8.549
24985WAT     H175197   7.427   7.066   8.621
24985WAT     H275198   7.389   6.994   8.480
24986WAT      O75199   0.297   8.409   5.315
24986WAT     H175200   0.322   8.502   5.342
24986WAT     H275201   0.285   8.405   5.216
24987WAT      O75202   8.432   4.271   8.423
24987WAT     H175203   8.419   4.221   8.509
24987WAT     H275204   8.394   4.218   8.348
24988WAT      O75205   4.852   9.646   8.827
24988WAT     H175206   4.773   9.606   8.780
24988WAT     H275207   4.820   9.719   8.888
24989WAT      O75208   6.636   6.542   4.856
24989WAT     H175209   6.657   6.473   4.926
24989WAT     H275210   6.712   6.549   4.792
24990WAT      O75211   2.022   5.943   8.143
24990WAT     H175212   1.989   5.956   8.237
24990WAT     H275213   1.985   5.857   8.107
24991WAT      O75214   3.763   0.134   6.742
24991WAT     H175215   3.746   0.197   6.667
24991WAT     H275216   3.860   0.109   6.744
24992WAT      O75217   4.599   2.637   6.441
24992WAT     H175218   4.699   2.633   6.431
24992WAT     H275219   4.576   2.692   6.521
24993WAT      O75220   8.519   5.020   9.248
24993WAT     H175221   8.586   5.014   9.174
24993WAT     H275222   8.533   5.106   9.298
24994WAT      O75223   1.971   8.390   8.564
24994WAT     H175224   1.999   8.397   8.660
24994WAT     H275225   2.050   8.400   8.505
24995WAT      O75226   0.579   2.529   3.074
24995WAT     H175227   0.643   2.586   3.126
24995WAT     H275228   0.525   2.587   3.013
24996WAT      O75229   9.401   7.728   4.390
24996WAT     H175230   9.476   7.693   4.447
24996WAT     H275231   9.353   7.801   4.438
24997WAT      O75232   7.086   1.271   1.287
24997WAT     H175233   7.097   1.360   1.243
24997WAT     H275234   7.105   1.280   1.385
24998WAT      O75235   4.086   8.079   3.044
24998WAT     H175236   4.156   8.036   2.986
24998WAT     H275237   4.008   8.017   3.052
24999WAT      O75238   4.872   3.824   1.540
24999WAT     H175239   4.926   3.907   1.528
24999WAT     H275240   4.804   3.817   1.467
25000WAT      O75241   7.847   7.168   4.617
25000WAT     H175242   7.909   7.245   4.603
25000WAT     H275243   7.835   7.118   4.531
25001WAT      O75244   8.915   1.300   8.066
25001WAT     H175245   8.892   1.385   8.113
25001WAT     H275246   8.835   1.264   8.019
25002WAT      O75247   8.234   1.139   9.332
25002WAT     H175248   8.137   1.140   9.355
25002WAT     H275249   8.271   1.232   9.338
25003WAT      O75250   6.950   7.348   4.564
25003WAT     H175251   6.916   7.254   4.562
25003WAT     H275252   7.000   7.364   4.649
25004WAT      O75253   9.097   5.702   5.780
25004WAT     H175254   9.161   5.735   5.849
25004WAT     H275255   9.035   5.777   5.754
25005WAT      O75256   5.211   2.283   4.392
25005WAT     H175257   5.198   2.208   4.327
25005WAT     H275258   5.308   2.297   4.409
25006WAT      O75259   1.402   2.248   7.883
25006WAT     H175260   1.450   2.303   7.815
25006WAT     H275261   1.469   2.209   7.947
25007WAT      O75262   2.281   2.847   2.918
25007WAT     H175263   2.231   2.860   2.833
25007WAT     H275264   2.345   2.922   2.932
25008WAT      O75265   4.019   7.997   3.814
25008WAT     H175266   4.000   7.955   3.725
25008WAT     H275267   3.940   8.052   3.842
25009WAT      O75268   3.112   6.098   0.085
25009WAT     H175269   3.198   6.103   0.035
25009WAT     H275270   3.098   6.183   0.136
25010WAT      O75271   5.507   9.477   5.663
25010WAT     H175272   5.563   9.543   5.712
25010WAT     H275273   5.420   9.519   5.637
25011WAT      O75274   6.700   4.613   4.419
25011WAT     H175275   6.692   4.709   4.394
25011WAT     H275276   6.647   4.558   4.354
25012WAT      O75277   4.618   2.318   1.354
25012WAT     H175278   4.618   2.360   1.264
25012WAT     H275279   4.666   2.378   1.419
25013WAT      O75280   0.933   3.794   7.867
25013WAT     H175281   0.867   3.827   7.934
25013WAT     H275282   1.015   3.763   7.914
25014WAT      O75283   4.423   0.394   5.949
25014WAT     H175284   4.507   0.360   5.907
25014WAT     H275285   4.414   0.356   6.041
25015WAT      O75286   2.428   0.519   4.562
25015WAT     H175287   2.333   0.492   4.545
25015WAT     H275288   2.486   0.482   4.489
25016WAT      O75289   8.299   3.046   7.884
25016WAT     H175290   8.292   3.146   7.881
25016WAT     H275291   8.376   3.016   7.828
25017WAT      O75292   8.169   5.048   0.745
25017WAT     H175293   8.166   4.970   0.683
25017WAT     H275294   8.249   5.104   0.723
25018WAT      O75295   9.517   1.475   7.354
25018WAT     H175296   9.436   1.503   7.302
25018WAT     H275297   9.553   1.553   7.405
25019WAT      O75298   7.444   4.080   1.976
25019WAT     H175299   7.385   4.016   1.927
25019WAT     H275300   7.394   4.164   1.996
25020WAT      O75301   2.880   8.274   0.570
25020WAT     H175302   2.880   8.305   0.665
25020WAT     H275303   2.861   8.176   0.566
25021WAT      O75304   7.470   7.947   5.446
25021WAT     H175305   7.549   7.894   5.413
25021WAT     H275306   7.453   7.924   5.542
25022WAT      O75307   9.053   1.939   3.646
25022WAT     H175308   8.969   1.890   3.671
25022WAT     H275309   9.126   1.873   3.629
25023WAT      O75310   1.353   5.289   6.149
25023WAT     H175311   1.321   5.318   6.059
25023WAT     H275312   1.415   5.211   6.139
25024WAT      O75313   6.735   6.901   3.885
25024WAT     H175314   6.814   6.886   3.944
25024WAT     H275315   6.706   6.997   3.892
25025WAT      O75316   8.754   1.821   3.287
25025WAT     H175317   8.783   1.914   3.309
25025WAT     H275318   8.692   1.822   3.209
25026WAT      O75319   5.359   1.022   4.394
25026WAT     H175320   5.268   1.061   4.380
25026WAT     H275321   5.413   1.081   4.454
25027WAT      O75322   2.288   6.602   5.498
25027WAT     H175323   2.323   6.575   5.409
25027WAT     H275324   2.216   6.670   5.486
25028WAT      O75325   3.900   5.926   9.160
25028WAT     H175326   3.978   5.872   9.191
25028WAT     H275327   3.834   5.865   9.116
25029WAT      O75328   2.689   2.521   3.511
25029WAT     H175329   2.696   2.531   3.412
25029WAT     H275330   2.781   2.516   3.550
25030WAT      O75331   2.882   0.781   6.269
25030WAT     H175332   2.863   0.777   6.171
25030WAT     H275333   2.972   0.823   6.284
25031WAT      O75334   9.660   2.680   4.977
25031WAT     H175335   9.699   2.590   4.997
25031WAT     H275336   9.567   2.685   5.014
25032WAT      O75337   4.340   5.456   6.723
25032WAT     H175338   4.285   5.446   6.806
25032WAT     H275339   4.408   5.383   6.720
25033WAT      O75340   0.866   2.109   8.867
25033WAT     H175341   0.952   2.057   8.859
25033WAT     H275342   0.885   2.198   8.909
25034WAT      O75343   9.305   3.470   6.221
25034WAT     H175344   9.395   3.506   6.245
25034WAT     H275345   9.287   3.490   6.125
25035WAT      O75346   1.238   3.008   2.523
25035WAT     H175347   1.263   3.105   2.516
25035WAT     H275348   1.224   2.970   2.432
25036WAT      O75349   9.647   1.945   0.734
25036WAT     H175350   9.553   1.976   0.718
25036WAT     H275351   9.706   2.024   0.749
25037WAT      O75352   0.698   8.885   1.003
25037WAT     H175353   0.622   8.933   0.959
25037WAT     H275354   0.769   8.866   0.935
25038WAT      O75355   0.892   6.309   3.163
25038WAT     H175356   0.980   6.303   3.115
25038WAT     H275357   0.894   6.386   3.227
25039WAT      O75358   6.149   5.057   5.270
25039WAT     H175359   6.169   4.977   5.215
25039WAT     H275360   6.164   5.140   5.216
25040WAT      O75361   8.294   9.528   4.143
25040WAT     H175362   8.277   9.573   4.230
25040WAT     H275363   8.378   9.564   4.103
25041WAT      O75364   3.420   7.343   7.119
25041WAT     H175365   3.460   7.333   7.028
25041WAT     H275366   3.488   7.382   7.181
25042WAT      O75367   8.451   7.965   0.049
25042WAT     H175368   8.408   8.037   0.104
25042WAT     H275369   8.471   8.000  -0.043
25043WAT      O75370   3.934   0.917   2.792
25043WAT     H175371   3.911   0.833   2.841
25043WAT     H275372   3.946   0.896   2.695
25044WAT      O75373   9.839   6.284   0.817
25044WAT     H175374   9.892   6.300   0.900
25044WAT     H275375   9.742   6.280   0.840
25045WAT      O75376   7.464   7.103   0.506
25045WAT     H175377   7.541   7.164   0.523
25045WAT     H275378   7.382   7.138   0.551
25046WAT      O75379   0.440   5.784   9.478
25046WAT     H175380   0.414   5.832   9.562
25046WAT     H275381   0.510   5.836   9.430
25047WAT      O75382   3.233   4.968   7.589
25047WAT     H175383   3.231   5.057   7.543
25047WAT     H275384   3.326   4.950   7.623
25048WAT      O75385   2.223   7.378   6.493
25048WAT     H175386   2.273   7.322   6.427
25048WAT     H275387   2.285   7.407   6.566
25049WAT      O75388   9.490   2.087   0.425
25049WAT     H175389   9.569   2.147   0.417
25049WAT     H275390   9.463   2.080   0.522
25050WAT      O75391   3.796   6.717   2.596
25050WAT     H175392   3.798   6.663   2.511
25050WAT     H275393   3.839   6.806   2.579
25051WAT      O75394   6.335   3.711   1.533
25051WAT     H175395   6.274   3.682   1.606
25051WAT     H275396   6.361   3.807   1.547
25052WAT      O75397   1.173   8.308   8.310
25052WAT     H175398   1.166   8.394   8.259
25052WAT     H275399   1.267   8.293   8.339
25053WAT      O75400   6.271   8.204   6.595
25053WAT     H175401   6.260   8.288   6.648
25053WAT     H275402   6.195   8.195   6.531
25054WAT      O75403   6.630   6.212   4.808
25054WAT     H175404   6.595   6.122   4.834
25054WAT     H275405   6.600   6.235   4.715
25055WAT      O75406   2.193   4.857   7.989
25055WAT     H175407   2.204   4.902   8.078
25055WAT     H275408   2.251   4.776   7.985
25056WAT      O75409   7.221   4.058   0.099
25056WAT     H175410   7.145   4.034   0.159
25056WAT     H275411   7.209   4.151   0.066
25057WAT      O75412   3.250   1.067   2.494
25057WAT     H175413   3.187   1.009   2.545
25057WAT     H275414   3.335   1.017   2.478
25058WAT      O75415   2.761   6.047   6.925
25058WAT     H175416   2.703   6.121   6.891
25058WAT     H275417   2.854   6.081   6.939
25059WAT      O75418   4.038   8.311   7.742
25059WAT     H175419   4.067   8.241   7.807
25059WAT     H275420   3.938   8.317   7.742
25060WAT      O75421   9.095   9.601   3.309
25060WAT     H175422   9.004   9.638   3.293
25060WAT     H275423   9.163   9.673   3.295
25061WAT      O75424   3.432   1.307   2.472
25061WAT     H175425   3.456   1.399   2.501
25061WAT     H275426   3.364   1.268   2.535
25062WAT      O75427   7.901   2.531   6.929
25062WAT     H175428   7.926   2.500   6.837
25062WAT     H275429   7.850   2.617   6.923
25063WAT      O75430   2.822   0.467   8.178
25063WAT     H175431   2.749   0.458   8.110
25063WAT     H275432   2.853   0.562   8.182
25064WAT      O75433   2.535   5.177   4.345
25064WAT     H175434   2.500   5.267   4.320
25064WAT     H275435   2.612   5.187   4.408
25065WAT      O75436   6.084   2.279   1.072
25065WAT     H175437   6.032   2.203   1.112
25065WAT     H275438   6.182   2.257   1.073
25066WAT      O75439   8.004   5.492   6.117
25066WAT     H175440   8.074   5.548   6.161
25066WAT     H275441   8.025   5.395   6.131
25067WAT      O75442   5.072   2.167   3.265
25067WAT     H175443   5.075   2.242   3.331
25067WAT     H275444   4.979   2.157   3.231
25068WAT      O75445   7.763   1.649   1.822
25068WAT     H175446   7.840   1.591   1.849
25068WAT     H275447   7.790   1.745   1.830
25069WAT      O75448   3.152   5.119   1.069
25069WAT     H175449   3.134   5.150   0.976
25069WAT     H275450   3.159   5.198   1.130
25070WAT      O75451   5.506   9.569   3.183
25070WAT     H175452   5.432   9.540   3.122
25070WAT     H275453   5.484   9.659   3.221
25071WAT      O75454   1.167   1.831   6.254
25071WAT     H175455   1.109   1.833   6.336
25071WAT     H275456   1.111   1.848   6.173
25072WAT      O75457   3.674   1.230   0.198
25072WAT     H175458   3.704   1.307   0.253
25072WAT     H275459   3.662   1.150   0.257
25073WAT      O75460   7.818   7.522   0.187
25073WAT     H175461   7.833   7.423   0.187
25073WAT     H275462   7.830   7.558   0.095
25074WAT      O75463   0.469   9.497   1.063
25074WAT     H175464   0.546   9.521   1.003
25074WAT     H275465   0.504   9.452   1.145
25075WAT      O75466   4.154   6.559   4.817
25075WAT     H175467   4.186   6.509   4.898
25075WAT     H275468   4.232   6.584   4.760
25076WAT      O75469   7.634   7.549   7.140
25076WAT     H175470   7.592   7.501   7.217
25076WAT     H275471   7.663   7.640   7.170
25077WAT      O75472   7.155   9.286   5.790
25077WAT     H175473   7.092   9.316   5.718
25077WAT     H275474   7.242   9.260   5.748
25078WAT      O75475   4.436   3.981   2.815
25078WAT     H175476   4.504   3.913   2.841
25078WAT     H275477   4.349   3.935   2.796
25079WAT      O75478   1.505   3.866   1.521
25079WAT     H175479   1.554   3.825   1.599
25079WAT     H275480   1.570   3.917   1.465
25080WAT      O75481   2.213   7.125   8.211
25080WAT     H175482   2.193   7.203   8.152
25080WAT     H275483   2.274   7.062   8.163
25081WAT      O75484   3.020   2.731   7.700
25081WAT     H175485   2.968   2.648   7.683
25081WAT     H275486   3.062   2.762   7.614
25082WAT      O75487   3.788   7.318   3.672
25082WAT     H175488   3.777   7.231   3.623
25082WAT     H275489   3.752   7.392   3.616
25083WAT      O75490   4.578   8.225   0.711
25083WAT     H175491   4.676   8.218   0.732
25083WAT     H275492   4.525   8.208   0.793
25084WAT      O75493   5.029   5.127   2.374
25084WAT     H175494   5.045   5.057   2.443
25084WAT     H275495   5.113   5.180   2.360
25085WAT      O75496   0.433   7.763   4.088
25085WAT     H175497   0.521   7.751   4.042
25085WAT     H275498   0.368   7.807   4.027
25086WAT      O75499   7.681   1.752   1.089
25086WAT     H175500   7.713   1.841   1.057
25086WAT     H275501   7.726   1.679   1.037
25087WAT      O75502   1.622   4.522   8.895
25087WAT     H175503   1.691   4.529   8.823
25087WAT     H275504   1.648   4.451   8.960
25088WAT      O75505   1.477   8.568   1.646
25088WAT     H175506   1.537   8.492   1.671
25088WAT     H275507   1.468   8.631   1.724
25089WAT      O75508   3.883   3.449   9.238
25089WAT     H175509   3.791   3.419   9.264
25089WAT     H275510   3.888   3.457   9.138
25090WAT      O75511   1.029   3.333   6.773
25090WAT     H175512   0.972   3.394   6.827
25090WAT     H275513   1.100   3.386   6.726
25091WAT      O75514   7.533   1.432   4.765
25091WAT     H175515   7.481   1.506   4.723
25091WAT     H275516   7.475   1.381   4.828
25092WAT      O75517   9.590   8.697   6.981
25092WAT     H175518   9.654   8.633   6.939
25092WAT     H275519   9.578   8.674   7.077
25093WAT      O75520   1.004   5.557   2.988
25093WAT     H175521   0.904   5.552   2.976
25093WAT     H275522   1.028   5.524   3.079
25094WAT      O75523   0.116   4.493   7.883
25094WAT     H175524   0.070   4.581   7.895
25094WAT     H275525   0.079   4.427   7.948
25095WAT      O75526   9.000   1.699   3.208
25095WAT     H175527   8.924   1.756   3.238
25095WAT     H275528   8.969   1.604   3.199
25096WAT      O75529   1.730   5.832   8.009
25096WAT     H175530   1.664   5.854   7.937
25096WAT     H275531   1.696   5.868   8.096
25097WAT      O75532   8.709   7.526   1.495
25097WAT     H175533   8.742   7.439   1.459
25097WAT     H275534   8.644   7.510   1.568
25098WAT      O75535   2.066   4.874   4.695
25098WAT     H175536   2.151   4.833   4.728
25098WAT     H275537   2.044   4.837   4.604
25099WAT      O75538   6.929   0.370   7.193
25099WAT     H175539   6.918   0.426   7.110
25099WAT     H275540   6.988   0.418   7.257
25100WAT      O75541   6.614   2.477   3.751
25100WAT     H175542   6.584   2.572   3.756
25100WAT     H275543   6.578   2.435   3.667
25101WAT      O75544   3.804   2.582   4.149
25101WAT     H175545   3.745   2.654   4.184
25101WAT     H275546   3.899   2.613   4.148
25102WAT      O75547   8.190   8.876   4.613
25102WAT     H175548   8.280   8.837   4.633
25102WAT     H275549   8.168   8.861   4.517
25103WAT      O75550   9.462   5.778   1.585
25103WAT     H175551   9.418   5.862   1.553
25103WAT     H275552   9.500   5.793   1.676
25104WAT      O75553   0.586   3.310   3.479
25104WAT     H175554   0.585   3.224   3.429
25104WAT     H275555   0.519   3.306   3.554
25105WAT      O75556   3.641   0.217   1.474
25105WAT     H175557   3.692   0.143   1.430
25105WAT     H275558   3.655   0.301   1.423
25106WAT      O75559   2.877   8.588   4.225
25106WAT     H175560   2.820   8.633   4.293
25106WAT     H275561   2.972   8.583   4.258
25107WAT      O75562   9.820   9.109   9.293
25107WAT     H175563   9.892   9.110   9.224
25107WAT     H275564   9.861   9.116   9.384
25108WAT      O75565   1.814   8.024   8.517
25108WAT     H175566   1.907   7.988   8.522
25108WAT     H275567   1.768   8.008   8.604
25109WAT      O75568   0.598   7.901   2.142
25109WAT     H175569   0.569   7.907   2.046
25109WAT     H275570   0.693   7.871   2.145
25110WAT      O75571   6.899   1.968   9.128
25110WAT     H175572   6.944   1.990   9.042
25110WAT     H275573   6.800   1.967   9.115
25111WAT      O75574   7.847   0.987   1.784
25111WAT     H175575   7.814   0.939   1.702
25111WAT     H275576   7.863   0.921   1.857
25112WAT      O75577   5.628   4.585   0.021
25112WAT     H175578   5.547   4.543   0.061
25112WAT     H275579   5.682   4.515  -0.026
25113WAT      O75580   3.469   7.930   7.629
25113WAT     H175581   3.560   7.966   7.651
25113WAT     H275582   3.455   7.843   7.676
25114WAT      O75583   2.833   5.605   7.784
25114WAT     H175584   2.782   5.567   7.861
25114WAT     H275585   2.769   5.644   7.718
25115WAT      O75586   3.774   9.327   5.777
25115WAT     H175587   3.747   9.239   5.738
25115WAT     H275588   3.701   9.394   5.762
25116WAT      O75589   5.435   9.513   9.715
25116WAT     H175590   5.449   9.583   9.645
25116WAT     H275591   5.428   9.557   9.805
25117WAT      O75592   0.232   4.039   7.018
25117WAT     H175593   0.153   3.977   7.015
25117WAT     H275594   0.276   4.033   7.107
25118WAT      O75595   3.434   2.961   4.623
25118WAT     H175596   3.371   2.908   4.566
25118WAT     H275597   3.522   2.970   4.576
25119WAT      O75598   9.493   4.352   9.868
25119WAT     H175599   9.420   4.419   9.880
25119WAT     H275600   9.519   4.314   9.957
25120WAT      O75601   7.919   1.699   7.439
25120WAT     H175602   8.000   1.641   7.432
25120WAT     H275603   7.849   1.666   7.375
25121WAT      O75604   7.447   4.119   1.142
25121WAT     H175605   7.428   4.183   1.067
25121WAT     H275606   7.496   4.167   1.215
25122WAT      O75607   4.753   9.033   0.446
25122WAT     H175608   4.774   9.130   0.450
25122WAT     H275609   4.654   9.020   0.431
25123WAT      O75610   1.664   8.577   2.868
25123WAT     H175611   1.696   8.482   2.864
25123WAT     H275612   1.566   8.579   2.884
25124WAT      O75613   0.930   2.665   1.109
25124WAT     H175614   0.931   2.643   1.011
25124WAT     H275615   1.019   2.702   1.135
25125WAT      O75616   1.653   0.093   1.652
25125WAT     H175617   1.568   0.065   1.608
25125WAT     H275618   1.730   0.069   1.593
25126WAT      O75619   4.634   9.545   9.663
25126WAT     H175620   4.561   9.613   9.664
25126WAT     H275621   4.654   9.519   9.569
25127WAT      O75622   6.043   8.278   0.749
25127WAT     H175623   6.044   8.371   0.785
25127WAT     H275624   6.081   8.277   0.656
25128WAT      O75625   5.142   6.999   7.548
25128WAT     H175626   5.142   6.956   7.638
25128WAT     H275627   5.227   7.050   7.535
25129WAT      O75628   3.806   8.743   3.444
25129WAT     H175629   3.790   8.811   3.515
25129WAT     H275630   3.804   8.787   3.354
25130WAT      O75631   6.532   1.987   2.964
25130WAT     H175632   6.501   2.073   2.926
25130WAT     H275633   6.602   2.004   3.034
25131WAT      O75634   9.287   1.578   0.826
25131WAT     H175635   9.201   1.546   0.787
25131WAT     H275636   9.363   1.527   0.786
25132WAT      O75637   6.013   0.409   7.655
25132WAT     H175638   6.106   0.377   7.637
25132WAT     H275639   5.994   0.491   7.601
25133WAT      O75640   4.434   6.180   5.069
25133WAT     H175641   4.505   6.142   5.009
25133WAT     H275642   4.477   6.221   5.150
25134WAT      O75643   9.562   7.813   5.717
25134WAT     H175644   9.613   7.879   5.663
25134WAT     H275645   9.597   7.813   5.811
25135WAT      O75646   2.185   2.041   0.391
25135WAT     H175647   2.250   2.078   0.324
25135WAT     H275648   2.151   2.116   0.448
25136WAT      O75649   3.259   6.820   0.652
25136WAT     H175650   3.263   6.800   0.554
25136WAT     H275651   3.348   6.852   0.684
25137WAT      O75652   4.552   7.975   5.234
25137WAT     H175653   4.507   7.928   5.310
25137WAT     H275654   4.548   8.074   5.250
25138WAT      O75655   6.548   4.691   4.881
25138WAT     H175656   6.484   4.682   4.957
25138WAT     H275657   6.586   4.783   4.879
25139WAT      O75658   3.473   0.818   1.510
25139WAT     H175659   3.497   0.752   1.439
25139WAT     H275660   3.557   0.859   1.546
25140WAT      O75661   2.879   8.453   8.819
25140WAT     H175662   2.972   8.416   8.811
25140WAT     H275663   2.813   8.379   8.813
25141WAT      O75664   3.833   0.871   8.868
25141WAT     H175665   3.774   0.952   8.868
25141WAT     H275666   3.801   0.807   8.938
25142WAT      O75667   3.880   8.812   5.575
25142WAT     H175668   3.800   8.761   5.608
25142WAT     H275669   3.911   8.875   5.646
25143WAT      O75670   5.887   3.931   2.098
25143WAT     H175671   5.855   3.838   2.078
25143WAT     H275672   5.943   3.964   2.023
25144WAT      O75673   5.814   4.313   7.428
25144WAT     H175674   5.748   4.376   7.387
25144WAT     H275675   5.767   4.247   7.486
25145WAT      O75676   7.747   5.308   0.987
25145WAT     H175677   7.793   5.225   1.016
25145WAT     H275678   7.800   5.352   0.914
25146WAT      O75679   1.011   2.099   7.386
25146WAT     H175680   1.026   2.009   7.426
25146WAT     H275681   1.052   2.169   7.444
25147WAT      O75682   0.085   8.439   6.419
25147WAT     H175683   0.113   8.416   6.326
25147WAT     H275684  -0.007   8.478   6.417
25148WAT      O75685   1.009   8.473   2.902
25148WAT     H175686   0.979   8.568   2.910
25148WAT     H275687   0.998   8.443   2.807
25149WAT      O75688   0.521   4.623   2.699
25149WAT     H175689   0.600   4.651   2.754
25149WAT     H275690   0.552   4.592   2.609
25150WAT      O75691   4.715   0.892   1.138
25150WAT     H175692   4.767   0.852   1.062
25150WAT     H275693   4.667   0.974   1.107
25151WAT      O75694   9.734   2.032   5.111
25151WAT     H175695   9.790   1.960   5.150
25151WAT     H275696   9.639   2.001   5.107
25152WAT      O75697   6.851   9.675   4.125
25152WAT     H175698   6.767   9.688   4.178
25152WAT     H275699   6.847   9.586   4.079
25153WAT      O75700   8.529   1.463   4.268
25153WAT     H175701   8.502   1.463   4.172
25153WAT     H275702   8.629   1.453   4.274
25154WAT      O75703   5.194   3.561   3.399
25154WAT     H175704   5.232   3.547   3.308
25154WAT     H275705   5.182   3.472   3.444
25155WAT      O75706   3.433   1.570   8.958
25155WAT     H175707   3.378   1.627   9.019
25155WAT     H275708   3.452   1.482   9.002
25156WAT      O75709   3.620   1.459   4.316
25156WAT     H175710   3.678   1.537   4.292
25156WAT     H275711   3.638   1.383   4.253
25157WAT      O75712   4.472   7.006   3.064
25157WAT     H175713   4.469   6.942   2.987
25157WAT     H275714   4.445   7.097   3.032
25158WAT      O75715   8.226   2.364   1.224
25158WAT     H175716   8.130   2.340   1.241
25158WAT     H275717   8.278   2.281   1.203
25159WAT      O75718   5.702   8.706   4.049
25159WAT     H175719   5.728   8.800   4.024
25159WAT     H275720   5.725   8.689   4.145
25160WAT      O75721   2.189   6.592   1.139
25160WAT     H175722   2.168   6.653   1.062
25160WAT     H275723   2.266   6.630   1.190
25161WAT      O75724   8.436   2.533   7.486
25161WAT     H175725   8.345   2.516   7.449
25161WAT     H275726   8.459   2.630   7.474
25162WAT      O75727   3.576   5.820   0.152
25162WAT     H175728   3.529   5.761   0.086
25162WAT     H275729   3.583   5.773   0.240
25163WAT      O75730   1.298   1.439   5.143
25163WAT     H175731   1.313   1.344   5.173
25163WAT     H275732   1.305   1.500   5.221
25164WAT      O75733   0.438   4.950   4.237
25164WAT     H175734   0.403   5.037   4.271
25164WAT     H275735   0.448   4.886   4.314
25165WAT      O75736   2.463   0.948   9.027
25165WAT     H175737   2.419   0.957   9.117
25165WAT     H275738   2.457   0.852   8.997
25166WAT      O75739   8.930   5.973   2.484
25166WAT     H175740   8.983   5.888   2.481
25166WAT     H275741   8.873   5.974   2.566
25167WAT      O75742   4.390   1.977   6.124
25167WAT     H175743   4.396   1.883   6.090
25167WAT     H275744   4.415   1.979   6.221
25168WAT      O75745   5.939   5.863   9.548
25168WAT     H175746   5.992   5.834   9.628
25168WAT     H275747   5.995   5.924   9.491
25169WAT      O75748   8.300   5.218   9.039
25169WAT     H175749   8.355   5.224   8.956
25169WAT     H275750   8.283   5.122   9.061
25170WAT      O75751   7.573   8.698   1.676
25170WAT     H175752   7.474   8.692   1.691
25170WAT     H275753   7.591   8.725   1.581
25171WAT      O75754   4.339   3.360   3.858
25171WAT     H175755   4.364   3.263   3.857
25171WAT     H275756   4.242   3.369   3.835
25172WAT      O75757   5.435   4.777   2.453
25172WAT     H175758   5.447   4.853   2.516
25172WAT     H275759   5.422   4.812   2.360
25173WAT      O75760   7.948   3.219   1.275
25173WAT     H175761   8.042   3.194   1.254
25173WAT     H275762   7.914   3.161   1.350
25174WAT      O75763   0.796   7.756   9.389
25174WAT     H175764   0.837   7.786   9.303
25174WAT     H275765   0.854   7.785   9.465
25175WAT      O75766   8.547   1.554   0.212
25175WAT     H175767   8.448   1.555   0.229
25175WAT     H275768   8.583   1.463   0.234
25176WAT      O75769   7.659   9.581   8.049
25176WAT     H175770   7.635   9.673   8.017
25176WAT     H275771   7.610   9.513   7.994
25177WAT      O75772   2.107   3.182   5.735
25177WAT     H175773   2.188   3.159   5.788
25177WAT     H275774   2.026   3.143   5.780
25178WAT      O75775   8.175   3.276   4.559
25178WAT     H175776   8.081   3.308   4.565
25178WAT     H275777   8.198   3.259   4.463
25179WAT      O75778   4.566   2.716   9.077
25179WAT     H175779   4.561   2.738   8.979
25179WAT     H275780   4.485   2.752   9.123
25180WAT      O75781   9.254   9.429   2.486
25180WAT     H175782   9.177   9.454   2.545
25180WAT     H275783   9.326   9.498   2.494
25181WAT      O75784   4.968   0.686   6.468
25181WAT     H175785   5.018   0.769   6.493
25181WAT     H275786   4.881   0.684   6.516
25182WAT      O75787   1.729   4.993   7.044
25182WAT     H175788   1.730   4.964   7.139
25182WAT     H275789   1.800   4.944   6.993
25183WAT      O75790   9.152   0.253   5.985
25183WAT     H175791   9.247   0.232   6.007
25183WAT     H275792   9.148   0.334   5.926
25184WAT      O75793   3.139   0.464   3.388
25184WAT     H175794   3.199   0.390   3.357
25184WAT     H275795   3.195   0.536   3.429
25185WAT      O75796   4.307   8.513   6.091
25185WAT     H175797   4.360   8.432   6.120
25185WAT     H275798   4.213   8.486   6.072
25186WAT      O75799   7.316   7.480   7.540
25186WAT     H175800   7.271   7.546   7.479
25186WAT     H275801   7.249   7.417   7.577
25187WAT      O75802   3.593   5.578   1.187
25187WAT     H175803   3.594   5.498   1.248
25187WAT     H275804   3.687   5.599   1.160
25188WAT      O75805   3.099   1.715   9.412
25188WAT     H175806   3.011   1.669   9.398
25188WAT     H275807   3.124   1.764   9.328
25189WAT      O75808   8.627   9.653   5.067
25189WAT     H175809   8.656   9.557   5.070
25189WAT     H275810   8.683   9.706   5.130
25190WAT      O75811   6.564   5.665   8.494
25190WAT     H175812   6.545   5.720   8.412
25190WAT     H275813   6.605   5.578   8.467
25191WAT      O75814   9.249   6.381   6.891
25191WAT     H175815   9.286   6.307   6.834
25191WAT     H275816   9.207   6.450   6.832
25192WAT      O75817   1.886   4.868   6.852
25192WAT     H175818   1.845   4.795   6.798
25192WAT     H275819   1.975   4.840   6.885
25193WAT      O75820   3.168   8.363   9.372
25193WAT     H175821   3.236   8.414   9.425
25193WAT     H275822   3.174   8.390   9.276
25194WAT      O75823   9.394   2.259   1.504
25194WAT     H175824   9.449   2.318   1.443
25194WAT     H275825   9.377   2.308   1.590
25195WAT      O75826   1.312   2.902   8.934
25195WAT     H175827   1.307   3.001   8.953
25195WAT     H275828   1.322   2.853   9.020
25196WAT      O75829   2.931   1.864   7.116
25196WAT     H175830   2.845   1.912   7.097
25196WAT     H275831   2.938   1.784   7.056
25197WAT      O75832   1.036   7.463   1.244
25197WAT     H175833   1.111   7.504   1.192
25197WAT     H275834   1.069   7.433   1.333
25198WAT      O75835   6.398   2.286   1.759
25198WAT     H175836   6.478   2.249   1.805
25198WAT     H275837   6.320   2.225   1.772
25199WAT      O75838   6.115   9.173   1.770
25199WAT     H175839   6.121   9.082   1.811
25199WAT     H275840   6.184   9.233   1.812
25200WAT      O75841   3.850   3.466   8.434
25200WAT     H175842   3.926   3.408   8.404
25200WAT     H275843   3.768   3.444   8.382
25201WAT      O75844   3.689   9.034   2.631
25201WAT     H175845   3.703   9.006   2.725
25201WAT     H275846   3.602   8.997   2.598
25202WAT      O75847   5.979   3.100   7.848
25202WAT     H175848   6.019   3.009   7.833
25202WAT     H275849   5.883   3.090   7.873
25203WAT      O75850   3.171   6.961   1.803
25203WAT     H175851   3.082   6.948   1.848
25203WAT     H275852   3.221   6.874   1.803
25204WAT      O75853   0.876   4.268   2.178
25204WAT     H175854   0.822   4.335   2.128
25204WAT     H275855   0.971   4.300   2.185
25205WAT      O75856   6.753   4.673   5.647
25205WAT     H175857   6.731   4.709   5.556
25205WAT     H275858   6.712   4.582   5.658
25206WAT      O75859   4.646   8.004   1.055
25206WAT     H175860   4.608   8.067   0.987
25206WAT     H275861   4.635   8.042   1.146
25207WAT      O75862   8.162   2.988   1.909
25207WAT     H175863   8.085   2.942   1.953
25207WAT     H275864   8.246   2.967   1.958
25208WAT      O75865   4.887   9.163   8.697
25208WAT     H175866   4.920   9.216   8.619
25208WAT     H275867   4.804   9.114   8.671
25209WAT      O75868   8.590   4.413   2.938
25209WAT     H175869   8.514   4.407   3.002
25209WAT     H275870   8.571   4.357   2.858
25210WAT      O75871   6.108   5.746   2.016
25210WAT     H175872   6.168   5.807   2.066
25210WAT     H275873   6.163   5.687   1.957
25211WAT      O75874   9.681   1.782   0.482
25211WAT     H175875   9.733   1.706   0.519
25211WAT     H275876   9.640   1.834   0.556
25212WAT      O75877   3.485   3.208   6.138
25212WAT     H175878   3.526   3.152   6.067
25212WAT     H275879   3.542   3.288   6.154
25213WAT      O75880   1.712   2.344   6.013
25213WAT     H175881   1.685   2.422   6.069
25213WAT     H275882   1.697   2.366   5.917
25214WAT      O75883   5.598   8.098   1.186
25214WAT     H175884   5.625   8.051   1.102
25214WAT     H275885   5.680   8.132   1.232
25215WAT      O75886   3.256   3.222   0.853
25215WAT     H175887   3.323   3.164   0.899
25215WAT     H275888   3.198   3.166   0.793
25216WAT      O75889   3.615   4.773   6.951
25216WAT     H175890   3.657   4.803   6.866
25216WAT     H275891   3.658   4.819   7.028
25217WAT      O75892   6.848   6.944   8.854
25217WAT     H175893   6.776   6.946   8.784
25217WAT     H275894   6.808   6.970   8.943
25218WAT      O75895   3.324   6.990   3.161
25218WAT     H175896   3.290   7.081   3.136
25218WAT     H275897   3.304   6.973   3.257
25219WAT      O75898   8.524   4.680   7.252
25219WAT     H175899   8.545   4.711   7.345
25219WAT     H275900   8.591   4.612   7.223
25220WAT      O75901   7.403   1.560   7.962
25220WAT     H175902   7.500   1.533   7.960
25220WAT     H275903   7.395   1.655   7.991
25221WAT      O75904   3.392   2.134   6.299
25221WAT     H175905   3.490   2.152   6.299
25221WAT     H275906   3.372   2.058   6.236
25222WAT      O75907   8.210   1.944   3.132
25222WAT     H175908   8.196   1.894   3.047
25222WAT     H275909   8.301   1.985   3.132
25223WAT      O75910   5.617   3.449   6.590
25223WAT     H175911   5.704   3.498   6.588
25223WAT     H275912   5.623   3.373   6.654
25224WAT      O75913   7.932   7.301   5.618
25224WAT     H175914   7.973   7.365   5.683
25224WAT     H275915   7.840   7.333   5.595
25225WAT      O75916   6.577   9.552   7.259
25225WAT     H175917   6.614   9.577   7.170
25225WAT     H275918   6.638   9.585   7.331
25226WAT      O75919   6.931   2.150   5.885
25226WAT     H175920   6.917   2.091   5.964
25226WAT     H275921   6.885   2.111   5.805
25227WAT      O75922   1.242   1.810   1.894
25227WAT     H175923   1.336   1.782   1.872
25227WAT     H275924   1.189   1.818   1.809
25228WAT      O75925   7.510   8.906   2.269
25228WAT     H175926   7.610   8.911   2.267
25228WAT     H275927   7.472   8.998   2.263
25229WAT      O75928   2.719   8.363   8.330
25229WAT     H175929   2.710   8.334   8.235
25229WAT     H275930   2.654   8.312   8.387
25230WAT      O75931   4.251   8.846   1.919
25230WAT     H175932   4.302   8.801   1.992
25230WAT     H275933   4.299   8.929   1.891
25231WAT      O75934   1.408   0.666   7.442
25231WAT     H175935   1.340   0.708   7.501
25231WAT     H275936   1.403   0.567   7.450
25232WAT      O75937   7.037   8.392   6.198
25232WAT     H175938   6.969   8.320   6.185
25232WAT     H275939   7.105   8.363   6.265
25233WAT      O75940   1.631   9.351   2.746
25233WAT     H175941   1.705   9.301   2.792
25233WAT     H275942   1.638   9.336   2.647
25234WAT      O75943   6.581   5.675   3.171
25234WAT     H175944   6.582   5.603   3.240
25234WAT     H275945   6.626   5.642   3.087
25235WAT      O75946   3.677   5.027   9.468
25235WAT     H175947   3.645   5.063   9.380
25235WAT     H275948   3.742   5.092   9.508
25236WAT      O75949   3.360   3.169   8.302
25236WAT     H175950   3.418   3.244   8.334
25236WAT     H275951   3.297   3.141   8.374
25237WAT      O75952   4.001   0.534   9.219
25237WAT     H175953   4.016   0.528   9.318
25237WAT     H275954   4.088   0.556   9.174
25238WAT      O75955   7.014   8.243   8.914
25238WAT     H175956   7.081   8.316   8.923
25238WAT     H275957   6.980   8.217   9.004
25239WAT      O75958   8.276   8.604   2.023
25239WAT     H175959   8.269   8.608   1.923
25239WAT     H275960   8.230   8.684   2.062
25240WAT      O75961   0.041   6.352   4.720
25240WAT     H175962   0.130   6.307   4.715
25240WAT     H275963   0.039   6.412   4.800
25241WAT      O75964   3.499   8.635   1.116
25241WAT     H175965   3.423   8.609   1.174
25241WAT     H275966   3.466   8.649   1.022
25242WAT      O75967   9.533   7.252   0.929
25242WAT     H175968   9.619   7.215   0.894
25242WAT     H275969   9.474   7.279   0.852
25243WAT      O75970   1.865   6.619   8.866
25243WAT     H175971   1.855   6.547   8.935
25243WAT     H275972   1.952   6.608   8.818
25244WAT      O75973   8.956   8.352   7.298
25244WAT     H175974   8.959   8.294   7.216
25244WAT     H275975   8.939   8.447   7.270
25245WAT      O75976   9.078   5.633   3.161
25245WAT     H175977   9.134   5.552   3.177
25245WAT     H275978   8.990   5.606   3.121
25246WAT      O75979   6.765   9.650   3.525
25246WAT     H175980   6.693   9.704   3.480
25246WAT     H275981   6.855   9.683   3.495
25247WAT      O75982   6.646   2.816   2.174
25247WAT     H175983   6.650   2.800   2.075
25247WAT     H275984   6.586   2.894   2.192
25248WAT      O75985   7.984   2.121   5.029
25248WAT     H175986   7.884   2.110   5.030
25248WAT     H275987   8.011   2.185   5.101
25249WAT      O75988   1.119   0.328   3.570
25249WAT     H175989   1.128   0.301   3.475
25249WAT     H275990   1.087   0.423   3.575
25250WAT      O75991   4.868   4.116   1.750
25250WAT     H175992   4.837   4.132   1.656
25250WAT     H275993   4.838   4.025   1.779
25251WAT      O75994   9.677   7.068   1.699
25251WAT     H175995   9.755   7.094   1.755
25251WAT     H275996   9.679   7.120   1.613
25252WAT      O75997   3.701   1.885   0.528
25252WAT     H175998   3.666   1.909   0.618
25252WAT     H275999   3.658   1.942   0.458
25253WAT      O76000   3.662   9.038   6.452
25253WAT     H176001   3.602   9.024   6.374
25253WAT     H276002   3.622   9.107   6.513
25254WAT      O76003   2.135   4.068   2.404
25254WAT     H176004   2.089   4.101   2.487
25254WAT     H276005   2.233   4.057   2.423
25255WAT      O76006   7.994   4.439   2.022
25255WAT     H176007   7.930   4.517   2.028
25255WAT     H276008   7.969   4.371   2.090
25256WAT      O76009   3.601   8.597   7.061
25256WAT     H176010   3.556   8.681   7.033
25256WAT     H276011   3.607   8.594   7.161
25257WAT      O76012   3.531   6.889   3.024
25257WAT     H176013   3.533   6.951   2.946
25257WAT     H276014   3.443   6.900   3.072
25258WAT      O76015   7.528   5.567   7.224
25258WAT     H176016   7.475   5.583   7.141
25258WAT     H276017   7.622   5.597   7.210
25259WAT      O76018   7.961   2.838   2.014
25259WAT     H176019   7.892   2.904   2.044
25259WAT     H276020   7.919   2.748   2.004
25260WAT      O76021   6.867   0.001   7.055
25260WAT     H176022   6.960   0.034   7.073
25260WAT     H276023   6.832   0.046   6.973
25261WAT      O76024   6.704   5.219   9.722
25261WAT     H176025   6.681   5.315   9.736
25261WAT     H276026   6.735   5.179   9.809
25262WAT      O76027   1.254   3.194   1.703
25262WAT     H176028   1.168   3.172   1.748
25262WAT     H276029   1.286   3.284   1.733
25263WAT      O76030   2.480   0.496   5.052
25263WAT     H176031   2.545   0.538   4.989
25263WAT     H276032   2.448   0.566   5.117
25264WAT      O76033   4.646   4.997   2.410
25264WAT     H176034   4.602   4.930   2.351
25264WAT     H276035   4.703   4.951   2.478
25265WAT      O76036   0.843   6.414   6.913
25265WAT     H176037   0.797   6.444   6.829
25265WAT     H276038   0.846   6.314   6.915
25266WAT      O76039   4.269   4.934   8.607
25266WAT     H176040   4.352   4.959   8.658
25266WAT     H276041   4.261   4.992   8.526
25267WAT      O76042   9.583   4.473   9.104
25267WAT     H176043   9.487   4.496   9.091
25267WAT     H276044   9.592   4.409   9.181
25268WAT      O76045   0.585   3.825   7.119
25268WAT     H176046   0.576   3.735   7.077
25268WAT     H276047   0.633   3.817   7.206
25269WAT      O76048   9.712   4.216   0.518
25269WAT     H176049   9.738   4.145   0.585
25269WAT     H276050   9.624   4.256   0.545
25270WAT      O76051   3.266   6.075   5.507
25270WAT     H176052   3.332   6.057   5.433
25270WAT     H276053   3.314   6.079   5.594
25271WAT      O76054   0.979   7.118   6.066
25271WAT     H176055   0.925   7.033   6.067
25271WAT     H276056   0.959   7.170   6.149
25272WAT      O76057   0.315   3.103   9.714
25272WAT     H176058   0.357   3.171   9.654
25272WAT     H276059   0.314   3.014   9.668
25273WAT      O76060   5.289   9.561   3.777
25273WAT     H176061   5.200   9.561   3.823
25273WAT     H276062   5.279   9.602   3.686
25274WAT      O76063   7.851   5.230   8.198
25274WAT     H176064   7.917   5.270   8.262
25274WAT     H276065   7.787   5.300   8.168
25275WAT      O76066   6.970   7.533   3.501
25275WAT     H176067   7.033   7.567   3.431
25275WAT     H276068   6.969   7.433   3.499
25276WAT      O76069   9.537   3.345   5.632
25276WAT     H176070   9.477   3.389   5.565
25276WAT     H276071   9.596   3.415   5.674
25277WAT      O76072   7.472   9.532   6.896
25277WAT     H176073   7.521   9.452   6.930
25277WAT     H276074   7.406   9.563   6.964
25278WAT      O76075   1.566   1.120   8.751
25278WAT     H176076   1.526   1.190   8.692
25278WAT     H276077   1.660   1.145   8.773
25279WAT      O76078   5.379   7.916   0.880
25279WAT     H176079   5.425   7.830   0.858
25279WAT     H276080   5.280   7.902   0.884
25280WAT      O76081   7.513   6.738   3.415
25280WAT     H176082   7.489   6.643   3.397
25280WAT     H276083   7.604   6.757   3.378
25281WAT      O76084   0.914   8.942   7.914
25281WAT     H176085   0.938   9.040   7.916
25281WAT     H276086   0.815   8.933   7.903
25282WAT      O76087   6.544   1.265   3.647
25282WAT     H176088   6.492   1.215   3.716
25282WAT     H276089   6.510   1.243   3.556
25283WAT      O76090   1.088   4.622   4.010
25283WAT     H176091   1.178   4.602   3.973
25283WAT     H276092   1.061   4.548   4.073
25284WAT      O76093   3.556   6.326   0.316
25284WAT     H176094   3.655   6.318   0.305
25284WAT     H276095   3.524   6.259   0.383
25285WAT      O76096   3.924   8.090   4.875
25285WAT     H176097   3.952   8.119   4.783
25285WAT     H276098   3.982   8.135   4.943
25286WAT      O76099   4.671   6.820   8.699
25286WAT     H176100   4.763   6.840   8.733
25286WAT     H276101   4.629   6.904   8.665
25287WAT      O76102   8.108   5.296   1.461
25287WAT     H176103   8.141   5.380   1.416
25287WAT     H276104   8.162   5.280   1.544
25288WAT      O76105   6.420   2.082   9.761
25288WAT     H176106   6.393   1.996   9.717
25288WAT     H276107   6.392   2.159   9.704
25289WAT      O76108   2.956   1.330   3.929
25289WAT     H176109   2.960   1.369   3.837
25289WAT     H276110   2.892   1.383   3.985
25290WAT      O76111   4.603   1.460   2.179
25290WAT     H176112   4.626   1.471   2.082
25290WAT     H276113   4.623   1.366   2.207
25291WAT      O76114   5.679   7.152   8.245
25291WAT     H176115   5.764   7.201   8.266
25291WAT     H276116   5.616   7.213   8.197
25292WAT      O76117   8.109   9.385   0.815
25292WAT     H176118   8.111   9.285   0.804
25292WAT     H276119   8.082   9.407   0.909
25293WAT      O76120   3.862   7.538   0.660
25293WAT     H176121   3.764   7.525   0.675
25293WAT     H276122   3.886   7.633   0.680
25294WAT      O76123   7.412   5.761   9.055
25294WAT     H176124   7.509   5.769   9.031
25294WAT     H276125   7.363   5.840   9.021
25295WAT      O76126   4.528   3.026   1.130
25295WAT     H176127   4.480   3.114   1.133
25295WAT     H276128   4.467   2.954   1.164
25296WAT      O76129   4.910   5.727   7.520
25296WAT     H176130   4.969   5.784   7.577
25296WAT     H276131   4.950   5.720   7.428
25297WAT      O76132   7.581   0.167   0.309
25297WAT     H176133   7.495   0.125   0.280
25297WAT     H276134   7.568   0.216   0.395
25298WAT      O76135   2.257   4.287   2.617
25298WAT     H176136   2.327   4.244   2.673
25298WAT     H276137   2.168   4.244   2.636
25299WAT      O76138   3.297   8.686   4.137
25299WAT     H176139   3.228   8.684   4.065
25299WAT     H276140   3.323   8.781   4.156
25300WAT      O76141   3.133   5.852   5.468
25300WAT     H176142   3.149   5.843   5.369
25300WAT     H276143   3.179   5.934   5.502
25301WAT      O76144   9.476   5.987   6.883
25301WAT     H176145   9.437   6.068   6.837
25301WAT     H276146   9.572   6.005   6.905
25302WAT      O76147   3.765   3.524   1.463
25302WAT     H176148   3.785   3.592   1.392
25302WAT     H276149   3.850   3.499   1.509
25303WAT      O76150   9.362   3.886   4.635
25303WAT     H176151   9.428   3.961   4.645
25303WAT     H276152   9.382   3.834   4.552
25304WAT      O76153   0.300   3.401   7.732
25304WAT     H176154   0.278   3.464   7.657
25304WAT     H276155   0.365   3.333   7.700
25305WAT      O76156   9.679   7.307   7.633
25305WAT     H176157   9.608   7.252   7.590
25305WAT     H276158   9.706   7.265   7.720
25306WAT      O76159   3.980   7.980   5.489
25306WAT     H176160   4.042   8.052   5.519
25306WAT     H276161   4.030   7.913   5.434
25307WAT      O76162   3.056   4.153   9.750
25307WAT     H176163   3.133   4.215   9.738
25307WAT     H276164   2.971   4.202   9.736
25308WAT      O76165   4.029   8.943   8.237
25308WAT     H176166   4.105   8.930   8.173
25308WAT     H276167   4.064   8.944   8.331
25309WAT      O76168   6.063   8.687   1.638
25309WAT     H176169   6.072   8.777   1.595
25309WAT     H276170   6.011   8.695   1.723
25310WAT      O76171   5.963   5.403   0.883
25310WAT     H176172   5.942   5.458   0.802
25310WAT     H276173   6.021   5.326   0.855
25311WAT      O76174   4.672   6.732   4.078
25311WAT     H176175   4.717   6.753   3.991
25311WAT     H276176   4.663   6.632   4.088
25312WAT      O76177   1.923   2.851   5.484
25312WAT     H176178   1.994   2.908   5.444
25312WAT     H276179   1.888   2.787   5.415
25313WAT      O76180   2.927   0.106   6.478
25313WAT     H176181   3.012   0.079   6.523
25313WAT     H276182   2.853   0.109   6.545
25314WAT      O76183   0.863   1.752   1.652
25314WAT     H176184   0.844   1.676   1.590
25314WAT     H276185   0.865   1.719   1.746
25315WAT      O76186   2.259   9.780   8.688
25315WAT     H176187   2.320   9.701   8.693
25315WAT     H276188   2.184   9.761   8.625
25316WAT      O76189   9.187   1.668   8.103
25316WAT     H176190   9.170   1.636   8.196
25316WAT     H276191   9.268   1.622   8.067
25317WAT      O76192   1.573   9.601   8.455
25317WAT     H176193   1.476   9.578   8.447
25317WAT     H276194   1.589   9.645   8.543
25318WAT      O76195   8.566   8.720   0.404
25318WAT     H176196   8.517   8.642   0.442
25318WAT     H276197   8.558   8.719   0.304
25319WAT      O76198   0.525   0.225   1.494
25319WAT     H176199   0.519   0.133   1.456
25319WAT     H276200   0.613   0.237   1.540
25320WAT      O76201   0.837   4.547   5.928
25320WAT     H176202   0.897   4.588   5.997
25320WAT     H276203   0.748   4.527   5.969
25321WAT      O76204   2.814   2.672   9.728
25321WAT     H176205   2.908   2.706   9.726
25321WAT     H276206   2.751   2.750   9.734
25322WAT      O76207   6.677   3.617   0.966
25322WAT     H176208   6.706   3.585   0.876
25322WAT     H276209   6.597   3.566   0.996
25323WAT      O76210   6.514   2.403   9.354
25323WAT     H176211   6.614   2.401   9.344
25323WAT     H276212   6.473   2.422   9.265
25324WAT      O76213   5.512   3.054   1.672
25324WAT     H176214   5.452   3.114   1.619
25324WAT     H276215   5.482   2.959   1.663
25325WAT      O76216   7.978   3.804   2.719
25325WAT     H176217   8.009   3.711   2.737
25325WAT     H276218   7.900   3.801   2.656
25326WAT      O76219   0.307   6.775   0.678
25326WAT     H176220   0.224   6.723   0.700
25326WAT     H276221   0.384   6.739   0.731
25327WAT      O76222   5.657   8.421   7.837
25327WAT     H176223   5.696   8.330   7.852
25327WAT     H276224   5.568   8.412   7.793
25328WAT      O76225   9.840   6.623   5.526
25328WAT     H176226   9.843   6.642   5.428
25328WAT     H276227   9.751   6.652   5.562
25329WAT      O76228   5.364   0.766   1.956
25329WAT     H176229   5.386   0.734   2.048
25329WAT     H276230   5.393   0.861   1.946
25330WAT      O76231   7.557   6.566   0.224
25330WAT     H176232   7.497   6.639   0.192
25330WAT     H276233   7.502   6.491   0.261
25331WAT      O76234   2.986   4.155   4.417
25331WAT     H176235   2.903   4.180   4.367
25331WAT     H276236   3.066   4.187   4.367
25332WAT      O76237   7.783   6.601   0.661
25332WAT     H176238   7.775   6.505   0.633
25332WAT     H276239   7.742   6.660   0.591
25333WAT      O76240   1.281   2.832   6.367
25333WAT     H176241   1.340   2.830   6.286
25333WAT     H276242   1.333   2.808   6.448
25334WAT      O76243   9.747   8.811   5.377
25334WAT     H176244   9.746   8.900   5.423
25334WAT     H276245   9.663   8.799   5.325
25335WAT      O76246   4.979   8.126   8.475
25335WAT     H176247   4.928   8.208   8.449
25335WAT     H276248   5.059   8.116   8.416
25336WAT      O76249   5.046   1.741   5.094
25336WAT     H176250   4.974   1.728   5.026
25336WAT     H276251   5.010   1.793   5.171
25337WAT      O76252   8.870   8.364   2.477
25337WAT     H176253   8.785   8.356   2.529
25337WAT     H276254   8.942   8.312   2.523
25338WAT      O76255   8.089   7.422   8.757
25338WAT     H176256   8.138   7.507   8.737
25338WAT     H276257   7.991   7.435   8.741
25339WAT      O76258   2.998   0.040   4.663
25339WAT     H176259   2.908   0.071   4.633
25339WAT     H276260   2.988  -0.036   4.727
25340WAT      O76261   2.540   8.045   3.777
25340WAT     H176262   2.471   8.117   3.785
25340WAT     H276263   2.606   8.070   3.706
25341WAT      O76264   0.067   5.142   2.127
25341WAT     H176265   0.087   5.239   2.108
25341WAT     H276266  -0.018   5.117   2.081
25342WAT      O76267   2.711   3.219   6.507
25342WAT     H176268   2.619   3.205   6.544
25342WAT     H276269   2.720   3.168   6.422
25343WAT      O76270   1.170   8.584   9.269
25343WAT     H176271   1.078   8.612   9.242
25343WAT     H276272   1.188   8.492   9.236
25344WAT      O76273   7.832   9.771   6.148
25344WAT     H176274   7.923   9.777   6.188
25344WAT     H276275   7.766   9.816   6.208
25345WAT      O76276   1.494   5.602   7.168
25345WAT     H176277   1.481   5.503   7.165
25345WAT     H276278   1.527   5.628   7.259
25346WAT      O76279   5.505   7.499   4.210
25346WAT     H176280   5.484   7.403   4.227
25346WAT     H276281   5.421   7.553   4.219
25347WAT      O76282   9.167   6.470   3.780
25347WAT     H176283   9.099   6.398   3.792
25347WAT     H276284   9.223   6.450   3.699
25348WAT      O76285   3.118   8.676   3.946
25348WAT     H176286   3.091   8.590   3.902
25348WAT     H276287   3.038   8.734   3.958
25349WAT      O76288   3.258   2.271   3.342
25349WAT     H176289   3.270   2.182   3.298
25349WAT     H276290   3.339   2.327   3.328
25350WAT      O76291   8.882   2.348   6.748
25350WAT     H176292   8.842   2.299   6.825
25350WAT     H276293   8.864   2.297   6.664
25351WAT      O76294   6.508   1.735   8.508
25351WAT     H176295   6.424   1.784   8.487
25351WAT     H276296   6.494   1.676   8.587
25352WAT      O76297   7.548   7.789   4.369
25352WAT     H176298   7.625   7.738   4.407
25352WAT     H276299   7.468   7.730   4.363
25353WAT      O76300   1.686   9.274   7.834
25353WAT     H176301   1.612   9.317   7.782
25353WAT     H276302   1.712   9.334   7.910
25354WAT      O76303   7.204   8.425   2.075
25354WAT     H176304   7.286   8.369   2.062
25354WAT     H276305   7.123   8.367   2.076
25355WAT      O76306   3.495   8.219   9.736
25355WAT     H176307   3.416   8.279   9.744
25355WAT     H276308   3.545   8.217   9.823
25356WAT      O76309   7.518   9.048   8.372
25356WAT     H176310   7.466   9.103   8.307
25356WAT     H276311   7.538   8.958   8.332
25357WAT      O76312   7.348   0.908   0.196
25357WAT     H176313   7.433   0.913   0.248
25357WAT     H276314   7.293   0.989   0.213
25358WAT      O76315   9.679   7.558   9.839
25358WAT     H176316   9.623   7.487   9.881
25358WAT     H276317   9.765   7.568   9.890
25359WAT      O76318   1.865   8.021   7.251
25359WAT     H176319   1.828   8.039   7.342
25359WAT     H276320   1.848   8.100   7.192
25360WAT      O76321   8.016   0.071   5.118
25360WAT     H176322   7.977   0.081   5.209
25360WAT     H276323   7.962   0.005   5.065
25361WAT      O76324   5.309   3.006   5.715
25361WAT     H176325   5.378   3.045   5.777
25361WAT     H276326   5.354   2.970   5.633
25362WAT      O76327   5.115   6.650   7.345
25362WAT     H176328   5.056   6.651   7.426
25362WAT     H276329   5.184   6.722   7.353
25363WAT      O76330   0.451   2.624   7.489
25363WAT     H176331   0.384   2.679   7.539
25363WAT     H276332   0.412   2.534   7.469
25364WAT      O76333   4.010   6.939   7.794
25364WAT     H176334   4.040   7.014   7.852
25364WAT     H276335   4.063   6.939   7.709
25365WAT      O76336   0.093   2.220   3.777
25365WAT     H176337   0.048   2.271   3.850
25365WAT     H276338   0.123   2.131   3.812
25366WAT      O76339   3.588   5.586   8.128
25366WAT     H176340   3.568   5.681   8.105
25366WAT     H276341   3.647   5.583   8.209
25367WAT      O76342   8.449   0.364   2.606
25367WAT     H176343   8.417   0.389   2.697
25367WAT     H276344   8.516   0.290   2.614
25368WAT      O76345   5.523   6.821   3.469
25368WAT     H176346   5.602   6.805   3.528
25368WAT     H276347   5.548   6.883   3.395
25369WAT      O76348   3.240   2.845   5.939
25369WAT     H176349   3.226   2.935   5.979
25369WAT     H276350   3.200   2.775   5.999
25370WAT      O76351   1.186   6.121   4.240
25370WAT     H176352   1.142   6.136   4.329
25370WAT     H276353   1.128   6.062   4.184
25371WAT      O76354   1.826   9.541   6.144
25371WAT     H176355   1.783   9.453   6.121
25371WAT     H276356   1.880   9.573   6.067
25372WAT      O76357   6.153   4.038   8.360
25372WAT     H176358   6.139   3.970   8.287
25372WAT     H276359   6.172   4.127   8.319
25373WAT      O76360   1.724   0.459   0.823
25373WAT     H176361   1.682   0.544   0.855
25373WAT     H276362   1.813   0.479   0.782
25374WAT      O76363   0.360   8.188   2.185
25374WAT     H176364   0.352   8.107   2.242
25374WAT     H276365   0.436   8.245   2.217
25375WAT      O76366   8.705   3.752   4.822
25375WAT     H176367   8.715   3.721   4.727
25375WAT     H276368   8.617   3.721   4.858
25376WAT      O76369   9.067   5.252   8.988
25376WAT     H176370   9.167   5.247   8.995
25376WAT     H276371   9.037   5.215   8.901
25377WAT      O76372   7.904   4.036   4.997
25377WAT     H176373   7.963   3.957   4.984
25377WAT     H276374   7.865   4.063   4.909
25378WAT      O76375   2.365   8.465   0.449
25378WAT     H176376   2.362   8.440   0.352
25378WAT     H276377   2.443   8.421   0.493
25379WAT      O76378   1.150   8.457   0.713
25379WAT     H176379   1.239   8.466   0.669
25379WAT     H276380   1.104   8.546   0.713
25380WAT      O76381   9.057   9.272   4.265
25380WAT     H176382   9.118   9.195   4.286
25380WAT     H276383   9.043   9.277   4.166
25381WAT      O76384   4.672   5.158   2.057
25381WAT     H176385   4.625   5.235   2.014
25381WAT     H276386   4.634   5.072   2.022
25382WAT      O76387   6.497   6.243   2.767
25382WAT     H176388   6.407   6.289   2.770
25382WAT     H276389   6.523   6.227   2.672
25383WAT      O76390   8.971   2.534   4.518
25383WAT     H176391   8.952   2.624   4.478
25383WAT     H276392   9.065   2.531   4.551
25384WAT      O76393   7.749   0.314   8.821
25384WAT     H176394   7.808   0.366   8.760
25384WAT     H276395   7.654   0.322   8.790
25385WAT      O76396   0.739   4.183   3.157
25385WAT     H176397   0.780   4.131   3.232
25385WAT     H276398   0.653   4.141   3.130
25386WAT      O76399   1.444   2.885   0.455
25386WAT     H176400   1.395   2.963   0.492
25386WAT     H276401   1.458   2.816   0.526
25387WAT      O76402   1.589   7.066   2.478
25387WAT     H176403   1.489   7.064   2.471
25387WAT     H276404   1.616   7.084   2.572
25388WAT      O76405   7.721   8.148   8.003
25388WAT     H176406   7.813   8.185   7.987
25388WAT     H276407   7.720   8.098   8.089
25389WAT      O76408   2.575   0.566   2.550
25389WAT     H176409   2.594   0.478   2.507
25389WAT     H276410   2.656   0.598   2.599
25390WAT      O76411   9.794   4.593   3.018
25390WAT     H176412   9.762   4.560   3.107
25390WAT     H276413   9.802   4.517   2.954
25391WAT      O76414   4.492   9.265   7.251
25391WAT     H176415   4.456   9.200   7.185
25391WAT     H276416   4.431   9.270   7.330
25392WAT      O76417   4.215   0.358   3.290
25392WAT     H176418   4.162   0.278   3.261
25392WAT     H276419   4.246   0.345   3.385
25393WAT      O76420   4.616   5.929   2.636
25393WAT     H176421   4.518   5.912   2.642
25393WAT     H276422   4.660   5.855   2.584
25394WAT      O76423   1.102   4.089   0.528
25394WAT     H176424   1.097   4.053   0.435
25394WAT     H276425   1.045   4.034   0.589
25395WAT      O76426   3.630   9.169   1.860
25395WAT     H176427   3.701   9.099   1.867
25395WAT     H276428   3.552   9.143   1.916
25396WAT      O76429   0.787   5.543   6.152
25396WAT     H176430   0.758   5.528   6.247
25396WAT     H276431   0.732   5.486   6.091
25397WAT      O76432   3.998   5.699   8.521
25397WAT     H176433   3.989   5.685   8.619
25397WAT     H276434   4.091   5.676   8.492
25398WAT      O76435   5.241   7.164   9.147
25398WAT     H176436   5.168   7.232   9.146
25398WAT     H276437   5.329   7.208   9.126
25399WAT      O76438   9.213   2.931   7.411
25399WAT     H176439   9.283   2.984   7.363
25399WAT     H276440   9.232   2.931   7.509
25400WAT      O76441   5.186   0.981   8.763
25400WAT     H176442   5.256   1.032   8.713
25400WAT     H276443   5.229   0.905   8.811
25401WAT      O76444   7.309   6.569   9.363
25401WAT     H176445   7.360   6.530   9.287
25401WAT     H276446   7.329   6.667   9.369
25402WAT      O76447   4.720   2.317   7.521
25402WAT     H176448   4.664   2.329   7.603
25402WAT     H276449   4.760   2.225   7.521
25403WAT      O76450   7.274   8.159   5.671
25403WAT     H176451   7.222   8.186   5.752
25403WAT     H276452   7.328   8.077   5.691
25404WAT      O76453   2.677   0.001   2.061
25404WAT     H176454   2.615  -0.015   2.138
25404WAT     H276455   2.771   0.009   2.095
25405WAT      O76456   3.882   2.167   4.171
25405WAT     H176457   3.803   2.190   4.115
25405WAT     H276458   3.962   2.219   4.138
25406WAT      O76459   4.549   7.521   9.435
25406WAT     H176460   4.511   7.527   9.342
25406WAT     H276461   4.583   7.611   9.462
25407WAT      O76462   1.462   6.766   4.880
25407WAT     H176463   1.547   6.717   4.862
25407WAT     H276464   1.438   6.759   4.977
25408WAT      O76465   9.537   8.525   3.687
25408WAT     H176466   9.477   8.545   3.610
25408WAT     H276467   9.630   8.554   3.665
25409WAT      O76468   5.326   4.847   0.733
25409WAT     H176469   5.230   4.831   0.713
25409WAT     H276470   5.383   4.785   0.678
25410WAT      O76471   3.143   4.459   2.460
25410WAT     H176472   3.239   4.465   2.432
25410WAT     H276473   3.137   4.468   2.560
25411WAT      O76474   4.726   1.809   3.931
25411WAT     H176475   4.737   1.907   3.917
25411WAT     H276476   4.630   1.788   3.951
25412WAT      O76477   2.606   4.533   8.160
25412WAT     H176478   2.519   4.546   8.112
25412WAT     H276479   2.605   4.583   8.246
25413WAT      O76480   8.792   2.237   2.857
25413WAT     H176481   8.773   2.331   2.826
25413WAT     H276482   8.811   2.238   2.955
25414WAT      O76483   4.656   2.190   0.630
25414WAT     H176484   4.740   2.241   0.611
25414WAT     H276485   4.582   2.225   0.572
25415WAT      O76486   1.651   0.745   1.380
25415WAT     H176487   1.748   0.744   1.401
25415WAT     H276488   1.636   0.704   1.289
25416WAT      O76489   3.478   7.946   8.301
25416WAT     H176490   3.409   8.017   8.286
25416WAT     H276491   3.566   7.988   8.324
25417WAT      O76492   2.744   4.675   1.422
25417WAT     H176493   2.673   4.694   1.489
25417WAT     H276494   2.754   4.577   1.409
25418WAT      O76495   7.748   4.095   1.682
25418WAT     H176496   7.764   4.071   1.777
25418WAT     H276497   7.663   4.052   1.650
25419WAT      O76498   3.025   4.168   4.825
25419WAT     H176499   3.028   4.112   4.909
25419WAT     H276500   3.097   4.137   4.763
25420WAT      O76501   1.870   2.021   6.831
25420WAT     H176502   1.944   1.954   6.836
25420WAT     H276503   1.828   2.019   6.740
25421WAT      O76504   1.397   1.974   6.247
25421WAT     H176505   1.365   2.067   6.233
25421WAT     H276506   1.321   1.910   6.232
25422WAT      O76507   0.755   8.688   8.192
25422WAT     H176508   0.731   8.592   8.207
25422WAT     H276509   0.852   8.694   8.169
25423WAT      O76510   9.559   9.731   5.074
25423WAT     H176511   9.488   9.740   5.144
25423WAT     H276512   9.640   9.783   5.101
25424WAT      O76513   0.777   2.240   0.804
25424WAT     H176514   0.867   2.258   0.765
25424WAT     H276515   0.709   2.296   0.757
25425WAT      O76516   9.393   3.456   8.458
25425WAT     H176517   9.335   3.387   8.501
25425WAT     H276518   9.388   3.446   8.359
25426WAT      O76519   5.701   1.452   9.808
25426WAT     H176520   5.652   1.538   9.790
25426WAT     H276521   5.683   1.388   9.734
25427WAT      O76522   8.732   4.361   4.331
25427WAT     H176523   8.708   4.457   4.345
25427WAT     H276524   8.720   4.312   4.417
25428WAT      O76525   4.855   7.159   5.572
25428WAT     H176526   4.842   7.127   5.478
25428WAT     H276527   4.771   7.147   5.623
25429WAT      O76528   9.666   0.655   2.902
25429WAT     H176529   9.663   0.629   2.998
25429WAT     H276530   9.697   0.749   2.893
25430WAT      O76531   4.394   6.556   1.249
25430WAT     H176532   4.364   6.582   1.158
25430WAT     H276533   4.324   6.499   1.293
25431WAT      O76534   0.004   4.539   3.885
25431WAT     H176535  -0.002   4.514   3.789
25431WAT     H276536  -0.043   4.470   3.941
25432WAT      O76537   4.860   8.216   0.682
25432WAT     H176538   4.924   8.233   0.757
25432WAT     H276539   4.868   8.289   0.614
25433WAT      O76540   2.275   3.212   9.405
25433WAT     H176541   2.336   3.143   9.445
25433WAT     H276542   2.195   3.166   9.366
25434WAT      O76543   2.154   9.380   4.207
25434WAT     H176544   2.154   9.476   4.235
25434WAT     H276545   2.247   9.343   4.218
25435WAT      O76546   7.556   6.786   4.557
25435WAT     H176547   7.510   6.875   4.554
25435WAT     H276548   7.619   6.779   4.479
25436WAT      O76549   7.407   7.577   5.082
25436WAT     H176550   7.469   7.550   5.155
25436WAT     H276551   7.451   7.645   5.024
25437WAT      O76552   3.968   8.975   5.767
25437WAT     H176553   3.999   9.070   5.767
25437WAT     H276554   3.913   8.958   5.850
25438WAT      O76555   5.598   4.522   2.347
25438WAT     H176556   5.519   4.508   2.407
25438WAT     H276557   5.568   4.568   2.263
25439WAT      O76558   2.238   6.157   0.741
25439WAT     H176559   2.182   6.159   0.658
25439WAT     H276560   2.226   6.069   0.787
25440WAT      O76561   7.269   5.349   3.426
25440WAT     H176562   7.199   5.393   3.482
25440WAT     H276563   7.241   5.350   3.330
25441WAT      O76564   9.703   6.021   9.119
25441WAT     H176565   9.758   6.105   9.126
25441WAT     H276566   9.722   5.977   9.032
25442WAT      O76567   7.861   6.903   0.092
25442WAT     H176568   7.926   6.965   0.050
25442WAT     H276569   7.779   6.954   0.119
25443WAT      O76570   9.850   9.593   6.636
25443WAT     H176571   9.897   9.547   6.711
25443WAT     H276572   9.912   9.658   6.593
25444WAT      O76573   1.372   9.695   6.606
25444WAT     H176574   1.385   9.776   6.663
25444WAT     H276575   1.284   9.652   6.629
25445WAT      O76576   7.539   8.571   4.664
25445WAT     H176577   7.618   8.511   4.671
25445WAT     H276578   7.514   8.582   4.567
25446WAT      O76579   6.402   0.933   0.759
25446WAT     H176580   6.475   0.865   0.745
25446WAT     H276581   6.325   0.911   0.699
25447WAT      O76582   3.037   3.850   2.847
25447WAT     H176583   3.081   3.763   2.826
25447WAT     H276584   2.960   3.864   2.785
25448WAT      O76585   4.437   5.112   2.573
25448WAT     H176586   4.532   5.083   2.579
25448WAT     H276587   4.394   5.070   2.494
25449WAT      O76588   9.470   2.844   2.581
25449WAT     H176589   9.491   2.860   2.677
25449WAT     H276590   9.527   2.903   2.524
25450WAT      O76591   6.867   6.566   9.741
25450WAT     H176592   6.793   6.564   9.808
25450WAT     H276593   6.851   6.496   9.671
25451WAT      O76594   5.934   8.314   3.173
25451WAT     H176595   5.856   8.343   3.230
25451WAT     H276596   6.014   8.302   3.231
25452WAT      O76597   0.718   7.967   2.428
25452WAT     H176598   0.670   7.973   2.340
25452WAT     H276599   0.658   7.924   2.496
25453WAT      O76600   9.291   2.929   0.154
25453WAT     H176601   9.332   3.020   0.157
25453WAT     H276602   9.278   2.894   0.246
25454WAT      O76603   5.802   8.884   5.994
25454WAT     H176604   5.733   8.813   6.007
25454WAT     H276605   5.877   8.869   6.058
25455WAT      O76606   7.505   6.998   6.249
25455WAT     H176607   7.406   6.985   6.256
25455WAT     H276608   7.545   6.993   6.341
25456WAT      O76609   0.604   5.827   0.780
25456WAT     H176610   0.524   5.782   0.819
25456WAT     H276611   0.625   5.786   0.691
25457WAT      O76612   8.651   3.449   1.077
25457WAT     H176613   8.654   3.521   1.008
25457WAT     H276614   8.719   3.468   1.148
25458WAT      O76615   6.620   0.374   5.426
25458WAT     H176616   6.680   0.352   5.349
25458WAT     H276617   6.672   0.370   5.511
25459WAT      O76618   2.275   6.226   8.665
25459WAT     H176619   2.259   6.139   8.618
25459WAT     H276620   2.361   6.221   8.717
25460WAT      O76621   9.850   9.837   5.456
25460WAT     H176622   9.891   9.928   5.449
25460WAT     H276623   9.771   9.841   5.517
25461WAT      O76624   2.942   4.071   8.036
25461WAT     H176625   2.863   4.011   8.040
25461WAT     H276626   2.930   4.136   7.961
25462WAT      O76627   3.463   3.726   8.911
25462WAT     H176628   3.535   3.773   8.860
25462WAT     H276629   3.419   3.789   8.974
25463WAT      O76630   9.813   1.621   7.575
25463WAT     H176631   9.736   1.569   7.613
25463WAT     H276632   9.872   1.560   7.523
25464WAT      O76633   3.505   5.266   4.862
25464WAT     H176634   3.578   5.331   4.840
25464WAT     H276635   3.516   5.184   4.806
25465WAT      O76636   1.055   5.865   3.686
25465WAT     H176637   1.069   5.910   3.597
25465WAT     H276638   1.025   5.933   3.753
25466WAT      O76639   9.878   7.939   8.741
25466WAT     H176640   9.900   8.034   8.763
25466WAT     H276641   9.926   7.879   8.805
25467WAT      O76642   4.293   0.402   5.170
25467WAT     H176643   4.230   0.350   5.227
25467WAT     H276644   4.341   0.340   5.108
25468WAT      O76645   4.436   1.838   6.445
25468WAT     H176646   4.422   1.782   6.527
25468WAT     H276647   4.505   1.794   6.387
25469WAT      O76648   0.061   1.856   4.097
25469WAT     H176649   0.050   1.919   4.173
25469WAT     H276650  -0.011   1.786   4.101
25470WAT      O76651   8.069   0.331   7.678
25470WAT     H176652   8.057   0.412   7.736
25470WAT     H276653   8.156   0.286   7.702
25471WAT      O76654   8.568   1.533   8.810
25471WAT     H176655   8.499   1.462   8.829
25471WAT     H276656   8.648   1.491   8.767
25472WAT      O76657   4.536   8.405   0.503
25472WAT     H176658   4.446   8.440   0.476
25472WAT     H276659   4.532   8.370   0.596
25473WAT      O76660   4.093   1.535   4.387
25473WAT     H176661   4.096   1.500   4.293
25473WAT     H276662   4.035   1.617   4.389
25474WAT      O76663   6.086   4.318   3.111
25474WAT     H176664   5.991   4.295   3.089
25474WAT     H276665   6.107   4.410   3.076
25475WAT      O76666   4.731   6.405   7.762
25475WAT     H176667   4.719   6.307   7.776
25475WAT     H276668   4.650   6.454   7.793
25476WAT      O76669   6.825   7.135   5.167
25476WAT     H176670   6.831   7.215   5.226
25476WAT     H276671   6.755   7.073   5.203
25477WAT      O76672   1.535   1.542   8.922
25477WAT     H176673   1.618   1.579   8.881
25477WAT     H276674   1.557   1.456   8.969
25478WAT      O76675   1.190   9.368   8.434
25478WAT     H176676   1.097   9.374   8.399
25478WAT     H276677   1.251   9.336   8.362
25479WAT      O76678   0.006   6.986   7.922
25479WAT     H176679   0.049   7.039   7.849
25479WAT     H276680   0.059   6.995   8.006
25480WAT      O76681   5.226   6.586   0.949
25480WAT     H176682   5.306   6.557   0.895
25480WAT     H276683   5.193   6.673   0.915
25481WAT      O76684   3.285   5.084   5.868
25481WAT     H176685   3.312   4.993   5.897
25481WAT     H276686   3.227   5.078   5.787
25482WAT      O76687   0.022   8.359   3.138
25482WAT     H176688   0.022   8.457   3.159
25482WAT     H276689   0.116   8.325   3.140
25483WAT      O76690   6.066   6.627   0.411
25483WAT     H176691   6.103   6.548   0.461
25483WAT     H276692   6.064   6.607   0.313
25484WAT      O76693   1.092   5.804   3.052
25484WAT     H176694   1.068   5.719   3.005
25484WAT     H276695   1.025   5.875   3.028
25485WAT      O76696   6.583   3.497   1.899
25485WAT     H176697   6.510   3.554   1.938
25485WAT     H276698   6.546   3.442   1.824
25486WAT      O76699   8.271   7.589   0.782
25486WAT     H176700   8.223   7.623   0.701
25486WAT     H276701   8.288   7.665   0.845
25487WAT      O76702   0.947   0.734   9.772
25487WAT     H176703   0.924   0.831   9.764
25487WAT     H276704   0.882   0.688   9.832
25488WAT      O76705   6.789   5.969   2.635
25488WAT     H176706   6.721   5.996   2.703
25488WAT     H276707   6.805   6.045   2.572
25489WAT      O76708   0.929   6.245   4.813
25489WAT     H176709   0.842   6.289   4.833
25489WAT     H276710   0.916   6.146   4.811
25490WAT      O76711   4.625   3.756   8.584
25490WAT     H176712   4.612   3.662   8.613
25490WAT     H276713   4.544   3.787   8.535
25491WAT      O76714   7.059   9.312   8.410
25491WAT     H176715   7.099   9.314   8.318
25491WAT     H276716   6.964   9.343   8.405
25492WAT      O76717   0.125   9.355   4.637
25492WAT     H176718   0.198   9.296   4.673
25492WAT     H276719   0.147   9.450   4.657
25493WAT      O76720   8.210   0.706   3.046
25493WAT     H176721   8.281   0.653   3.001
25493WAT     H276722   8.121   0.661   3.032
25494WAT      O76723   4.449   4.177   9.665
25494WAT     H176724   4.530   4.119   9.672
25494WAT     H276725   4.380   4.131   9.609
25495WAT      O76726   4.971   9.493   6.416
25495WAT     H176727   4.967   9.397   6.387
25495WAT     H276728   4.944   9.552   6.340
25496WAT      O76729   7.225   8.877   8.369
25496WAT     H176730   7.235   8.782   8.341
25496WAT     H276731   7.302   8.930   8.334
25497WAT      O76732   5.008   5.865   5.228
25497WAT     H176733   4.974   5.935   5.165
25497WAT     H276734   4.971   5.776   5.202
25498WAT      O76735   1.157   3.061   8.242
25498WAT     H176736   1.094   3.138   8.226
25498WAT     H276737   1.110   2.990   8.295
25499WAT      O76738   8.666   1.707   7.570
25499WAT     H176739   8.573   1.700   7.604
25499WAT     H276740   8.730   1.683   7.643
25500WAT      O76741   1.060   7.903   5.569
25500WAT     H176742   1.115   7.842   5.513
25500WAT     H276743   1.120   7.967   5.617
25501WAT      O76744   4.593   6.455   0.994
25501WAT     H176745   4.662   6.525   0.978
25501WAT     H276746   4.502   6.497   0.994
25502WAT      O76747   6.484   0.620   2.877
25502WAT     H176748   6.450   0.696   2.932
25502WAT     H276749   6.533   0.655   2.797
25503WAT      O76750   3.466   6.006   1.014
25503WAT     H176751   3.522   6.042   0.940
25503WAT     H276752   3.371   6.033   1.000
25504WAT      O76753   0.031   7.192   6.228
25504WAT     H176754   0.055   7.266   6.293
25504WAT     H276755  -0.019   7.231   6.151
25505WAT      O76756   2.695   5.998   1.822
25505WAT     H176757   2.673   5.942   1.742
25505WAT     H276758   2.635   5.972   1.898
25506WAT      O76759   3.422   3.702   5.187
25506WAT     H176760   3.409   3.802   5.185
25506WAT     H276761   3.418   3.667   5.093
25507WAT      O76762   4.620   1.731   5.351
25507WAT     H176763   4.578   1.754   5.263
25507WAT     H276764   4.648   1.635   5.351
25508WAT      O76765   5.008   8.995   0.363
25508WAT     H176766   4.916   8.956   0.374
25508WAT     H276767   5.012   9.047   0.277
25509WAT      O76768   5.717   3.068   9.835
25509WAT     H176769   5.642   3.055   9.770
25509WAT     H276770   5.715   2.997   9.905
25510WAT      O76771   0.880   2.200   6.647
25510WAT     H176772   0.784   2.223   6.629
25510WAT     H276773   0.887   2.102   6.667
25511WAT      O76774   9.133   1.075   2.457
25511WAT     H176775   9.214   1.133   2.463
25511WAT     H276776   9.083   1.096   2.373
25512WAT      O76777   0.732   1.862   6.377
25512WAT     H176778   0.832   1.856   6.387
25512WAT     H276779   0.689   1.789   6.431
25513WAT      O76780   0.168   3.580   4.309
25513WAT     H176781   0.185   3.495   4.359
25513WAT     H276782   0.220   3.580   4.224
25514WAT      O76783   0.253   0.314   7.710
25514WAT     H176784   0.326   0.332   7.775
25514WAT     H276785   0.184   0.255   7.752
25515WAT      O76786   1.414   9.421   5.351
25515WAT     H176787   1.506   9.382   5.361
25515WAT     H276788   1.405   9.502   5.410
25516WAT      O76789   6.838   5.105   0.053
25516WAT     H176790   6.835   5.123   0.152
25516WAT     H276791   6.933   5.092   0.024
25517WAT      O76792   0.867   1.624   9.120
25517WAT     H176793   0.795   1.688   9.148
25517WAT     H276794   0.956   1.660   9.149
25518WAT      O76795  -0.003   6.722   2.601
25518WAT     H176796   0.011   6.820   2.606
25518WAT     H276797   0.078   6.674   2.635
25519WAT      O76798   2.173   1.633   1.696
25519WAT     H176799   2.195   1.571   1.771
25519WAT     H276800   2.178   1.728   1.728
25520WAT      O76801   7.367   9.747   5.381
25520WAT     H176802   7.307   9.826   5.370
25520WAT     H276803   7.428   9.740   5.302
25521WAT      O76804   2.726   9.412   6.024
25521WAT     H176805   2.632   9.394   5.993
25521WAT     H276806   2.723   9.462   6.111
25522WAT      O76807   3.656   4.011   4.911
25522WAT     H176808   3.658   4.079   4.837
25522WAT     H276809   3.747   4.001   4.949
25523WAT      O76810   0.440   5.363   4.969
25523WAT     H176811   0.438   5.273   4.925
25523WAT     H276812   0.355   5.412   4.949
25524WAT      O76813   4.787   3.448   0.341
25524WAT     H176814   4.879   3.486   0.333
25524WAT     H276815   4.744   3.484   0.424
25525WAT      O76816   9.321   0.810   5.231
25525WAT     H176817   9.363   0.723   5.256
25525WAT     H276818   9.330   0.874   5.307
25526WAT      O76819   7.722   2.287   1.030
25526WAT     H176820   7.771   2.374   1.034
25526WAT     H276821   7.657   2.282   1.106
25527WAT      O76822   1.856   4.921   3.394
25527WAT     H176823   1.926   4.863   3.350
25527WAT     H276824   1.841   5.002   3.338
25528WAT      O76825   6.050   0.503   8.272
25528WAT     H176826   6.092   0.442   8.204
25528WAT     H276827   5.993   0.570   8.224
25529WAT      O76828   0.391   9.454   7.996
25529WAT     H176829   0.465   9.489   8.054
25529WAT     H276830   0.427   9.431   7.906
25530WAT      O76831   5.348   5.503   2.311
25530WAT     H176832   5.284   5.510   2.234
25530WAT     H276833   5.435   5.465   2.280
25531WAT      O76834   6.823   6.386   0.939
25531WAT     H176835   6.793   6.311   0.999
25531WAT     H276836   6.900   6.433   0.981
25532WAT      O76837   2.531   5.090   7.535
25532WAT     H176838   2.585   5.105   7.618
25532WAT     H276839   2.447   5.041   7.557
25533WAT      O76840   8.779   3.899   9.291
25533WAT     H176841   8.715   3.901   9.368
25533WAT     H276842   8.871   3.920   9.322
25534WAT      O76843   0.797   0.422   4.652
25534WAT     H176844   0.885   0.399   4.612
25534WAT     H276845   0.809   0.443   4.749
25535WAT      O76846   7.451   7.862   0.766
25535WAT     H176847   7.500   7.819   0.842
25535WAT     H276848   7.495   7.949   0.742
25536WAT      O76849   6.958   5.610   4.085
25536WAT     H176850   6.942   5.707   4.066
25536WAT     H276851   7.055   5.594   4.097
25537WAT      O76852   5.894   4.823   5.574
25537WAT     H176853   5.936   4.791   5.489
25537WAT     H276854   5.802   4.784   5.583
25538WAT      O76855   7.828   7.821   7.636
25538WAT     H176856   7.773   7.876   7.698
25538WAT     H276857   7.778   7.739   7.610
25539WAT      O76858   8.348   1.103   4.629
25539WAT     H176859   8.408   1.183   4.632
25539WAT     H276860   8.288   1.104   4.709
25540WAT      O76861   3.551   2.072   7.277
25540WAT     H176862   3.497   2.040   7.354
25540WAT     H276863   3.581   1.993   7.222
25541WAT      O76864   9.294   2.386   8.750
25541WAT     H176865   9.239   2.335   8.684
25541WAT     H276866   9.244   2.394   8.836
25542WAT      O76867   6.801   2.799   7.142
25542WAT     H176868   6.820   2.897   7.136
25542WAT     H276869   6.838   2.753   7.062
25543WAT      O76870   2.689   6.472   8.540
25543WAT     H176871   2.769   6.513   8.495
25543WAT     H276872   2.608   6.486   8.482
25544WAT      O76873   6.290   8.253   3.924
25544WAT     H176874   6.351   8.174   3.934
25544WAT     H276875   6.340   8.329   3.882
25545WAT      O76876   4.493   7.905   8.811
25545WAT     H176877   4.522   7.849   8.734
25545WAT     H276878   4.482   8.000   8.781
25546WAT      O76879   1.803   3.490   0.446
25546WAT     H176880   1.818   3.428   0.369
25546WAT     H276881   1.729   3.454   0.503
25547WAT      O76882   6.512   6.663   8.008
25547WAT     H176883   6.445   6.611   7.955
25547WAT     H276884   6.503   6.639   8.105
25548WAT      O76885   7.401   8.991   7.784
25548WAT     H176886   7.336   8.950   7.847
25548WAT     H276887   7.478   9.029   7.835
25549WAT      O76888   0.088   3.774   7.792
25549WAT     H176889   0.171   3.719   7.793
25549WAT     H276890   0.112   3.869   7.768
25550WAT      O76891   0.919   1.081   9.082
25550WAT     H176892   0.835   1.123   9.117
25550WAT     H276893   0.897   1.023   9.004
25551WAT      O76894   9.310   6.178   6.284
25551WAT     H176895   9.286   6.166   6.187
25551WAT     H276896   9.382   6.246   6.293
25552WAT      O76897   2.312   7.938   0.290
25552WAT     H176898   2.284   8.033   0.301
25552WAT     H276899   2.330   7.919   0.193
25553WAT      O76900   4.273   5.941   0.467
25553WAT     H176901   4.246   6.024   0.419
25553WAT     H276902   4.360   5.908   0.431
25554WAT      O76903   5.416   3.887   2.789
25554WAT     H176904   5.443   3.910   2.695
25554WAT     H276905   5.429   3.789   2.804
25555WAT      O76906   7.124   0.417   7.614
25555WAT     H176907   7.131   0.515   7.637
25555WAT     H276908   7.040   0.380   7.654
25556WAT      O76909   9.540   3.501   8.230
25556WAT     H176910   9.592   3.496   8.315
25556WAT     H276911   9.500   3.412   8.210
25557WAT      O76912   1.820   3.610   6.257
25557WAT     H176913   1.860   3.520   6.270
25557WAT     H276914   1.737   3.618   6.312
25558WAT      O76915   3.026   5.157   2.559
25558WAT     H176916   3.074   5.234   2.518
25558WAT     H276917   3.024   5.168   2.658
25559WAT      O76918   6.300   8.084   5.010
25559WAT     H176919   6.292   8.153   4.938
25559WAT     H276920   6.354   8.007   4.977
25560WAT      O76921   4.635   0.501   0.612
25560WAT     H176922   4.666   0.407   0.623
25560WAT     H276923   4.556   0.503   0.549
25561WAT      O76924   3.575   6.298   5.009
25561WAT     H176925   3.564   6.279   5.106
25561WAT     H276926   3.672   6.304   4.987
25562WAT      O76927   2.645   1.873   3.458
25562WAT     H176928   2.562   1.922   3.434
25562WAT     H276929   2.725   1.930   3.436
25563WAT      O76930   3.688   8.901   1.665
25563WAT     H176931   3.606   8.942   1.705
25563WAT     H276932   3.768   8.925   1.721
25564WAT      O76933   9.336   9.118   3.898
25564WAT     H176934   9.315   9.153   3.806
25564WAT     H276935   9.345   9.018   3.894
25565WAT      O76936   1.081   3.635   3.307
25565WAT     H176937   1.033   3.670   3.388
25565WAT     H276938   1.128   3.550   3.330
25566WAT      O76939   4.761   4.882   2.602
25566WAT     H176940   4.844   4.840   2.639
25566WAT     H276941   4.698   4.904   2.677
25567WAT      O76942   9.435   7.354   3.294
25567WAT     H176943   9.436   7.255   3.284
25567WAT     H276944   9.354   7.392   3.249
25568WAT      O76945   0.372   4.500   3.095
25568WAT     H176946   0.322   4.413   3.105
25568WAT     H276947   0.353   4.540   3.006
25569WAT      O76948   0.119   5.565   1.510
25569WAT     H176949   0.117   5.495   1.582
25569WAT     H276950   0.030   5.569   1.465
25570WAT      O76951   2.971   7.293   5.315
25570WAT     H176952   2.878   7.320   5.337
25570WAT     H276953   2.991   7.318   5.220
25571WAT      O76954   0.309   6.538   2.354
25571WAT     H176955   0.290   6.464   2.289
25571WAT     H276956   0.388   6.513   2.410
25572WAT      O76957   8.897   0.677   0.339
25572WAT     H176958   8.873   0.753   0.278
25572WAT     H276959   8.948   0.712   0.417
25573WAT      O76960   1.327   8.404   1.199
25573WAT     H176961   1.412   8.437   1.241
25573WAT     H276962   1.317   8.444   1.108
25574WAT      O76963   2.443   2.826   4.908
25574WAT     H176964   2.507   2.750   4.895
25574WAT     H276965   2.490   2.902   4.953
25575WAT      O76966   8.821   9.620   2.700
25575WAT     H176967   8.835   9.646   2.605
25575WAT     H276968   8.786   9.527   2.705
25576WAT      O76969   1.476   5.485   2.563
25576WAT     H176970   1.385   5.514   2.531
25576WAT     H276971   1.541   5.560   2.552
25577WAT      O76972   8.429   4.374   0.841
25577WAT     H176973   8.489   4.298   0.867
25577WAT     H276974   8.455   4.408   0.751
25578WAT      O76975   0.376   4.496   3.727
25578WAT     H176976   0.293   4.552   3.726
25578WAT     H276977   0.415   4.492   3.635
25579WAT      O76978   0.120   6.150   0.654
25579WAT     H176979   0.170   6.104   0.728
25579WAT     H276980   0.048   6.208   0.693
25580WAT      O76981   9.215   6.889   7.847
25580WAT     H176982   9.302   6.925   7.812
25580WAT     H276983   9.220   6.881   7.946
25581WAT      O76984   3.827   0.841   0.167
25581WAT     H176985   3.890   0.916   0.188
25581WAT     H276986   3.736   0.878   0.150
25582WAT      O76987   8.360   7.850   7.534
25582WAT     H176988   8.423   7.814   7.465
25582WAT     H276989   8.271   7.806   7.522
25583WAT      O76990   6.857   8.300   6.726
25583WAT     H176991   6.784   8.291   6.793
25583WAT     H276992   6.891   8.209   6.701
25584WAT      O76993   6.190   6.557   3.856
25584WAT     H176994   6.121   6.629   3.860
25584WAT     H276995   6.149   6.470   3.880
25585WAT      O76996   2.673   3.100   6.278
25585WAT     H176997   2.619   3.167   6.228
25585WAT     H276998   2.751   3.071   6.222
25586WAT      O76999   4.065   9.476   8.263
25586WAT     H177000   4.023   9.534   8.333
25586WAT     H277001   4.164   9.484   8.268
25587WAT      O77002   9.779   5.827   3.139
25587WAT     H177003   9.874   5.816   3.167
25587WAT     H277004   9.721   5.768   3.193
25588WAT      O77005   0.599   4.492   1.030
25588WAT     H177006   0.635   4.457   0.943
25588WAT     H277007   0.658   4.565   1.064
25589WAT      O77008   3.266   0.521   9.818
25589WAT     H177009   3.169   0.516   9.843
25589WAT     H277010   3.278   0.588   9.745
25590WAT      O77011   8.041   3.976   6.107
25590WAT     H177012   8.055   4.067   6.144
25590WAT     H277013   7.945   3.966   6.079
25591WAT      O77014   6.413   1.660   2.148
25591WAT     H177015   6.456   1.672   2.238
25591WAT     H277016   6.314   1.661   2.159
25592WAT      O77017   6.723   9.721   4.868
25592WAT     H177018   6.666   9.790   4.823
25592WAT     H277019   6.687   9.630   4.848
25593WAT      O77020   2.033   7.690   9.525
25593WAT     H177021   2.092   7.748   9.580
25593WAT     H277022   1.966   7.747   9.477
25594WAT      O77023   2.099   9.455   0.679
25594WAT     H177024   2.143   9.471   0.591
25594WAT     H277025   2.147   9.381   0.727
25595WAT      O77026   1.209   6.180   0.387
25595WAT     H177027   1.219   6.095   0.438
25595WAT     H277028   1.114   6.209   0.387
25596WAT      O77029   1.941   2.473   7.367
25596WAT     H177030   2.028   2.504   7.328
25596WAT     H277031   1.881   2.551   7.380
25597WAT      O77032   8.367   5.087   5.368
25597WAT     H177033   8.433   5.013   5.359
25597WAT     H277034   8.387   5.157   5.299
25598WAT      O77035   2.664   4.686   9.089
25598WAT     H177036   2.574   4.690   9.132
25598WAT     H277037   2.668   4.605   9.030
25599WAT      O77038   1.189   4.411   1.085
25599WAT     H177039   1.213   4.413   1.182
25599WAT     H277040   1.262   4.365   1.033
25600WAT      O77041   6.467   0.315   7.138
25600WAT     H177042   6.376   0.295   7.174
25600WAT     H277043   6.536   0.268   7.194
25601WAT      O77044   3.689   3.451   0.070
25601WAT     H177045   3.638   3.418  -0.009
25601WAT     H277046   3.638   3.525   0.114
25602WAT      O77047   1.501   3.601   4.345
25602WAT     H177048   1.557   3.677   4.312
25602WAT     H277049   1.409   3.634   4.366
25603WAT      O77050   3.857   6.491   6.118
25603WAT     H177051   3.955   6.500   6.098
25603WAT     H277052   3.804   6.523   6.039
25604WAT      O77053   0.217   8.494   6.805
25604WAT     H177054   0.297   8.449   6.845
25604WAT     H277055   0.161   8.534   6.879
25605WAT      O77056   9.030   8.569   7.709
25605WAT     H177057   8.962   8.559   7.636
25605WAT     H277058   9.109   8.620   7.674
25606WAT      O77059   0.267   7.461   5.550
25606WAT     H177060   0.245   7.558   5.558
25606WAT     H277061   0.349   7.441   5.603
25607WAT      O77062   0.732   9.485   7.568
25607WAT     H177063   0.784   9.560   7.609
25607WAT     H277064   0.650   9.522   7.523
25608WAT      O77065   5.999   4.759   0.765
25608WAT     H177066   5.912   4.712   0.773
25608WAT     H277067   6.001   4.837   0.828
25609WAT      O77068   2.437   3.110   5.209
25609WAT     H177069   2.379   3.176   5.161
25609WAT     H277070   2.511   3.080   5.149
25610WAT      O77071   6.385   5.153   3.579
25610WAT     H177072   6.397   5.118   3.671
25610WAT     H277073   6.471   5.192   3.546
25611WAT      O77074   3.677   2.833   3.534
25611WAT     H177075   3.717   2.831   3.626
25611WAT     H277076   3.649   2.926   3.512
25612WAT      O77077   1.191   6.926   0.493
25612WAT     H177078   1.151   6.937   0.402
25612WAT     H277079   1.159   6.840   0.533
25613WAT      O77080   9.461   0.180   4.213
25613WAT     H177081   9.521   0.249   4.172
25613WAT     H277082   9.471   0.094   4.162
25614WAT      O77083   5.605   4.883   1.253
25614WAT     H177084   5.650   4.919   1.171
25614WAT     H277085   5.563   4.795   1.232
25615WAT      O77086   7.231   5.897   3.808
25615WAT     H177087   7.137   5.933   3.807
25615WAT     H277088   7.277   5.921   3.722
25616WAT      O77089   9.739   0.084   4.097
25616WAT     H177090   9.811   0.116   4.036
25616WAT     H277091   9.774   0.083   4.191
25617WAT      O77092   7.381   2.526   9.343
25617WAT     H177093   7.469   2.496   9.304
25617WAT     H277094   7.398   2.589   9.419
25618WAT      O77095   8.401   6.256   9.888
25618WAT     H177096   8.337   6.190   9.927
25618WAT     H277097   8.490   6.211   9.874
25619WAT      O77098   0.118   3.765   5.643
25619WAT     H177099   0.171   3.760   5.558
25619WAT     H277100   0.132   3.854   5.685
25620WAT      O77101   0.748   2.891   1.137
25620WAT     H177102   0.830   2.940   1.107
25620WAT     H277103   0.764   2.793   1.132
25621WAT      O77104   4.613   1.942   0.047
25621WAT     H177105   4.515   1.959   0.059
25621WAT     H277106   4.626   1.857  -0.004
25622WAT      O77107   4.461   5.530   9.812
25622WAT     H177108   4.420   5.482   9.735
25622WAT     H277109   4.413   5.504   9.896
25623WAT      O77110   9.283   7.379   1.890
25623WAT     H177111   9.284   7.284   1.859
25623WAT     H277112   9.200   7.397   1.943
25624WAT      O77113   4.832   1.838   1.221
25624WAT     H177114   4.787   1.842   1.311
25624WAT     H277115   4.880   1.924   1.203
25625WAT      O77116   3.135   5.453   6.683
25625WAT     H177117   3.045   5.410   6.678
25625WAT     H277118   3.199   5.390   6.727
25626WAT      O77119   4.164   2.111   3.499
25626WAT     H177120   4.247   2.165   3.483
25626WAT     H277121   4.174   2.022   3.454
25627WAT      O77122   3.579   1.759   4.586
25627WAT     H177123   3.547   1.789   4.497
25627WAT     H277124   3.657   1.815   4.614
25628WAT      O77125   4.608   6.542   4.705
25628WAT     H177126   4.633   6.482   4.781
25628WAT     H277127   4.673   6.529   4.630
25629WAT      O77128   2.598   7.758   3.832
25629WAT     H177129   2.515   7.706   3.853
25629WAT     H277130   2.573   7.853   3.810
25630WAT      O77131   5.131   1.116   4.874
25630WAT     H177132   5.183   1.058   4.936
25630WAT     H277133   5.049   1.149   4.919
25631WAT      O77134   0.517   5.244   1.682
25631WAT     H177135   0.448   5.175   1.661
25631WAT     H277136   0.509   5.270   1.779
25632WAT      O77137   3.083   3.076   9.291
25632WAT     H177138   3.089   3.169   9.327
25632WAT     H277139   3.160   3.022   9.324
25633WAT      O77140   1.008   9.336   4.998
25633WAT     H177141   1.068   9.265   4.962
25633WAT     H277142   1.011   9.334   5.098
25634WAT      O77143   7.960   9.823   4.191
25634WAT     H177144   7.910   9.898   4.147
25634WAT     H277145   8.046   9.858   4.228
25635WAT      O77146   5.440   6.894   6.303
25635WAT     H177147   5.409   6.960   6.234
25635WAT     H277148   5.370   6.884   6.373
25636WAT      O77149   6.237   9.490   4.076
25636WAT     H177150   6.200   9.461   3.988
25636WAT     H277151   6.196   9.577   4.102
25637WAT      O77152   8.508   6.821   1.294
25637WAT     H177153   8.423   6.769   1.300
25637WAT     H277154   8.575   6.769   1.242
25638WAT      O77155   4.532   6.157   8.995
25638WAT     H177156   4.519   6.112   8.907
25638WAT     H277157   4.462   6.125   9.060
25639WAT      O77158   7.365   3.059   7.953
25639WAT     H177159   7.385   3.054   7.855
25639WAT     H277160   7.450   3.079   8.003
25640WAT      O77161   2.279   0.441   7.504
25640WAT     H177162   2.205   0.465   7.441
25640WAT     H277163   2.327   0.360   7.470
25641WAT      O77164   2.034   0.276   1.284
25641WAT     H177165   2.016   0.370   1.313
25641WAT     H277166   2.049   0.219   1.365
25642WAT      O77167   3.486   9.301   1.649
25642WAT     H177168   3.549   9.259   1.714
25642WAT     H277169   3.526   9.386   1.614
25643WAT      O77170   8.485   7.745   2.486
25643WAT     H177171   8.477   7.826   2.427
25643WAT     H277172   8.404   7.688   2.474
25644WAT      O77173   5.814   7.651   5.364
25644WAT     H177174   5.808   7.641   5.464
25644WAT     H277175   5.723   7.646   5.325
25645WAT      O77176   0.102   3.279   0.533
25645WAT     H177177   0.009   3.294   0.499
25645WAT     H277178   0.102   3.279   0.633
25646WAT      O77179   3.314   1.900   7.262
25646WAT     H177180   3.321   1.945   7.172
25646WAT     H277181   3.224   1.921   7.302
25647WAT      O77182   2.627   3.128   8.245
25647WAT     H177183   2.585   3.205   8.197
25647WAT     H277184   2.629   3.148   8.343
25648WAT      O77185   6.558   7.874   5.944
25648WAT     H177186   6.466   7.914   5.940
25648WAT     H277187   6.600   7.878   5.854
25649WAT      O77188   6.007   9.425   3.060
25649WAT     H177189   5.919   9.472   3.061
25649WAT     H277190   5.998   9.335   3.101
25650WAT      O77191   6.035   8.782   7.043
25650WAT     H177192   6.037   8.832   7.130
25650WAT     H277193   6.083   8.834   6.973
25651WAT      O77194   9.138   5.867   8.064
25651WAT     H177195   9.158   5.962   8.089
25651WAT     H277196   9.043   5.860   8.035
25652WAT      O77197   3.741   6.658   4.781
25652WAT     H177198   3.644   6.642   4.758
25652WAT     H277199   3.756   6.638   4.878
25653WAT      O77200   3.436   7.783   6.555
25653WAT     H177201   3.509   7.723   6.587
25653WAT     H277202   3.431   7.864   6.614
25654WAT      O77203   1.926   3.617   3.115
25654WAT     H177204   1.873   3.676   3.174
25654WAT     H277205   2.010   3.589   3.161
25655WAT      O77206   1.104   1.781   3.630
25655WAT     H177207   1.031   1.718   3.658
25655WAT     H277208   1.160   1.804   3.709
25656WAT      O77209   3.498   6.584   0.629
25656WAT     H177210   3.431   6.612   0.561
25656WAT     H277211   3.499   6.484   0.636
25657WAT      O77212   6.810   8.241   8.719
25657WAT     H177213   6.876   8.240   8.795
25657WAT     H277214   6.819   8.326   8.668
25658WAT      O77215   1.450   6.954   4.169
25658WAT     H177216   1.351   6.941   4.176
25658WAT     H277217   1.471   7.003   4.084
25659WAT      O77218   7.436   3.312   1.794
25659WAT     H177219   7.407   3.360   1.711
25659WAT     H277220   7.379   3.230   1.806
25660WAT      O77221   4.951   2.338   9.652
25660WAT     H177222   5.030   2.398   9.664
25660WAT     H277223   4.981   2.251   9.611
25661WAT      O77224   2.782   3.510   4.375
25661WAT     H177225   2.877   3.542   4.376
25661WAT     H277226   2.779   3.415   4.344
25662WAT      O77227   5.850   4.490   5.597
25662WAT     H177228   5.938   4.538   5.594
25662WAT     H277229   5.777   4.554   5.573
25663WAT      O77230   0.135   0.691   5.824
25663WAT     H177231   0.110   0.647   5.910
25663WAT     H277232   0.192   0.771   5.842
25664WAT      O77233   4.592   0.046   4.227
25664WAT     H177234   4.587   0.013   4.132
25664WAT     H277235   4.532   0.124   4.238
25665WAT      O77236   5.839   2.144   4.984
25665WAT     H177237   5.841   2.105   4.892
25665WAT     H277238   5.835   2.243   4.978
25666WAT      O77239   0.183   5.660   8.311
25666WAT     H177240   0.091   5.649   8.348
25666WAT     H277241   0.244   5.695   8.383
25667WAT      O77242   2.304   4.173   2.029
25667WAT     H177243   2.360   4.115   2.089
25667WAT     H277244   2.233   4.218   2.084
25668WAT      O77245   3.833   5.708   8.315
25668WAT     H177246   3.888   5.727   8.396
25668WAT     H277247   3.883   5.733   8.233
25669WAT      O77248   5.182   0.645   1.821
25669WAT     H177249   5.242   0.693   1.886
25669WAT     H277250   5.126   0.712   1.773
25670WAT      O77251   1.157   1.779   7.286
25670WAT     H177252   1.233   1.842   7.274
25670WAT     H277253   1.109   1.802   7.371
25671WAT      O77254   1.619   2.453   3.896
25671WAT     H177255   1.613   2.400   3.981
25671WAT     H277256   1.611   2.392   3.818
25672WAT      O77257   4.376   4.341   7.539
25672WAT     H177258   4.403   4.252   7.502
25672WAT     H277259   4.300   4.329   7.603
25673WAT      O77260   3.733   6.564   8.413
25673WAT     H177261   3.675   6.531   8.339
25673WAT     H277262   3.782   6.646   8.383
25674WAT      O77263   7.034   0.883   6.990
25674WAT     H177264   6.986   0.932   6.917
25674WAT     H277265   6.988   0.898   7.077
25675WAT      O77266   0.597   4.556   4.259
25675WAT     H177267   0.678   4.498   4.256
25675WAT     H277268   0.515   4.500   4.258
25676WAT      O77269   8.862   6.723   1.433
25676WAT     H177270   8.920   6.648   1.465
25676WAT     H277271   8.779   6.685   1.391
25677WAT      O77272   6.334   4.828   1.241
25677WAT     H177273   6.368   4.860   1.329
25677WAT     H277274   6.385   4.872   1.167
25678WAT      O77275   0.343   0.588   3.103
25678WAT     H177276   0.304   0.499   3.077
25678WAT     H277277   0.299   0.660   3.050
25679WAT      O77278   2.212   9.441   2.469
25679WAT     H177279   2.144   9.388   2.519
25679WAT     H277280   2.179   9.459   2.377
25680WAT      O77281   4.899   6.148   6.561
25680WAT     H177282   4.952   6.220   6.517
25680WAT     H277283   4.806   6.181   6.580
25681WAT      O77284   3.830   9.361   1.886
25681WAT     H177285   3.816   9.455   1.854
25681WAT     H277286   3.742   9.314   1.891
25682WAT      O77287   2.123   6.062   9.110
25682WAT     H177288   2.222   6.062   9.125
25682WAT     H277289   2.102   6.114   9.027
25683WAT      O77290   3.103   6.105   1.664
25683WAT     H177291   3.031   6.103   1.734
25683WAT     H277292   3.089   6.029   1.600
25684WAT      O77293   4.926   0.740   5.047
25684WAT     H177294   4.838   0.747   5.094
25684WAT     H277295   4.991   0.692   5.106
25685WAT      O77296   8.018   6.147   2.648
25685WAT     H177297   8.111   6.180   2.632
25685WAT     H277298   7.962   6.161   2.566
25686WAT      O77299   9.415   7.126   2.120
25686WAT     H177300   9.422   7.079   2.032
25686WAT     H277301   9.493   7.101   2.177
25687WAT      O77302   8.543   8.825   6.913
25687WAT     H177303   8.484   8.800   6.837
25687WAT     H277304   8.604   8.899   6.885
25688WAT      O77305   9.786   9.055   5.505
25688WAT     H177306   9.718   9.057   5.578
25688WAT     H277307   9.855   9.127   5.522
25689WAT      O77308   0.691   0.240   9.789
25689WAT     H177309   0.759   0.227   9.717
25689WAT     H277310   0.678   0.338   9.806
25690WAT      O77311   6.968   1.857   8.559
25690WAT     H177312   6.912   1.938   8.544
25690WAT     H277313   7.003   1.824   8.471
25691WAT      O77314   9.170   8.146   5.201
25691WAT     H177315   9.241   8.078   5.216
25691WAT     H277316   9.115   8.121   5.122
25692WAT      O77317   3.132   0.949   8.198
25692WAT     H177318   3.211   1.009   8.183
25692WAT     H277319   3.049   1.003   8.204
25693WAT      O77320   3.331   0.586   6.283
25693WAT     H177321   3.288   0.562   6.370
25693WAT     H277322   3.338   0.505   6.226
25694WAT      O77323   0.177   6.255   2.904
25694WAT     H177324   0.148   6.169   2.947
25694WAT     H277325   0.275   6.252   2.887
25695WAT      O77326   1.754   2.217   9.777
25695WAT     H177327   1.710   2.304   9.800
25695WAT     H277328   1.833   2.203   9.837
25696WAT      O77329   8.205   0.325   0.416
25696WAT     H177330   8.204   0.417   0.455
25696WAT     H277331   8.299   0.292   0.409
25697WAT      O77332   4.143   4.123   0.736
25697WAT     H177333   4.142   4.026   0.711
25697WAT     H277334   4.083   4.138   0.814
25698WAT      O77335   8.492   6.096   6.730
25698WAT     H177336   8.572   6.036   6.723
25698WAT     H277337   8.424   6.053   6.789
25699WAT      O77338   9.818   3.336   7.638
25699WAT     H177339   9.841   3.317   7.733
25699WAT     H277340   9.837   3.255   7.582
25700WAT      O77341   6.640   4.401   9.749
25700WAT     H177342   6.644   4.302   9.762
25700WAT     H277343   6.570   4.440   9.810
25701WAT      O77344   5.010   6.379   8.156
25701WAT     H177345   5.008   6.479   8.155
25701WAT     H277346   4.998   6.345   8.063
25702WAT      O77347   0.025   1.072   1.714
25702WAT     H177348   0.060   1.155   1.758
25702WAT     H277349   0.065   1.062   1.623
25703WAT      O77350   2.731   0.836   4.419
25703WAT     H177351   2.829   0.827   4.435
25703WAT     H277352   2.687   0.873   4.501
25704WAT      O77353   4.873   6.222   4.577
25704WAT     H177354   4.814   6.143   4.593
25704WAT     H277355   4.933   6.235   4.657
25705WAT      O77356   5.703   1.011   5.116
25705WAT     H177357   5.801   1.030   5.115
25705WAT     H277358   5.652   1.097   5.112
25706WAT      O77359   5.305   5.485   1.508
25706WAT     H177360   5.379   5.503   1.443
25706WAT     H277361   5.268   5.572   1.542
25707WAT      O77362   3.427   1.442   4.002
25707WAT     H177363   3.353   1.509   3.996
25707WAT     H277364   3.467   1.444   4.093
25708WAT      O77365   2.380   3.412   4.181
25708WAT     H177366   2.286   3.433   4.154
25708WAT     H277367   2.379   3.361   4.267
25709WAT      O77368   0.212   1.268   0.545
25709WAT     H177369   0.178   1.174   0.556
25709WAT     H277370   0.156   1.315   0.476
25710WAT      O77371   0.899   7.983   3.823
25710WAT     H177372   0.910   7.894   3.778
25710WAT     H277373   0.802   8.004   3.832
25711WAT      O77374   5.705   9.057   2.465
25711WAT     H177375   5.712   9.017   2.374
25711WAT     H277376   5.616   9.101   2.475
25712WAT      O77377   1.748   3.317   8.982
25712WAT     H177378   1.719   3.276   8.896
25712WAT     H277379   1.684   3.390   9.008
25713WAT      O77380   1.713   5.468   0.268
25713WAT     H177381   1.614   5.465   0.278
25713WAT     H277382   1.750   5.375   0.266
25714WAT      O77383   0.290   9.674   1.575
25714WAT     H177384   0.281   9.612   1.653
25714WAT     H277385   0.315   9.623   1.493
25715WAT      O77386   2.708   9.236   1.521
25715WAT     H177387   2.766   9.316   1.506
25715WAT     H277388   2.658   9.215   1.437
25716WAT      O77389   1.395   0.493   2.603
25716WAT     H177390   1.404   0.404   2.557
25716WAT     H277391   1.304   0.529   2.588
25717WAT      O77392   9.497   0.797   0.051
25717WAT     H177393   9.593   0.797   0.081
25717WAT     H277394   9.474   0.706   0.016
25718WAT      O77395   8.397   5.543   4.491
25718WAT     H177396   8.342   5.564   4.410
25718WAT     H277397   8.494   5.554   4.469
25719WAT      O77398   8.692   4.088   3.450
25719WAT     H177399   8.611   4.118   3.501
25719WAT     H277400   8.698   4.140   3.365
25720WAT      O77401   9.352   3.440   0.852
25720WAT     H177402   9.437   3.391   0.872
25720WAT     H277403   9.373   3.531   0.817
25721WAT      O77404   2.713   1.424   9.153
25721WAT     H177405   2.627   1.452   9.111
25721WAT     H277406   2.759   1.357   9.094
25722WAT      O77407   3.272   1.022   1.452
25722WAT     H177408   3.327   0.943   1.480
25722WAT     H277409   3.322   1.075   1.385
25723WAT      O77410   1.721   5.530   6.726
25723WAT     H177411   1.690   5.584   6.805
25723WAT     H277412   1.694   5.435   6.739
25724WAT      O77413   6.472   3.480   9.511
25724WAT     H177414   6.477   3.382   9.528
25724WAT     H277415   6.525   3.502   9.429
25725WAT      O77416   9.405   5.294   2.611
25725WAT     H177417   9.472   5.368   2.605
25725WAT     H277418   9.450   5.210   2.642
25726WAT      O77419   8.394   0.601   6.661
25726WAT     H177420   8.304   0.634   6.687
25726WAT     H277421   8.387   0.543   6.580
25727WAT      O77422   1.822   9.214   9.576
25727WAT     H177423   1.887   9.138   9.579
25727WAT     H277424   1.783   9.221   9.485
25728WAT      O77425   7.490   4.074   2.836
25728WAT     H177426   7.422   4.146   2.819
25728WAT     H277427   7.455   4.010   2.905
25729WAT      O77428   7.434   9.305   1.651
25729WAT     H177429   7.481   9.340   1.570
25729WAT     H277430   7.499   9.300   1.727
25730WAT      O77431   8.050   6.759   0.229
25730WAT     H177432   8.065   6.771   0.327
25730WAT     H277433   7.979   6.822   0.198
25731WAT      O77434   8.856   3.958   0.501
25731WAT     H177435   8.879   3.862   0.518
25731WAT     H277436   8.767   3.979   0.540
25732WAT      O77437   2.050   4.673   0.259
25732WAT     H177438   2.120   4.743   0.270
25732WAT     H277439   2.070   4.597   0.321
25733WAT      O77440   8.052   5.528   5.047
25733WAT     H177441   7.999   5.448   5.075
25733WAT     H277442   8.063   5.528   4.948
25734WAT      O77443   2.074   8.887   3.929
25734WAT     H177444   2.034   8.850   3.845
25734WAT     H277445   2.001   8.906   3.995
25735WAT      O77446   6.770   3.112   5.187
25735WAT     H177447   6.730   3.193   5.146
25735WAT     H277448   6.799   3.049   5.114
25736WAT      O77449   5.331   5.666   7.063
25736WAT     H177450   5.265   5.733   7.028
25736WAT     H277451   5.419   5.681   7.018
25737WAT      O77452   7.458   4.797   0.156
25737WAT     H177453   7.365   4.765   0.138
25737WAT     H277454   7.457   4.893   0.182
25738WAT      O77455   2.866   5.489   1.877
25738WAT     H177456   2.895   5.515   1.785
25738WAT     H277457   2.871   5.390   1.888
25739WAT      O77458   3.455   6.034   6.637
25739WAT     H177459   3.410   6.004   6.721
25739WAT     H277460   3.488   5.954   6.587
25740WAT      O77461   1.096   5.619   6.407
25740WAT     H177462   1.031   5.695   6.406
25740WAT     H277463   1.067   5.551   6.474
25741WAT      O77464   7.484   7.806   4.654
25741WAT     H177465   7.512   7.895   4.619
25741WAT     H277466   7.495   7.737   4.583
25742WAT      O77467   0.261   7.616   4.212
25742WAT     H177468   0.211   7.676   4.274
25742WAT     H277469   0.329   7.669   4.161
25743WAT      O77470   6.650   4.680   8.838
25743WAT     H177471   6.570   4.728   8.802
25743WAT     H277472   6.655   4.589   8.796
25744WAT      O77473   8.798   7.812   6.140
25744WAT     H177474   8.700   7.800   6.153
25744WAT     H277475   8.821   7.909   6.139
25745WAT      O77476   9.163   6.482   1.755
25745WAT     H177477   9.228   6.406   1.742
25745WAT     H277478   9.203   6.549   1.817
25746WAT      O77479   3.004   7.436   6.072
25746WAT     H177480   3.066   7.364   6.101
25746WAT     H277481   2.934   7.397   6.012
25747WAT      O77482   5.124   9.354   8.411
25747WAT     H177483   5.191   9.335   8.482
25747WAT     H277484   5.049   9.409   8.449
25748WAT      O77485   9.253   1.183   0.069
25748WAT     H177486   9.296   1.255   0.124
25748WAT     H277487   9.168   1.155   0.113
25749WAT      O77488   4.208   8.049   5.264
25749WAT     H177489   4.253   8.076   5.349
25749WAT     H277490   4.148   8.123   5.233
25750WAT      O77491   8.422   1.123   7.531
25750WAT     H177492   8.332   1.113   7.573
25750WAT     H277493   8.415   1.113   7.432
25751WAT      O77494   7.537   3.505   0.151
25751WAT     H177495   7.599   3.427   0.141
25751WAT     H277496   7.541   3.562   0.069
25752WAT      O77497   5.817   3.413   7.215
25752WAT     H177498   5.867   3.499   7.201
25752WAT     H277499   5.877   3.336   7.193
25753WAT      O77500   3.701   6.697   2.994
25753WAT     H177501   3.636   6.772   3.004
25753WAT     H277502   3.668   6.633   2.925
25754WAT      O77503   8.892   5.601   3.776
25754WAT     H177504   8.953   5.612   3.697
25754WAT     H277505   8.946   5.596   3.859
25755WAT      O77506   2.407   8.932   0.075
25755WAT     H177507   2.438   8.844   0.109
25755WAT     H277508   2.322   8.957   0.120
25756WAT      O77509   3.525   4.688   5.888
25756WAT     H177510   3.602   4.635   5.924
25756WAT     H277511   3.500   4.653   5.797
25757WAT      O77512   4.285   6.300   1.045
25757WAT     H177513   4.370   6.262   1.008
25757WAT     H277514   4.228   6.226   1.080
25758WAT      O77515   9.330   5.414   4.379
25758WAT     H177516   9.389   5.425   4.459
25758WAT     H277517   9.357   5.480   4.309
25759WAT      O77518   3.206   8.660   7.267
25759WAT     H177519   3.223   8.598   7.343
25759WAT     H277520   3.241   8.751   7.289
25760WAT      O77521   0.224   3.955   0.799
25760WAT     H177522   0.258   3.961   0.705
25760WAT     H277523   0.298   3.976   0.863
25761WAT      O77524   0.870   3.255   5.388
25761WAT     H177525   0.951   3.311   5.370
25761WAT     H277526   0.847   3.260   5.485
25762WAT      O77527   7.297   0.204   2.639
25762WAT     H177528   7.236   0.160   2.573
25762WAT     H277529   7.263   0.188   2.731
25763WAT      O77530   8.902   4.682   6.606
25763WAT     H177531   8.921   4.717   6.514
25763WAT     H277532   8.814   4.635   6.606
25764WAT      O77533   9.722   6.788   4.652
25764WAT     H177534   9.804   6.844   4.667
25764WAT     H277535   9.677   6.817   4.567
25765WAT      O77536   5.641   6.306   0.741
25765WAT     H177537   5.610   6.243   0.811
25765WAT     H277538   5.605   6.278   0.652
25766WAT      O77539   4.292   8.979   6.320
25766WAT     H177540   4.254   9.016   6.235
25766WAT     H277541   4.355   8.905   6.299
25767WAT      O77542   7.876   8.250   2.048
25767WAT     H177543   7.896   8.344   2.018
25767WAT     H277544   7.902   8.186   1.977
25768WAT      O77545   4.570   3.267   5.276
25768WAT     H177546   4.595   3.314   5.192
25768WAT     H277547   4.609   3.316   5.354
25769WAT      O77548   1.681   2.389   2.523
25769WAT     H177549   1.600   2.420   2.474
25769WAT     H277550   1.731   2.468   2.558
25770WAT      O77551   0.575   1.662   3.090
25770WAT     H177552   0.525   1.692   3.009
25770WAT     H277553   0.667   1.636   3.065
25771WAT      O77554   5.571   3.876   3.720
25771WAT     H177555   5.598   3.945   3.788
25771WAT     H277556   5.504   3.916   3.658
25772WAT      O77557   6.445   7.843   2.837
25772WAT     H177558   6.407   7.924   2.881
25772WAT     H277559   6.529   7.816   2.885
25773WAT      O77560   6.680   8.746   5.526
25773WAT     H177561   6.774   8.770   5.502
25773WAT     H277562   6.679   8.686   5.605
25774WAT      O77563   1.440   7.843   0.332
25774WAT     H177564   1.343   7.822   0.319
25774WAT     H277565   1.453   7.943   0.334
25775WAT      O77566   6.043   3.735   5.165
25775WAT     H177567   6.018   3.678   5.243
25775WAT     H277568   6.077   3.823   5.197
25776WAT      O77569   2.995   0.015   0.669
25776WAT     H177570   2.916  -0.036   0.703
25776WAT     H277571   3.072   0.002   0.732
25777WAT      O77572   8.322   6.710   6.686
25777WAT     H177573   8.310   6.698   6.785
25777WAT     H277574   8.325   6.620   6.642
25778WAT      O77575   3.732   4.796   1.735
25778WAT     H177576   3.752   4.842   1.649
25778WAT     H277577   3.803   4.819   1.802
25779WAT      O77578   8.429   3.735   4.068
25779WAT     H177579   8.408   3.791   4.148
25779WAT     H277580   8.526   3.744   4.045
25780WAT      O77581   6.347   6.538   7.261
25780WAT     H177582   6.293   6.496   7.188
25780WAT     H277583   6.336   6.637   7.259
25781WAT      O77584   2.911   9.042   4.661
25781WAT     H177585   2.881   9.027   4.566
25781WAT     H277586   2.920   9.140   4.678
25782WAT      O77587   9.851   0.017   9.134
25782WAT     H177588   9.834  -0.056   9.200
25782WAT     H277589   9.894   0.095   9.181
25783WAT      O77590   8.854   7.605   3.866
25783WAT     H177591   8.789   7.585   3.792
25783WAT     H277592   8.914   7.526   3.879
25784WAT      O77593   4.005   1.644   6.567
25784WAT     H177594   3.905   1.639   6.576
25784WAT     H277595   4.047   1.626   6.655
25785WAT      O77596   2.030   4.029   0.810
25785WAT     H177597   2.076   4.046   0.723
25785WAT     H277598   1.990   4.114   0.844
25786WAT      O77599   6.066   6.377   7.661
25786WAT     H177600   6.115   6.410   7.580
25786WAT     H277601   5.995   6.312   7.633
25787WAT      O77602   5.178   7.757   0.139
25787WAT     H177603   5.086   7.728   0.111
25787WAT     H277604   5.187   7.856   0.127
25788WAT      O77605   0.109   3.989   3.456
25788WAT     H177606   0.031   4.005   3.395
25788WAT     H277607   0.169   3.919   3.415
25789WAT      O77608   6.068   4.956   0.954
25789WAT     H177609   6.070   4.986   1.050
25789WAT     H277610   6.085   5.035   0.895
25790WAT      O77611   9.126   3.304   5.664
25790WAT     H177612   9.141   3.355   5.579
25790WAT     H277613   9.030   3.312   5.691
25791WAT      O77614   2.126   1.031   2.023
25791WAT     H177615   2.071   1.074   1.951
25791WAT     H277616   2.151   0.939   1.995
25792WAT      O77617   7.241   1.413   4.406
25792WAT     H177618   7.329   1.373   4.382
25792WAT     H277619   7.247   1.513   4.402
25793WAT      O77620   8.529   8.610   5.642
25793WAT     H177621   8.441   8.656   5.655
25793WAT     H277622   8.598   8.676   5.612
25794WAT      O77623   3.302   2.840   7.097
25794WAT     H177624   3.280   2.872   7.004
25794WAT     H277625   3.285   2.742   7.103
25795WAT      O77626   5.949   4.334   4.934
25795WAT     H177627   6.023   4.396   4.958
25795WAT     H277628   5.963   4.246   4.980
25796WAT      O77629   9.159   4.046   2.889
25796WAT     H177630   9.096   4.036   2.812
25796WAT     H277631   9.187   3.956   2.921
25797WAT      O77632   4.693   1.951   9.435
25797WAT     H177633   4.640   1.938   9.518
25797WAT     H277634   4.776   2.003   9.456
25798WAT      O77635   7.063   2.694   5.821
25798WAT     H177636   7.087   2.756   5.895
25798WAT     H277637   6.993   2.630   5.852
25799WAT      O77638   7.207   6.442   7.520
25799WAT     H177639   7.274   6.369   7.507
25799WAT     H277640   7.163   6.431   7.609
25800WAT      O77641   9.549   5.429   8.942
25800WAT     H177642   9.458   5.388   8.943
25800WAT     H277643   9.604   5.391   9.017
25801WAT      O77644   0.731   1.216   5.270
25801WAT     H177645   0.681   1.247   5.189
25801WAT     H277646   0.829   1.219   5.252
25802WAT      O77647   7.850   4.997   4.166
25802WAT     H177648   7.902   5.070   4.122
25802WAT     H277649   7.804   4.942   4.097
25803WAT      O77650   3.532   0.764   2.296
25803WAT     H177651   3.435   0.740   2.291
25803WAT     H277652   3.578   0.732   2.212
25804WAT      O77653   1.616   8.622   8.215
25804WAT     H177654   1.650   8.567   8.139
25804WAT     H277655   1.649   8.716   8.207
25805WAT      O77656   7.997   8.667   4.702
25805WAT     H177657   8.054   8.592   4.737
25805WAT     H277658   8.056   8.739   4.665
25806WAT      O77659   8.496   2.404   3.149
25806WAT     H177660   8.408   2.371   3.115
25806WAT     H277661   8.570   2.348   3.111
25807WAT      O77662   9.104   1.742   5.799
25807WAT     H177663   9.125   1.658   5.849
25807WAT     H277664   9.092   1.721   5.702
25808WAT      O77665   0.002   9.058   8.482
25808WAT     H177666   0.087   9.081   8.435
25808WAT     H277667  -0.057   9.139   8.485
25809WAT      O77668   1.610   2.843   9.424
25809WAT     H177669   1.591   2.859   9.520
25809WAT     H277670   1.528   2.861   9.370
25810WAT      O77671   5.640   7.731   8.627
25810WAT     H177672   5.637   7.806   8.561
25810WAT     H277673   5.709   7.664   8.600
25811WAT      O77674   7.282   8.275   4.676
25811WAT     H177675   7.321   8.356   4.720
25811WAT     H277676   7.205   8.242   4.732
25812WAT      O77677   0.404   6.995   0.540
25812WAT     H177678   0.379   6.909   0.583
25812WAT     H277679   0.438   6.977   0.447
25813WAT      O77680   4.234   0.115   7.765
25813WAT     H177681   4.290   0.045   7.721
25813WAT     H277682   4.158   0.140   7.704
25814WAT      O77683   6.978   1.443   5.161
25814WAT     H177684   7.027   1.387   5.094
25814WAT     H277685   7.016   1.536   5.161
25815WAT      O77686   7.076   4.673   6.944
25815WAT     H177687   7.042   4.680   6.851
25815WAT     H277688   7.135   4.592   6.952
25816WAT      O77689   0.095   9.541   8.369
25816WAT     H177690   0.185   9.498   8.361
25816WAT     H277691   0.083   9.576   8.462
25817WAT      O77692   5.941   3.699   4.398
25817WAT     H177693   5.850   3.704   4.358
25817WAT     H277694   5.945   3.624   4.464
25818WAT      O77695   4.077   6.637   1.294
25818WAT     H177696   4.137   6.677   1.363
25818WAT     H277697   4.111   6.546   1.269
25819WAT      O77698   3.004   9.344   7.985
25819WAT     H177699   3.037   9.277   7.919
25819WAT     H277700   2.976   9.427   7.937
25820WAT      O77701   5.985   3.098   0.775
25820WAT     H177702   6.017   3.165   0.842
25820WAT     H277703   5.948   3.018   0.823
25821WAT      O77704   9.209   6.478   7.988
25821WAT     H177705   9.277   6.539   7.947
25821WAT     H277706   9.140   6.454   7.919
25822WAT      O77707   2.750   1.961   6.181
25822WAT     H177708   2.842   1.988   6.151
25822WAT     H277709   2.711   1.897   6.115
25823WAT      O77710   0.159   2.761   0.388
25823WAT     H177711   0.195   2.839   0.338
25823WAT     H277712   0.067   2.781   0.421
25824WAT      O77713   0.509   3.190   0.589
25824WAT     H177714   0.603   3.225   0.591
25824WAT     H277715   0.450   3.257   0.544
25825WAT      O77716   5.777   8.754   1.674
25825WAT     H177717   5.704   8.729   1.610
25825WAT     H277718   5.777   8.853   1.686
25826WAT      O77719   0.381   5.252   8.236
25826WAT     H177720   0.322   5.258   8.317
25826WAT     H277721   0.465   5.304   8.253
25827WAT      O77722   1.550   0.870   1.615
25827WAT     H177723   1.629   0.932   1.623
25827WAT     H277724   1.565   0.808   1.538
25828WAT      O77725   0.168   3.283   5.936
25828WAT     H177726   0.227   3.264   5.857
25828WAT     H277727   0.169   3.205   5.998
25829WAT      O77728   6.855   3.670   1.356
25829WAT     H177729   6.940   3.654   1.306
25829WAT     H277730   6.835   3.591   1.415
25830WAT      O77731   6.821   2.054   1.410
25830WAT     H177732   6.846   1.959   1.427
25830WAT     H277733   6.731   2.057   1.367
25831WAT      O77734   6.305   4.329   3.279
25831WAT     H177735   6.365   4.250   3.263
25831WAT     H277736   6.234   4.331   3.208
25832WAT      O77737   9.252   3.066   2.210
25832WAT     H177738   9.192   3.146   2.215
25832WAT     H277739   9.215   2.993   2.267
25833WAT      O77740   2.002   0.484   5.647
25833WAT     H177741   1.929   0.453   5.587
25833WAT     H277742   2.089   0.478   5.598
25834WAT      O77743   3.026   6.197   6.931
25834WAT     H177744   2.998   6.276   6.985
25834WAT     H277745   3.008   6.214   6.835
25835WAT      O77746   6.717   3.310   6.180
25835WAT     H177747   6.725   3.390   6.240
25835WAT     H277748   6.639   3.255   6.210
25836WAT      O77749   7.194   4.636   8.468
25836WAT     H177750   7.226   4.582   8.546
25836WAT     H277751   7.094   4.645   8.473
25837WAT      O77752   3.143   4.820   5.463
25837WAT     H177753   3.116   4.849   5.371
25837WAT     H277754   3.215   4.752   5.457
25838WAT      O77755   8.952   3.225   3.426
25838WAT     H177756   9.046   3.209   3.457
25838WAT     H277757   8.924   3.149   3.368
25839WAT      O77758   2.366   0.261   7.888
25839WAT     H177759   2.323   0.218   7.967
25839WAT     H277760   2.300   0.319   7.841
25840WAT      O77761   0.927   8.562   6.600
25840WAT     H177762   0.891   8.654   6.584
25840WAT     H277763   1.019   8.555   6.562
25841WAT      O77764   4.036   8.356   2.287
25841WAT     H177765   3.952   8.333   2.335
25841WAT     H277766   4.021   8.350   2.189
25842WAT      O77767   2.884   0.265   7.445
25842WAT     H177768   2.843   0.175   7.434
25842WAT     H277769   2.984   0.257   7.440
25843WAT      O77770   9.118   2.010   8.459
25843WAT     H177771   9.198   1.952   8.442
25843WAT     H277772   9.064   2.017   8.375
25844WAT      O77773   6.457   2.251   5.635
25844WAT     H177774   6.540   2.247   5.580
25844WAT     H277775   6.454   2.337   5.685
25845WAT      O77776   6.642   9.791   0.431
25845WAT     H177777   6.666   9.834   0.343
25845WAT     H277778   6.714   9.809   0.497
25846WAT      O77779   6.419   6.959   1.572
25846WAT     H177780   6.453   7.039   1.622
25846WAT     H277781   6.436   6.971   1.474
25847WAT      O77782   0.911   1.926   6.690
25847WAT     H177783   0.978   1.916   6.763
25847WAT     H277784   0.819   1.918   6.727
25848WAT      O77785   4.745   5.068   1.058
25848WAT     H177786   4.715   5.007   0.985
25848WAT     H277787   4.764   5.015   1.141
25849WAT      O77788   3.725   5.003   6.356
25849WAT     H177789   3.749   4.925   6.413
25849WAT     H277790   3.697   4.972   6.265
25850WAT      O77791   7.604   6.320   0.798
25850WAT     H177792   7.569   6.359   0.712
25850WAT     H277793   7.592   6.221   0.797
25851WAT      O77794   2.627   7.506   5.139
25851WAT     H177795   2.689   7.503   5.061
25851WAT     H277796   2.616   7.600   5.170
25852WAT      O77797   1.508   4.924   6.404
25852WAT     H177798   1.532   4.911   6.500
25852WAT     H277799   1.550   4.852   6.349
25853WAT      O77800   9.770   2.321   4.326
25853WAT     H177801   9.709   2.273   4.389
25853WAT     H277802   9.723   2.334   4.238
25854WAT      O77803   2.510   2.147   5.124
25854WAT     H177804   2.499   2.047   5.122
25854WAT     H277805   2.457   2.188   5.050
25855WAT      O77806   7.837   8.694   4.430
25855WAT     H177807   7.862   8.766   4.495
25855WAT     H277808   7.842   8.605   4.475
25856WAT      O77809   0.642   6.739   4.019
25856WAT     H177810   0.598   6.777   3.938
25856WAT     H277811   0.736   6.714   3.997
25857WAT      O77812   7.889   2.784   5.641
25857WAT     H177813   7.929   2.868   5.604
25857WAT     H277814   7.955   2.740   5.702
25858WAT      O77815   4.829   9.487   7.710
25858WAT     H177816   4.771   9.408   7.691
25858WAT     H277817   4.904   9.459   7.770
25859WAT      O77818   3.320   1.511   4.319
25859WAT     H177819   3.237   1.563   4.303
25859WAT     H277820   3.400   1.570   4.304
25860WAT      O77821   4.497   2.979   5.565
25860WAT     H177822   4.579   2.927   5.540
25860WAT     H277823   4.524   3.062   5.614
25861WAT      O77824   2.299   8.069   0.612
25861WAT     H177825   2.239   8.064   0.532
25861WAT     H277826   2.285   7.988   0.669
25862WAT      O77827   8.871   4.939   1.568
25862WAT     H177828   8.879   5.019   1.508
25862WAT     H277829   8.907   4.858   1.522
25863WAT      O77830   2.049   8.269   4.909
25863WAT     H177831   2.025   8.195   4.846
25863WAT     H277832   2.057   8.354   4.859
25864WAT      O77833   5.294   7.482   0.545
25864WAT     H177834   5.254   7.564   0.502
25864WAT     H277835   5.282   7.404   0.483
25865WAT      O77836   5.592   8.691   6.076
25865WAT     H177837   5.503   8.659   6.045
25865WAT     H277838   5.599   8.680   6.175
25866WAT      O77839   6.367   9.098   0.241
25866WAT     H177840   6.375   9.002   0.213
25866WAT     H277841   6.295   9.142   0.188
25867WAT      O77842   5.394   8.899   9.783
25867WAT     H177843   5.351   8.911   9.873
25867WAT     H277844   5.347   8.827   9.732
25868WAT      O77845   6.179   1.111   4.156
25868WAT     H177846   6.110   1.052   4.114
25868WAT     H277847   6.175   1.202   4.115
25869WAT      O77848   2.137   4.558   3.519
25869WAT     H177849   2.073   4.582   3.446
25869WAT     H277850   2.221   4.611   3.509
25870WAT      O77851   6.224   2.426   7.221
25870WAT     H177852   6.219   2.401   7.318
25870WAT     H277853   6.158   2.499   7.202
25871WAT      O77854   2.193   6.571   6.339
25871WAT     H177855   2.165   6.661   6.372
25871WAT     H277856   2.286   6.552   6.370
25872WAT      O77857   3.088   1.771   7.941
25872WAT     H177858   3.070   1.822   8.025
25872WAT     H277859   3.033   1.807   7.866
25873WAT      O77860   0.588   9.478   8.921
25873WAT     H177861   0.564   9.573   8.900
25873WAT     H277862   0.520   9.417   8.879
25874WAT      O77863   8.401   5.866   2.727
25874WAT     H177864   8.444   5.952   2.700
25874WAT     H277865   8.471   5.806   2.767
25875WAT      O77866   2.055   5.681   5.862
25875WAT     H177867   2.091   5.775   5.861
25875WAT     H277868   1.966   5.679   5.816
25876WAT      O77869   3.699   4.366   5.343
25876WAT     H177870   3.688   4.456   5.301
25876WAT     H277871   3.762   4.373   5.420
25877WAT      O77872   3.753   1.580   8.563
25877WAT     H177873   3.804   1.660   8.595
25877WAT     H277874   3.788   1.552   8.474
25878WAT      O77875   9.399   8.902   7.039
25878WAT     H177876   9.451   8.820   7.062
25878WAT     H277877   9.369   8.947   7.124
25879WAT      O77878   2.112   7.890   5.492
25879WAT     H177879   2.085   7.985   5.480
25879WAT     H277880   2.067   7.853   5.574
25880WAT      O77881   0.801   2.311   3.726
25880WAT     H177882   0.804   2.220   3.685
25880WAT     H277883   0.878   2.366   3.693
25881WAT      O77884   2.980   9.676   4.811
25881WAT     H177885   3.007   9.580   4.822
25881WAT     H277886   2.890   9.680   4.767
25882WAT      O77887   7.472   6.202   6.195
25882WAT     H177888   7.382   6.179   6.158
25882WAT     H277889   7.519   6.119   6.224
25883WAT      O77890   1.914   2.427   8.007
25883WAT     H177891   1.970   2.417   8.090
25883WAT     H277892   1.866   2.515   8.010
25884WAT      O77893   5.396   9.234   2.135
25884WAT     H177894   5.305   9.275   2.127
25884WAT     H277895   5.462   9.291   2.085
25885WAT      O77896   1.598   6.575   9.814
25885WAT     H177897   1.680   6.606   9.863
25885WAT     H277898   1.564   6.491   9.857
25886WAT      O77899   1.325   7.444   8.693
25886WAT     H177900   1.305   7.514   8.760
25886WAT     H277901   1.267   7.456   8.612
25887WAT      O77902   0.473   5.701   5.308
25887WAT     H177903   0.425   5.755   5.376
25887WAT     H277904   0.569   5.690   5.335
25888WAT      O77905   6.524   7.222   1.713
25888WAT     H177906   6.514   7.320   1.731
25888WAT     H277907   6.582   7.210   1.633
25889WAT      O77908   2.399   7.573   3.881
25889WAT     H177909   2.456   7.494   3.907
25889WAT     H277910   2.310   7.540   3.849
25890WAT      O77911   8.354   1.917   0.455
25890WAT     H177912   8.256   1.914   0.433
25890WAT     H277913   8.397   1.992   0.404
25891WAT      O77914   5.789   9.560   7.699
25891WAT     H177915   5.846   9.641   7.709
25891WAT     H277916   5.773   9.542   7.602
25892WAT      O77917   7.858   4.911   8.219
25892WAT     H177918   7.870   5.011   8.224
25892WAT     H277919   7.762   4.889   8.231
25893WAT      O77920   3.640   1.850   5.506
25893WAT     H177921   3.631   1.914   5.430
25893WAT     H277922   3.555   1.847   5.558
25894WAT      O77923   6.581   1.268   7.403
25894WAT     H177924   6.543   1.351   7.362
25894WAT     H277925   6.580   1.277   7.503
25895WAT      O77926   4.466   0.159   0.499
25895WAT     H177927   4.478   0.060   0.491
25895WAT     H277928   4.448   0.198   0.408
25896WAT      O77929   9.009   7.591   9.468
25896WAT     H177930   9.108   7.593   9.456
25896WAT     H277931   8.970   7.521   9.408
25897WAT      O77932   3.305   1.486   1.782
25897WAT     H177933   3.232   1.421   1.765
25897WAT     H277934   3.390   1.437   1.802
25898WAT      O77935   1.437   3.393   4.178
25898WAT     H177936   1.461   3.476   4.229
25898WAT     H277937   1.513   3.368   4.118
25899WAT      O77938   8.199   6.017   5.095
25899WAT     H177939   8.147   5.936   5.119
25899WAT     H277940   8.154   6.066   5.020
25900WAT      O77941   6.079   3.647   5.817
25900WAT     H177942   5.985   3.669   5.789
25900WAT     H277943   6.142   3.716   5.780
25901WAT      O77944   2.444   4.285   1.263
25901WAT     H177945   2.541   4.281   1.238
25901WAT     H277946   2.412   4.380   1.256
25902WAT      O77947   4.759   2.316   5.489
25902WAT     H177948   4.671   2.325   5.534
25902WAT     H277949   4.830   2.362   5.543
25903WAT      O77950   6.462   9.300   1.197
25903WAT     H177951   6.544   9.278   1.251
25903WAT     H277952   6.412   9.216   1.178
25904WAT      O77953   1.798   0.473   6.430
25904WAT     H177954   1.706   0.437   6.445
25904WAT     H277955   1.792   0.567   6.395
25905WAT      O77956   4.592   9.051   4.338
25905WAT     H177957   4.513   8.993   4.361
25905WAT     H277958   4.674   8.994   4.334
25906WAT      O77959   3.068   7.352   9.681
25906WAT     H177960   3.068   7.303   9.594
25906WAT     H277961   2.984   7.404   9.691
25907WAT      O77962   0.935   2.642   0.837
25907WAT     H177963   1.000   2.716   0.820
25907WAT     H277964   0.926   2.586   0.754
25908WAT      O77965   3.161   2.877   0.958
25908WAT     H177966   3.258   2.869   0.983
25908WAT     H277967   3.105   2.875   1.040
25909WAT      O77968   0.971   5.131   2.406
25909WAT     H177969   0.936   5.218   2.441
25909WAT     H277970   1.001   5.074   2.482
25910WAT      O77971   0.330   1.169   9.388
25910WAT     H177972   0.284   1.258   9.385
25910WAT     H277973   0.336   1.132   9.295
25911WAT      O77974   2.226   6.916   7.268
25911WAT     H177975   2.209   6.860   7.187
25911WAT     H277976   2.190   6.869   7.349
25912WAT      O77977   3.542   8.946   9.307
25912WAT     H177978   3.507   8.934   9.214
25912WAT     H277979   3.582   8.860   9.339
25913WAT      O77980   3.920   7.833   2.721
25913WAT     H177981   3.931   7.927   2.752
25913WAT     H277982   4.008   7.797   2.689
25914WAT      O77983   9.798   5.357   2.464
25914WAT     H177984   9.888   5.378   2.425
25914WAT     H277985   9.741   5.314   2.394
25915WAT      O77986   9.642   9.062   1.311
25915WAT     H177987   9.692   9.075   1.226
25915WAT     H277988   9.632   9.150   1.358
25916WAT      O77989   4.461   8.164   7.252
25916WAT     H177990   4.373   8.163   7.301
25916WAT     H277991   4.519   8.090   7.285
25917WAT      O77992   7.063   7.668   6.208
25917WAT     H177993   7.064   7.568   6.206
25917WAT     H277994   7.149   7.703   6.170
25918WAT      O77995   7.324   8.679   4.175
25918WAT     H177996   7.414   8.705   4.140
25918WAT     H277997   7.316   8.580   4.177
25919WAT      O77998   4.424   2.710   3.352
25919WAT     H177999   4.335   2.755   3.343
25919WAT     H278000   4.484   2.765   3.411
25920WAT      O78001   4.031   0.733   8.215
25920WAT     H178002   3.974   0.773   8.287
25920WAT     H278003   4.029   0.634   8.221
25921WAT      O78004   0.549   9.625   0.044
25921WAT     H178005   0.609   9.546   0.035
25921WAT     H278006   0.464   9.597   0.090
25922WAT      O78007   4.069   9.083   1.590
25922WAT     H178008   4.093   8.988   1.571
25922WAT     H278009   4.030   9.089   1.682
25923WAT      O78010   3.398   3.666   0.055
25923WAT     H178011   3.457   3.625   0.125
25923WAT     H278012   3.302   3.655   0.082
25924WAT      O78013   1.577   1.521   4.639
25924WAT     H178014   1.553   1.618   4.640
25924WAT     H278015   1.609   1.494   4.730
25925WAT      O78016   4.055   3.487   4.687
25925WAT     H178017   4.147   3.525   4.686
25925WAT     H278018   4.016   3.491   4.595
25926WAT      O78019   8.932   7.995   2.365
25926WAT     H178020   8.968   7.942   2.443
25926WAT     H278021   8.872   7.936   2.310
25927WAT      O78022   0.389   7.834   1.267
25927WAT     H178023   0.318   7.902   1.280
25927WAT     H278024   0.352   7.743   1.283
25928WAT      O78025   4.569   9.605   7.509
25928WAT     H178026   4.639   9.672   7.532
25928WAT     H278027   4.600   9.549   7.432
25929WAT      O78028   8.315   6.438   0.195
25929WAT     H178029   8.311   6.398   0.287
25929WAT     H278030   8.391   6.397   0.145
25930WAT      O78031   8.373   8.720   8.059
25930WAT     H178032   8.353   8.773   8.141
25930WAT     H278033   8.293   8.665   8.035
25931WAT      O78034   7.652   6.465   8.481
25931WAT     H178035   7.667   6.562   8.503
25931WAT     H278036   7.592   6.458   8.402
25932WAT      O78037   8.117   3.267   9.341
25932WAT     H178038   8.081   3.240   9.430
25932WAT     H278039   8.215   3.251   9.338
25933WAT      O78040   0.367   3.589   5.665
25933WAT     H178041   0.297   3.564   5.598
25933WAT     H278042   0.450   3.536   5.648
25934WAT      O78043   4.099   1.850   9.494
25934WAT     H178044   4.029   1.839   9.422
25934WAT     H278045   4.084   1.936   9.542
25935WAT      O78046   6.579   3.336   5.381
25935WAT     H178047   6.583   3.236   5.374
25935WAT     H278048   6.612   3.365   5.471
25936WAT      O78049   5.790   8.904   8.338
25936WAT     H178050   5.772   8.895   8.240
25936WAT     H278051   5.713   8.952   8.381
25937WAT      O78052   4.300   8.196   5.032
25937WAT     H178053   4.292   8.116   5.092
25937WAT     H278054   4.390   8.197   4.990
25938WAT      O78055   1.098   6.561   3.287
25938WAT     H178056   1.150   6.490   3.335
25938WAT     H278057   1.105   6.546   3.188
25939WAT      O78058   0.600   0.160   8.969
25939WAT     H178059   0.610   0.118   8.879
25939WAT     H278060   0.654   0.109   9.036
25940WAT      O78061   0.391   1.167   9.680
25940WAT     H178062   0.451   1.243   9.707
25940WAT     H278063   0.374   1.172   9.582
25941WAT      O78064   3.477   3.177   4.760
25941WAT     H178065   3.576   3.165   4.771
25941WAT     H278066   3.441   3.101   4.705
25942WAT      O78067   3.788   2.759   0.470
25942WAT     H178068   3.793   2.717   0.380
25942WAT     H278069   3.771   2.689   0.539
25943WAT      O78070   9.100   9.246   2.300
25943WAT     H178071   9.018   9.286   2.259
25943WAT     H278072   9.161   9.320   2.329
25944WAT      O78073   4.916   0.153   3.160
25944WAT     H178074   4.876   0.222   3.099
25944WAT     H278075   4.868   0.066   3.147
25945WAT      O78076   3.944   9.040   1.153
25945WAT     H178077   3.886   9.111   1.192
25945WAT     H278078   3.892   8.987   1.086
25946WAT      O78079   9.259   1.314   8.478
25946WAT     H178080   9.343   1.340   8.430
25946WAT     H278081   9.259   1.355   8.569
25947WAT      O78082   3.425   0.783   9.140
25947WAT     H178083   3.522   0.809   9.145
25947WAT     H278084   3.368   0.862   9.158
25948WAT      O78085   5.323   6.462   6.260
25948WAT     H178086   5.345   6.458   6.358
25948WAT     H278087   5.359   6.547   6.222
25949WAT      O78088   2.254   3.549   4.555
25949WAT     H178089   2.209   3.570   4.642
25949WAT     H278090   2.239   3.623   4.491
25950WAT      O78091   0.492   9.785   4.749
25950WAT     H178092   0.584   9.756   4.724
25950WAT     H278093   0.454   9.842   4.676
25951WAT      O78094   8.753   4.764   7.853
25951WAT     H178095   8.793   4.691   7.910
25951WAT     H278096   8.734   4.844   7.910
25952WAT      O78097   6.672   1.248   9.456
25952WAT     H178098   6.759   1.198   9.450
25952WAT     H278099   6.665   1.291   9.546
25953WAT      O78100   3.662   1.590   7.111
25953WAT     H178101   3.737   1.588   7.045
25953WAT     H278102   3.586   1.533   7.077
25954WAT      O78103   8.856   8.131   6.015
25954WAT     H178104   8.841   8.158   6.111
25954WAT     H278105   8.943   8.083   6.007
25955WAT      O78106   9.198   5.845   3.040
25955WAT     H178107   9.281   5.821   2.989
25955WAT     H278108   9.160   5.762   3.082
25956WAT      O78109   3.217   2.187   6.512
25956WAT     H178110   3.164   2.271   6.515
25956WAT     H278111   3.268   2.182   6.426
25957WAT      O78112   9.263   5.429   2.131
25957WAT     H178113   9.178   5.476   2.104
25957WAT     H278114   9.245   5.372   2.211
25958WAT      O78115   5.006   0.782   8.677
25958WAT     H178116   5.053   0.857   8.723
25958WAT     H278117   5.051   0.763   8.590
25959WAT      O78118   8.170   6.990   5.410
25959WAT     H178119   8.201   7.067   5.354
25959WAT     H278120   8.156   7.019   5.504
25960WAT      O78121   2.667   8.497   4.091
25960WAT     H178122   2.745   8.527   4.147
25960WAT     H278123   2.606   8.441   4.147
25961WAT      O78124   4.879   7.261   2.654
25961WAT     H178125   4.842   7.236   2.743
25961WAT     H278126   4.831   7.212   2.581
25962WAT      O78127   2.781   1.456   8.566
25962WAT     H178128   2.867   1.501   8.542
25962WAT     H278129   2.705   1.517   8.550
25963WAT      O78130   6.561   4.893   2.710
25963WAT     H178131   6.587   4.913   2.804
25963WAT     H278132   6.639   4.853   2.662
25964WAT      O78133   5.482   5.716   6.466
25964WAT     H178134   5.488   5.802   6.416
25964WAT     H278135   5.389   5.705   6.501
25965WAT      O78136   0.017   1.532   7.334
25965WAT     H178137  -0.057   1.571   7.279
25965WAT     H278138   0.098   1.520   7.277
25966WAT      O78139   4.860   5.955   5.985
25966WAT     H178140   4.804   6.032   5.954
25966WAT     H278141   4.817   5.869   5.959
25967WAT      O78142   3.376   9.197   5.167
25967WAT     H178143   3.320   9.190   5.250
25967WAT     H278144   3.328   9.155   5.090
25968WAT      O78145   4.019   6.659   8.113
25968WAT     H178146   4.089   6.728   8.133
25968WAT     H278147   3.984   6.673   8.020
25969WAT      O78148   0.125   0.673   1.525
25969WAT     H178149   0.111   0.716   1.436
25969WAT     H278150   0.056   0.707   1.590
25970WAT      O78151   8.682   1.135   9.480
25970WAT     H178152   8.619   1.170   9.550
25970WAT     H278153   8.629   1.087   9.409
25971WAT      O78154   8.134   6.736   2.955
25971WAT     H178155   8.172   6.715   3.045
25971WAT     H278156   8.153   6.832   2.932
25972WAT      O78157   6.523   5.039   7.332
25972WAT     H178158   6.602   5.087   7.294
25972WAT     H278159   6.543   5.011   7.425
25973WAT      O78160   0.953   2.318   6.094
25973WAT     H178161   1.026   2.380   6.122
25973WAT     H278162   0.992   2.229   6.071
25974WAT      O78163   7.453   3.842   5.137
25974WAT     H178164   7.398   3.919   5.104
25974WAT     H278165   7.392   3.773   5.178
25975WAT      O78166   6.996   9.000   7.654
25975WAT     H178167   6.927   9.053   7.703
25975WAT     H278168   6.997   8.906   7.688
25976WAT      O78169   1.552   4.637   0.487
25976WAT     H178170   1.505   4.722   0.465
25976WAT     H278171   1.504   4.589   0.560
25977WAT      O78172   1.560   7.588   8.578
25977WAT     H178173   1.511   7.672   8.558
25977WAT     H278174   1.496   7.511   8.577
25978WAT      O78175   4.092   1.186   5.400
25978WAT     H178176   4.002   1.145   5.417
25978WAT     H278177   4.120   1.239   5.480
25979WAT      O78178   2.955   6.092   4.617
25979WAT     H178179   2.952   6.097   4.517
25979WAT     H278180   2.875   6.043   4.651
25980WAT      O78181   3.034   1.165   9.142
25980WAT     H178182   2.948   1.177   9.093
25980WAT     H278183   3.016   1.138   9.236
25981WAT      O78184   4.666   1.974   6.604
25981WAT     H178185   4.605   1.926   6.542
25981WAT     H278186   4.640   2.070   6.610
25982WAT      O78187   6.970   3.010   0.117
25982WAT     H178188   6.878   3.020   0.154
25982WAT     H278189   6.974   3.051   0.025
25983WAT      O78190   5.658   9.644   5.823
25983WAT     H178191   5.601   9.725   5.835
25983WAT     H278192   5.744   9.670   5.778
25984WAT      O78193   5.237   6.007   7.521
25984WAT     H178194   5.255   6.045   7.612
25984WAT     H278195   5.138   6.000   7.506
25985WAT      O78196   9.814   1.386   9.033
25985WAT     H178197   9.756   1.452   8.986
25985WAT     H278198   9.758   1.324   9.088
25986WAT      O78199   1.761   1.761   2.528
25986WAT     H178200   1.825   1.825   2.571
25986WAT     H278201   1.780   1.668   2.560
25987WAT      O78202   6.492   4.173   8.343
25987WAT     H178203   6.426   4.134   8.407
25987WAT     H278204   6.538   4.251   8.385
25988WAT      O78205   3.453   1.240   5.152
25988WAT     H178206   3.378   1.258   5.088
25988WAT     H278207   3.531   1.203   5.102
25989WAT      O78208   9.534   7.156   6.336
25989WAT     H178209   9.579   7.142   6.424
25989WAT     H278210   9.474   7.236   6.342
25990WAT      O78211   3.882   6.807   6.621
25990WAT     H178212   3.949   6.797   6.547
25990WAT     H278213   3.896   6.734   6.688
25991WAT      O78214   3.070   2.940   2.641
25991WAT     H178215   3.094   3.025   2.595
25991WAT     H278216   2.976   2.946   2.675
25992WAT      O78217   1.244   0.748   4.536
25992WAT     H178218   1.309   0.673   4.543
25992WAT     H278219   1.236   0.777   4.440
25993WAT      O78220   7.143   6.834   2.039
25993WAT     H178221   7.238   6.810   2.061
25993WAT     H278222   7.103   6.883   2.117
25994WAT      O78223   9.325   7.760   6.652
25994WAT     H178224   9.378   7.839   6.618
25994WAT     H278225   9.304   7.700   6.575
25995WAT      O78226   4.980   0.910   3.141
25995WAT     H178227   4.900   0.862   3.106
25995WAT     H278228   5.036   0.942   3.064
25996WAT      O78229   5.319   0.328   3.182
25996WAT     H178230   5.274   0.304   3.096
25996WAT     H278231   5.252   0.326   3.256
25997WAT      O78232   2.813   1.430   7.299
25997WAT     H178233   2.739   1.364   7.284
25997WAT     H278234   2.894   1.401   7.248
25998WAT      O78235   1.991   8.945   7.761
25998WAT     H178236   1.987   8.986   7.670
25998WAT     H278237   1.912   8.976   7.815
25999WAT      O78238   1.252   4.491   7.140
25999WAT     H178239   1.320   4.496   7.067
25999WAT     H278240   1.182   4.424   7.116
26000WAT      O78241   4.987   9.301   6.181
26000WAT     H178242   5.015   9.295   6.085
26000WAT     H278243   5.067   9.323   6.237
26001WAT      O78244   6.116   3.366   5.821
26001WAT     H178245   6.191   3.328   5.767
26001WAT     H278246   6.079   3.447   5.775
26002WAT      O78247   1.096   9.770   6.762
26002WAT     H178248   1.174   9.770   6.825
26002WAT     H278249   1.071   9.864   6.741
26003WAT      O78250   6.183   3.195   1.722
26003WAT     H178251   6.144   3.243   1.643
26003WAT     H278252   6.211   3.103   1.695
26004WAT      O78253   3.325   9.268   4.892
26004WAT     H178254   3.392   9.302   4.826
26004WAT     H278255   3.309   9.170   4.875
26005WAT      O78256   5.328   6.005   2.082
26005WAT     H178257   5.250   5.965   2.129
26005WAT     H278258   5.331   5.973   1.987
26006WAT      O78259   4.933   7.117   7.398
26006WAT     H178260   4.934   7.212   7.428
26006WAT     H278261   4.998   7.064   7.452
26007WAT      O78262   6.443   2.450   3.522
26007WAT     H178263   6.453   2.546   3.550
26007WAT     H278264   6.371   2.443   3.453
26008WAT      O78265   4.788   7.643   5.662
26008WAT     H178266   4.723   7.671   5.732
26008WAT     H278267   4.738   7.615   5.580
26009WAT      O78268   5.448   8.491   7.288
26009WAT     H178269   5.526   8.531   7.336
26009WAT     H278270   5.366   8.500   7.345
26010WAT      O78271   9.228   0.863   3.105
26010WAT     H178272   9.189   0.806   3.177
26010WAT     H278273   9.262   0.949   3.144
26011WAT      O78274   4.634   2.159   1.595
26011WAT     H178275   4.626   2.181   1.498
26011WAT     H278276   4.638   2.243   1.649
26012WAT      O78277   3.260   1.317   0.163
26012WAT     H178278   3.168   1.323   0.125
26012WAT     H278279   3.261   1.355   0.255
26013WAT      O78280   4.675   7.140   5.788
26013WAT     H178281   4.667   7.053   5.837
26013WAT     H278282   4.627   7.211   5.839
26014WAT      O78283   9.483   4.398   5.773
26014WAT     H178284   9.448   4.326   5.713
26014WAT     H278285   9.416   4.473   5.778
26015WAT      O78286   5.720   5.552   3.417
26015WAT     H178287   5.729   5.535   3.319
26015WAT     H278288   5.733   5.467   3.468
26016WAT      O78289   5.191   6.135   8.380
26016WAT     H178290   5.195   6.159   8.282
26016WAT     H278291   5.116   6.185   8.423
26017WAT      O78292   4.643   5.338   2.898
26017WAT     H178293   4.717   5.272   2.887
26017WAT     H278294   4.606   5.332   2.991
26018WAT      O78295   8.519   9.674   0.020
26018WAT     H178296   8.541   9.635  -0.069
26018WAT     H278297   8.513   9.601   0.089
26019WAT      O78298   4.972   2.414   5.661
26019WAT     H178299   5.037   2.351   5.703
26019WAT     H278300   4.940   2.480   5.729
26020WAT      O78301   5.875   5.082   1.544
26020WAT     H178302   5.802   5.120   1.601
26020WAT     H278303   5.851   4.988   1.518
26021WAT      O78304   7.840   9.691   2.839
26021WAT     H178305   7.765   9.700   2.774
26021WAT     H278306   7.859   9.780   2.881
26022WAT      O78307   3.639   0.358   6.041
26022WAT     H178308   3.549   0.360   6.083
26022WAT     H278309   3.663   0.264   6.016
26023WAT      O78310   8.963   2.625   7.968
26023WAT     H178311   8.978   2.685   8.047
26023WAT     H278312   8.869   2.591   7.969
26024WAT      O78313   8.551   5.591   1.504
26024WAT     H178314   8.470   5.612   1.559
26024WAT     H278315   8.615   5.668   1.508
26025WAT      O78316   6.995   3.235   3.328
26025WAT     H178317   6.899   3.216   3.304
26025WAT     H278318   7.022   3.178   3.406
26026WAT      O78319   7.803   4.494   4.360
26026WAT     H178320   7.891   4.468   4.402
26026WAT     H278321   7.788   4.592   4.371
26027WAT      O78322   7.536   4.161   9.285
26027WAT     H178323   7.569   4.083   9.339
26027WAT     H278324   7.615   4.207   9.244
26028WAT      O78325   7.189   1.487   0.725
26028WAT     H178326   7.271   1.455   0.773
26028WAT     H278327   7.166   1.423   0.652
26029WAT      O78328   1.227   3.999   7.225
26029WAT     H178329   1.134   4.005   7.190
26029WAT     H278330   1.229   4.025   7.321
26030WAT      O78331   3.928   3.853   8.669
26030WAT     H178332   3.979   3.932   8.703
26030WAT     H278333   3.990   3.776   8.656
26031WAT      O78334   1.685   2.243   2.801
26031WAT     H178335   1.683   2.315   2.732
26031WAT     H278336   1.778   2.208   2.809
26032WAT      O78337   9.438   5.317   7.756
26032WAT     H178338   9.470   5.386   7.692
26032WAT     H278339   9.351   5.279   7.724
26033WAT      O78340   0.383   9.031   5.322
26033WAT     H178341   0.302   8.992   5.367
26033WAT     H278342   0.354   9.094   5.250
26034WAT      O78343   1.835   2.678   4.718
26034WAT     H178344   1.918   2.708   4.670
26034WAT     H278345   1.797   2.755   4.769
26035WAT      O78346   1.174   9.305   5.387
26035WAT     H178347   1.255   9.359   5.364
26035WAT     H278348   1.169   9.294   5.487
26036WAT      O78349   0.897   5.589   0.420
26036WAT     H178350   0.967   5.527   0.457
26036WAT     H278351   0.843   5.540   0.352
26037WAT      O78352   2.527   0.177   9.631
26037WAT     H178353   2.572   0.142   9.713
26037WAT     H278354   2.430   0.152   9.633
26038WAT      O78355   7.892   5.999   9.110
26038WAT     H178356   7.917   5.907   9.080
26038WAT     H278357   7.963   6.034   9.171
26039WAT      O78358   0.872   4.256   8.207
26039WAT     H178359   0.791   4.217   8.250
26039WAT     H278360   0.888   4.348   8.242
26040WAT      O78361   3.825   5.875   9.531
26040WAT     H178362   3.760   5.920   9.592
26040WAT     H278363   3.918   5.896   9.562
26041WAT      O78364   4.170   5.722   0.225
26041WAT     H178365   4.130   5.810   0.252
26041WAT     H278366   4.265   5.718   0.256
26042WAT      O78367   8.787   5.374   3.722
26042WAT     H178368   8.687   5.369   3.722
26042WAT     H278369   8.816   5.466   3.747
26043WAT      O78370   3.677   4.224   1.553
26043WAT     H178371   3.671   4.168   1.470
26043WAT     H278372   3.773   4.234   1.580
26044WAT      O78373   8.682   2.655   0.297
26044WAT     H178374   8.751   2.726   0.282
26044WAT     H278375   8.645   2.663   0.390
26045WAT      O78376   5.757   2.189   3.639
26045WAT     H178377   5.837   2.249   3.645
26045WAT     H278378   5.770   2.111   3.700
26046WAT      O78379   6.942   9.735   6.347
26046WAT     H178380   6.959   9.776   6.257
26046WAT     H278381   7.018   9.756   6.408
26047WAT      O78382   2.470   4.662   8.381
26047WAT     H178383   2.413   4.734   8.419
26047WAT     H278384   2.476   4.586   8.447
26048WAT      O78385   7.953   1.300   0.290
26048WAT     H178386   8.034   1.249   0.263
26048WAT     H278387   7.949   1.386   0.239
26049WAT      O78388   6.467   3.021   2.153
26049WAT     H178389   6.398   3.056   2.217
26049WAT     H278390   6.490   3.092   2.087
26050WAT      O78391   7.167   5.853   5.608
26050WAT     H178392   7.250   5.891   5.650
26050WAT     H278393   7.140   5.770   5.656
26051WAT      O78394   8.965   2.168   3.493
26051WAT     H178395   8.941   2.235   3.563
26051WAT     H278396   9.025   2.098   3.532
26052WAT      O78397   8.418   2.570   6.688
26052WAT     H178398   8.359   2.632   6.739
26052WAT     H278399   8.511   2.574   6.725
26053WAT      O78400   3.577   0.731   5.864
26053WAT     H178401   3.527   0.814   5.889
26053WAT     H278402   3.659   0.723   5.921
26054WAT      O78403   1.424   6.217   9.098
26054WAT     H178404   1.457   6.228   9.192
26054WAT     H278405   1.339   6.267   9.087
26055WAT      O78406   0.981   0.761   0.781
26055WAT     H178407   0.968   0.668   0.814
26055WAT     H278408   0.892   0.806   0.769
26056WAT      O78409   3.879   2.921   1.935
26056WAT     H178410   3.970   2.882   1.946
26056WAT     H278411   3.816   2.876   1.999
26057WAT      O78412   8.313   7.810   0.935
26057WAT     H178413   8.388   7.793   0.998
26057WAT     H278414   8.243   7.867   0.979
26058WAT      O78415   3.725   2.080   3.507
26058WAT     H178416   3.725   1.991   3.460
26058WAT     H278417   3.758   2.068   3.600
26059WAT      O78418   4.943   1.516   0.636
26059WAT     H178419   4.860   1.530   0.690
26059WAT     H278420   5.023   1.540   0.691
26060WAT      O78421   9.563   7.449   2.478
26060WAT     H178422   9.537   7.415   2.387
26060WAT     H278423   9.488   7.434   2.542
26061WAT      O78424   8.460   6.673   2.963
26061WAT     H178425   8.461   6.574   2.979
26061WAT     H278426   8.501   6.693   2.874
26062WAT      O78427   2.782   8.575   5.940
26062WAT     H178428   2.819   8.653   5.887
26062WAT     H278429   2.697   8.602   5.983
26063WAT      O78430   4.668   1.605   1.554
26063WAT     H178431   4.603   1.607   1.630
26063WAT     H278432   4.736   1.532   1.571
26064WAT      O78433   7.596   2.044   7.411
26064WAT     H178434   7.589   1.952   7.450
26064WAT     H278435   7.525   2.103   7.450
26065WAT      O78436   9.296   2.862   8.808
26065WAT     H178437   9.324   2.767   8.801
26065WAT     H278438   9.214   2.869   8.865
26066WAT      O78439   9.328   1.756   4.160
26066WAT     H178440   9.297   1.785   4.069
26066WAT     H278441   9.362   1.835   4.211
26067WAT      O78442   1.379   5.838   7.099
26067WAT     H178443   1.342   5.840   7.006
26067WAT     H278444   1.414   5.747   7.120
26068WAT      O78445   6.207   9.220   3.566
26068WAT     H178446   6.227   9.178   3.654
26068WAT     H278447   6.292   9.235   3.515
26069WAT      O78448   7.125   2.794   1.233
26069WAT     H178449   7.054   2.810   1.164
26069WAT     H278450   7.166   2.704   1.218
26070WAT      O78451   9.258   4.857   4.515
26070WAT     H178452   9.291   4.944   4.477
26070WAT     H278453   9.201   4.876   4.595
26071WAT      O78454   4.956   3.470   8.539
26071WAT     H178455   5.012   3.477   8.622
26071WAT     H278456   4.922   3.560   8.514
26072WAT      O78457   2.840   6.297   4.764
26072WAT     H178458   2.911   6.252   4.710
26072WAT     H278459   2.771   6.336   4.704
26073WAT      O78460   6.543   4.375   7.179
26073WAT     H178461   6.603   4.417   7.111
26073WAT     H278462   6.448   4.391   7.154
26074WAT      O78463   5.840   8.711   4.531
26074WAT     H178464   5.904   8.672   4.596
26074WAT     H278465   5.748   8.676   4.549
26075WAT      O78466   3.054   5.555   1.250
26075WAT     H178467   3.066   5.591   1.158
26075WAT     H278468   2.977   5.491   1.251
26076WAT      O78469   3.518   8.730   7.387
26076WAT     H178470   3.555   8.744   7.478
26076WAT     H278471   3.477   8.816   7.354
26077WAT      O78472   4.449   1.107   3.634
26077WAT     H178473   4.532   1.115   3.579
26077WAT     H278474   4.455   1.167   3.714
26078WAT      O78475   9.309   9.805   1.261
26078WAT     H178476   9.404   9.802   1.290
26078WAT     H278477   9.275   9.712   1.249
26079WAT      O78478   6.204   4.305   8.303
26079WAT     H178479   6.145   4.375   8.343
26079WAT     H278480   6.289   4.347   8.273
26080WAT      O78481   9.190   6.720   9.575
26080WAT     H178482   9.276   6.756   9.540
26080WAT     H278483   9.155   6.650   9.513
26081WAT      O78484   9.284   1.532   1.228
26081WAT     H178485   9.197   1.490   1.200
26081WAT     H278486   9.270   1.631   1.241
26082WAT      O78487   9.812   9.441   7.210
26082WAT     H178488   9.751   9.520   7.201
26082WAT     H278489   9.758   9.357   7.215
26083WAT      O78490   2.479   4.967   0.225
26083WAT     H178491   2.423   5.050   0.228
26083WAT     H278492   2.516   4.948   0.316
26084WAT      O78493   2.581   9.589   1.523
26084WAT     H178494   2.532   9.524   1.580
26084WAT     H278495   2.665   9.546   1.489
26085WAT      O78496   6.333   1.993   2.130
26085WAT     H178497   6.330   1.913   2.070
26085WAT     H278498   6.244   2.005   2.175
26086WAT      O78499   5.197   7.672   1.036
26086WAT     H178500   5.138   7.731   0.981
26086WAT     H278501   5.240   7.604   0.976
26087WAT      O78502   6.991   0.438   8.256
26087WAT     H178503   6.984   0.523   8.309
26087WAT     H278504   7.038   0.457   8.169
26088WAT      O78505   6.104   7.433   7.873
26088WAT     H178506   6.032   7.495   7.841
26088WAT     H278507   6.165   7.409   7.797
26089WAT      O78508   6.137   4.530   1.966
26089WAT     H178509   6.147   4.566   2.059
26089WAT     H278510   6.100   4.437   1.970
26090WAT      O78511   5.679   4.194   7.643
26090WAT     H178512   5.707   4.110   7.690
26090WAT     H278513   5.659   4.265   7.711
26091WAT      O78514   0.727   3.576   2.857
26091WAT     H178515   0.772   3.643   2.916
26091WAT     H278516   0.786   3.496   2.848
26092WAT      O78517   3.436   4.986   7.105
26092WAT     H178518   3.341   4.989   7.076
26092WAT     H278519   3.473   4.894   7.091
26093WAT      O78520   4.486   1.978   8.008
26093WAT     H178521   4.557   2.023   8.061
26093WAT     H278522   4.400   1.980   8.059
26094WAT      O78523   5.355   9.038   7.632
26094WAT     H178524   5.375   9.084   7.545
26094WAT     H278525   5.295   9.095   7.687
26095WAT      O78526   2.556   8.117   6.437
26095WAT     H178527   2.570   8.197   6.379
26095WAT     H278528   2.551   8.035   6.381
26096WAT      O78529   1.011   4.819   1.093
26096WAT     H178530   1.094   4.807   1.148
26096WAT     H278531   1.023   4.895   1.030
26097WAT      O78532   9.061   2.890   0.007
26097WAT     H178533   9.050   2.792  -0.010
26097WAT     H278534   9.150   2.906   0.051
26098WAT      O78535   8.454   2.583   9.754
26098WAT     H178536   8.541   2.568   9.800
26098WAT     H278537   8.383   2.603   9.822
26099WAT      O78538   0.394   7.207   9.435
26099WAT     H178539   0.408   7.269   9.512
26099WAT     H278540   0.313   7.236   9.384
26100WAT      O78541   2.424   9.192   4.395
26100WAT     H178542   2.507   9.141   4.418
26100WAT     H278543   2.377   9.219   4.480
26101WAT      O78544   0.314   2.520   4.614
26101WAT     H178545   0.231   2.501   4.560
26101WAT     H278546   0.365   2.436   4.627
26102WAT      O78547   3.215   5.332   8.757
26102WAT     H178548   3.177   5.277   8.830
26102WAT     H278549   3.286   5.281   8.708
26103WAT      O78550   8.285   1.464   1.207
26103WAT     H178551   8.360   1.398   1.197
26103WAT     H278552   8.321   1.557   1.198
26104WAT      O78553   0.919   8.846   2.386
26104WAT     H178554   0.940   8.940   2.357
26104WAT     H278555   0.826   8.843   2.423
26105WAT      O78556   6.899   1.074   6.841
26105WAT     H178557   6.987   1.122   6.846
26105WAT     H278558   6.889   1.032   6.751
26106WAT      O78559   8.853   0.893   0.194
26106WAT     H178560   8.930   0.918   0.134
26106WAT     H278561   8.769   0.888   0.141
26107WAT      O78562   0.096   1.192   6.448
26107WAT     H178563   0.084   1.291   6.436
26107WAT     H278564   0.086   1.169   6.545
26108WAT      O78565   1.728   7.444   6.829
26108WAT     H178566   1.663   7.402   6.892
26108WAT     H278567   1.809   7.386   6.820
26109WAT      O78568   4.018   0.243   8.461
26109WAT     H178569   3.991   0.170   8.399
26109WAT     H278570   3.961   0.241   8.543
26110WAT      O78571   0.250   8.078   0.127
26110WAT     H178572   0.228   8.106   0.034
26110WAT     H278573   0.323   8.010   0.125
26111WAT      O78574   0.388   0.673   5.622
26111WAT     H178575   0.342   0.585   5.633
26111WAT     H278576   0.321   0.744   5.599
26112WAT      O78577   7.770   3.098   2.983
26112WAT     H178578   7.761   3.154   2.900
26112WAT     H278579   7.687   3.043   2.995
26113WAT      O78580   7.473   6.222   1.127
26113WAT     H178581   7.518   6.210   1.039
26113WAT     H278582   7.520   6.167   1.197
26114WAT      O78583   3.102   2.758   7.420
26114WAT     H178584   3.160   2.839   7.418
26114WAT     H278585   3.135   2.691   7.353
26115WAT      O78586   9.164   2.376   9.510
26115WAT     H178587   9.146   2.287   9.554
26115WAT     H278588   9.148   2.449   9.576
26116WAT      O78589   8.509   9.263   1.308
26116WAT     H178590   8.417   9.235   1.281
26116WAT     H278591   8.564   9.182   1.325
26117WAT      O78592   9.598   0.289   0.689
26117WAT     H178593   9.549   0.229   0.626
26117WAT     H278594   9.695   0.290   0.665
26118WAT      O78595   4.248   3.445   8.230
26118WAT     H178596   4.270   3.348   8.217
26118WAT     H278597   4.289   3.477   8.316
26119WAT      O78598   0.412   2.830   1.883
26119WAT     H178599   0.412   2.804   1.787
26119WAT     H278600   0.393   2.750   1.940
26120WAT      O78601   0.576   6.081   0.821
26120WAT     H178602   0.603   5.987   0.799
26120WAT     H278603   0.645   6.122   0.881
26121WAT      O78604   2.961   0.799   9.586
26121WAT     H178605   2.894   0.735   9.624
26121WAT     H278606   2.995   0.860   9.658
26122WAT      O78607   6.050   1.509   2.883
26122WAT     H178608   6.013   1.602   2.884
26122WAT     H278609   6.144   1.512   2.849
26123WAT      O78610   9.234   6.229   9.604
26123WAT     H178611   9.229   6.157   9.534
26123WAT     H278612   9.310   6.210   9.665
26124WAT      O78613   3.577   3.731   6.383
26124WAT     H178614   3.553   3.750   6.478
26124WAT     H278615   3.499   3.689   6.337
26125WAT      O78616   4.384   0.469   7.332
26125WAT     H178617   4.332   0.385   7.345
26125WAT     H278618   4.376   0.526   7.414
26126WAT      O78619   7.199   5.790   1.775
26126WAT     H178620   7.221   5.747   1.688
26126WAT     H278621   7.142   5.871   1.760
26127WAT      O78622   8.652   1.276   6.583
26127WAT     H178623   8.711   1.216   6.637
26127WAT     H278624   8.679   1.274   6.487
26128WAT      O78625   1.245   9.172   0.550
26128WAT     H178626   1.165   9.228   0.569
26128WAT     H278627   1.324   9.210   0.598
26129WAT      O78628   9.656   3.126   6.438
26129WAT     H178629   9.731   3.128   6.504
26129WAT     H278630   9.663   3.042   6.383
26130WAT      O78631   9.448   0.223   5.171
26130WAT     H178632   9.398   0.141   5.197
26130WAT     H278633   9.533   0.228   5.223
26131WAT      O78634   1.256   4.041   0.990
26131WAT     H178635   1.306   4.126   0.976
26131WAT     H278636   1.202   4.046   1.074
26132WAT      O78637   1.444   8.988   5.999
26132WAT     H178638   1.347   9.014   6.004
26132WAT     H278639   1.464   8.922   6.072
26133WAT      O78640   3.644   3.291   9.057
26133WAT     H178641   3.602   3.381   9.069
26133WAT     H278642   3.611   3.228   9.127
26134WAT      O78643   6.201   6.859   1.690
26134WAT     H178644   6.287   6.892   1.652
26134WAT     H278645   6.155   6.801   1.623
26135WAT      O78646   3.415   5.030   3.952
26135WAT     H178647   3.474   4.956   3.921
26135WAT     H278648   3.334   5.036   3.895
26136WAT      O78649   4.347   1.141   7.722
26136WAT     H178650   4.306   1.079   7.789
26136WAT     H278651   4.285   1.217   7.704
26137WAT      O78652   7.014   8.154   0.430
26137WAT     H178653   7.006   8.141   0.331
26137WAT     H278654   7.074   8.084   0.468
26138WAT      O78655   7.017   1.243   5.707
26138WAT     H178656   6.920   1.252   5.729
26138WAT     H278657   7.028   1.173   5.636
26139WAT      O78658   1.313   2.350   2.086
26139WAT     H178659   1.363   2.416   2.030
26139WAT     H278660   1.309   2.262   2.038
26140WAT      O78661   2.017   3.532   3.830
26140WAT     H178662   2.108   3.495   3.809
26140WAT     H278663   1.947   3.469   3.797
26141WAT      O78664   6.636   5.527   4.651
26141WAT     H178665   6.597   5.485   4.733
26141WAT     H278666   6.732   5.552   4.669
26142WAT      O78667   2.460   7.013   8.802
26142WAT     H178668   2.413   6.942   8.854
26142WAT     H278669   2.559   6.997   8.805
26143WAT      O78670   2.237   4.315   3.282
26143WAT     H178671   2.263   4.401   3.238
26143WAT     H278672   2.273   4.313   3.375
26144WAT      O78673   0.387   0.547   8.925
26144WAT     H178674   0.309   0.510   8.975
26144WAT     H278675   0.440   0.606   8.986
26145WAT      O78676   1.481   8.971   2.283
26145WAT     H178677   1.448   9.015   2.366
26145WAT     H278678   1.436   9.012   2.203
26146WAT      O78679   4.647   1.305   6.368
26146WAT     H178680   4.624   1.388   6.317
26146WAT     H278681   4.731   1.265   6.330
26147WAT      O78682   7.169   4.792   6.191
26147WAT     H178683   7.268   4.783   6.180
26147WAT     H278684   7.132   4.704   6.222
26148WAT      O78685   3.041   3.319   0.528
26148WAT     H178686   3.114   3.256   0.502
26148WAT     H278687   2.992   3.283   0.607
26149WAT      O78688   3.960   1.043   5.088
26149WAT     H178689   3.937   1.130   5.133
26149WAT     H278690   3.920   0.967   5.140
26150WAT      O78691   9.561   6.800   7.752
26150WAT     H178692   9.531   6.889   7.785
26150WAT     H278693   9.542   6.793   7.654
26151WAT      O78694   1.662   3.834   0.894
26151WAT     H178695   1.726   3.855   0.820
26151WAT     H278696   1.699   3.868   0.981
26152WAT      O78697   7.837   4.231   1.470
26152WAT     H178698   7.855   4.303   1.537
26152WAT     H278699   7.812   4.147   1.519
26153WAT      O78700   3.405   6.163   0.481
26153WAT     H178701   3.487   6.130   0.527
26153WAT     H278702   3.324   6.127   0.528
26154WAT      O78703   1.217   2.080   7.816
26154WAT     H178704   1.238   1.984   7.833
26154WAT     H278705   1.277   2.138   7.872
26155WAT      O78706   3.042   8.446   6.862
26155WAT     H178707   2.999   8.407   6.780
26155WAT     H278708   2.982   8.517   6.900
26156WAT      O78709   8.178   1.577   2.112
26156WAT     H178710   8.203   1.504   2.176
26156WAT     H278711   8.246   1.582   2.039
26157WAT      O78712   3.011   3.232   1.031
26157WAT     H178713   3.038   3.299   1.100
26157WAT     H278714   3.087   3.215   0.969
26158WAT      O78715   5.614   1.254   5.182
26158WAT     H178716   5.522   1.229   5.212
26158WAT     H278717   5.608   1.329   5.116
26159WAT      O78718   1.523   4.876   6.903
26159WAT     H178719   1.595   4.942   6.925
26159WAT     H278720   1.504   4.819   6.983
26160WAT      O78721   0.268   0.763   2.885
26160WAT     H178722   0.232   0.688   2.830
26160WAT     H278723   0.366   0.775   2.866
26161WAT      O78724   9.144   7.770   1.889
26161WAT     H178725   9.110   7.831   1.818
26161WAT     H278726   9.166   7.823   1.971
26162WAT      O78727   7.157   4.197   5.998
26162WAT     H178728   7.094   4.181   6.074
26162WAT     H278729   7.189   4.291   6.000
26163WAT      O78730   9.091   2.280   8.574
26163WAT     H178731   9.155   2.207   8.549
26163WAT     H278732   9.020   2.288   8.504
26164WAT      O78733   6.907   5.875   4.056
26164WAT     H178734   6.932   5.969   4.082
26164WAT     H278735   6.866   5.876   3.964
26165WAT      O78736   9.122   7.305   8.372
26165WAT     H178737   9.122   7.283   8.470
26165WAT     H278738   9.202   7.361   8.351
26166WAT      O78739   5.738   7.209   0.358
26166WAT     H178740   5.650   7.194   0.312
26166WAT     H278741   5.801   7.252   0.295
26167WAT      O78742   3.446   8.945   2.556
26167WAT     H178743   3.398   9.008   2.495
26167WAT     H278744   3.387   8.867   2.576
26168WAT      O78745   4.118   2.831   4.843
26168WAT     H178746   4.138   2.927   4.823
26168WAT     H278747   4.198   2.789   4.887
26169WAT      O78748   2.737   2.266   2.206
26169WAT     H178749   2.691   2.237   2.122
26169WAT     H278750   2.748   2.365   2.205
26170WAT      O78751   8.541   1.793   3.105
26170WAT     H178752   8.595   1.815   3.024
26170WAT     H278753   8.499   1.703   3.093
26171WAT      O78754   3.582   1.464   6.051
26171WAT     H178755   3.540   1.444   6.139
26171WAT     H278756   3.658   1.401   6.035
26172WAT      O78757   7.570   8.651   3.050
26172WAT     H178758   7.588   8.552   3.056
26172WAT     H278759   7.581   8.681   2.955
26173WAT      O78760   8.789   9.205   1.415
26173WAT     H178761   8.742   9.285   1.450
26173WAT     H278762   8.766   9.125   1.471
26174WAT      O78763   2.046   4.217   7.739
26174WAT     H178764   2.135   4.259   7.756
26174WAT     H278765   2.055   4.147   7.668
26175WAT      O78766   7.715   6.044   6.763
26175WAT     H178767   7.649   6.099   6.813
26175WAT     H278768   7.707   6.063   6.665
26176WAT      O78769   3.229   2.239   1.237
26176WAT     H178770   3.251   2.141   1.233
26176WAT     H278771   3.267   2.285   1.157
26177WAT      O78772   9.093   9.396   4.012
26177WAT     H178773   9.083   9.495   4.014
26177WAT     H278774   9.099   9.365   3.918
26178WAT      O78775   7.244   8.981   6.242
26178WAT     H178776   7.213   8.887   6.258
26178WAT     H278777   7.176   9.044   6.280
26179WAT      O78778   9.353   8.567   3.225
26179WAT     H178779   9.389   8.520   3.145
26179WAT     H278780   9.269   8.617   3.200
26180WAT      O78781   9.625   9.444   3.315
26180WAT     H178782   9.529   9.455   3.339
26180WAT     H278783   9.646   9.500   3.234
26181WAT      O78784   5.458   1.336   2.351
26181WAT     H178785   5.364   1.371   2.345
26181WAT     H278786   5.520   1.399   2.303
26182WAT      O78787   0.395   2.875   6.485
26182WAT     H178788   0.357   2.834   6.568
26182WAT     H278789   0.494   2.864   6.485
26183WAT      O78790   2.662   2.918   8.953
26183WAT     H178791   2.566   2.943   8.943
26183WAT     H278792   2.701   2.967   9.031
26184WAT      O78793   4.358   1.412   0.925
26184WAT     H178794   4.340   1.478   0.852
26184WAT     H278795   4.378   1.461   1.010
26185WAT      O78796   1.007   3.171   7.699
26185WAT     H178797   1.105   3.150   7.697
26185WAT     H278798   0.992   3.261   7.659
26186WAT      O78799   7.184   9.786   2.399
26186WAT     H178800   7.113   9.724   2.368
26186WAT     H278801   7.155   9.881   2.385
26187WAT      O78802   9.114   9.535   7.233
26187WAT     H178803   9.134   9.615   7.176
26187WAT     H278804   9.184   9.524   7.303
26188WAT      O78805   7.349   1.157   6.233
26188WAT     H178806   7.417   1.181   6.303
26188WAT     H278807   7.310   1.240   6.194
26189WAT      O78808   9.578   1.281   8.550
26189WAT     H178809   9.574   1.317   8.457
26189WAT     H278810   9.638   1.338   8.605
26190WAT      O78811   3.368   0.253   5.714
26190WAT     H178812   3.306   0.176   5.699
26190WAT     H278813   3.316   0.338   5.709
26191WAT      O78814   0.643   3.836   7.994
26191WAT     H178815   0.590   3.752   7.985
26191WAT     H278816   0.655   3.878   7.904
26192WAT      O78817   7.643   8.115   4.330
26192WAT     H178818   7.638   8.189   4.263
26192WAT     H278819   7.692   8.037   4.291
26193WAT      O78820   1.914   1.537   1.603
26193WAT     H178821   1.874   1.578   1.520
26193WAT     H278822   2.011   1.559   1.607
26194WAT      O78823   8.543   2.187   3.645
26194WAT     H178824   8.624   2.245   3.643
26194WAT     H278825   8.513   2.169   3.551
26195WAT      O78826   7.369   5.835   4.065
26195WAT     H178827   7.320   5.827   3.978
26195WAT     H278828   7.430   5.757   4.077
26196WAT      O78829   7.875   7.610   3.932
26196WAT     H178830   7.943   7.631   3.862
26196WAT     H278831   7.794   7.570   3.888
26197WAT      O78832   4.002   9.642   2.011
26197WAT     H178833   4.054   9.640   1.925
26197WAT     H278834   3.909   9.673   1.992
26198WAT      O78835   8.789   5.758   0.361
26198WAT     H178836   8.728   5.832   0.331
26198WAT     H278837   8.836   5.719   0.281
26199WAT      O78838   2.208   7.273   1.368
26199WAT     H178839   2.256   7.243   1.450
26199WAT     H278840   2.259   7.346   1.324
26200WAT      O78841   6.242   9.750   5.945
26200WAT     H178842   6.338   9.771   5.966
26200WAT     H278843   6.238   9.659   5.903
26201WAT      O78844   4.920   1.955   6.515
26201WAT     H178845   4.824   1.977   6.535
26201WAT     H278846   4.974   1.963   6.599
26202WAT      O78847   2.720   1.166   4.940
26202WAT     H178848   2.773   1.161   5.025
26202WAT     H278849   2.783   1.176   4.863
26203WAT      O78850   0.124   1.961   1.145
26203WAT     H178851   0.215   1.943   1.108
26203WAT     H278852   0.122   1.939   1.243
26204WAT      O78853   0.802   2.039   4.321
26204WAT     H178854   0.866   2.101   4.276
26204WAT     H278855   0.711   2.049   4.280
26205WAT      O78856   2.730   5.117   7.234
26205WAT     H178857   2.804   5.097   7.298
26205WAT     H278858   2.661   5.044   7.238
26206WAT      O78859   2.409   6.484   8.013
26206WAT     H178860   2.430   6.560   7.951
26206WAT     H278861   2.380   6.405   7.960
26207WAT      O78862   8.724   1.024   6.146
26207WAT     H178863   8.712   0.933   6.187
26207WAT     H278864   8.816   1.058   6.165
26208WAT      O78865   8.439   3.848   1.582
26208WAT     H178866   8.402   3.842   1.489
26208WAT     H278867   8.417   3.764   1.631
26209WAT      O78868   0.803   7.611   1.266
26209WAT     H178869   0.882   7.549   1.262
26209WAT     H278870   0.816   7.677   1.340
26210WAT      O78871   1.026   2.568   3.023
26210WAT     H178872   0.968   2.533   3.096
26210WAT     H278873   1.099   2.624   3.063
26211WAT      O78874   4.370   8.676   5.484
26211WAT     H178875   4.391   8.603   5.419
26211WAT     H278876   4.283   8.656   5.531
26212WAT      O78877   8.557   7.050   1.475
26212WAT     H178878   8.548   6.966   1.421
26212WAT     H278879   8.644   7.094   1.453
26213WAT      O78880   6.449   7.429   6.455
26213WAT     H178881   6.375   7.470   6.509
26213WAT     H278882   6.461   7.333   6.483
26214WAT      O78883   1.517   3.308   4.895
26214WAT     H178884   1.508   3.279   4.800
26214WAT     H278885   1.608   3.346   4.910
26215WAT      O78886   2.436   2.482   1.884
26215WAT     H178887   2.363   2.432   1.931
26215WAT     H278888   2.494   2.527   1.951
26216WAT      O78889   1.516   7.876   9.368
26216WAT     H178890   1.587   7.928   9.322
26216WAT     H278891   1.433   7.876   9.311
26217WAT      O78892   7.435   5.218   3.966
26217WAT     H178893   7.485   5.229   4.052
26217WAT     H278894   7.442   5.123   3.935
26218WAT      O78895   0.539   9.386   9.199
26218WAT     H178896   0.538   9.466   9.259
26218WAT     H278897   0.543   9.416   9.103
26219WAT      O78898   8.958   4.144   7.978
26219WAT     H178899   9.041   4.091   7.959
26219WAT     H278900   8.972   4.198   8.061
26220WAT      O78901   9.290   7.126   1.763
26220WAT     H178902   9.288   7.027   1.773
26220WAT     H278903   9.349   7.151   1.686
26221WAT      O78904   8.550   5.926   7.824
26221WAT     H178905   8.546   5.989   7.901
26221WAT     H278906   8.632   5.945   7.770
26222WAT      O78907   9.295   6.906   9.132
26222WAT     H178908   9.350   6.983   9.165
26222WAT     H278909   9.354   6.837   9.091
26223WAT      O78910   3.715   0.049   1.221
26223WAT     H178911   3.725   0.147   1.201
26223WAT     H278912   3.760  -0.004   1.149
26224WAT      O78913   8.716   2.443   2.351
26224WAT     H178914   8.740   2.540   2.363
26224WAT     H278915   8.688   2.428   2.256
26225WAT      O78916   9.035   3.781   1.347
26225WAT     H178917   9.029   3.825   1.258
26225WAT     H278918   8.973   3.826   1.411
26226WAT      O78919   8.506   6.297   5.666
26226WAT     H178920   8.546   6.205   5.666
26226WAT     H278921   8.521   6.339   5.756
26227WAT      O78922   3.403   6.897   8.360
26227WAT     H178923   3.385   6.985   8.317
26227WAT     H278924   3.325   6.836   8.346
26228WAT      O78925   3.818   3.349   1.263
26228WAT     H178926   3.773   3.402   1.335
26228WAT     H278927   3.750   3.323   1.194
26229WAT      O78928   6.531   7.733   0.528
26229WAT     H178929   6.569   7.709   0.439
26229WAT     H278930   6.544   7.656   0.591
26230WAT      O78931   4.132   0.510   1.266
26230WAT     H178932   4.164   0.483   1.176
26230WAT     H278933   4.196   0.479   1.336
26231WAT      O78934   6.977   2.055   3.146
26231WAT     H178935   6.958   2.130   3.082
26231WAT     H278936   6.966   1.967   3.099
26232WAT      O78937   0.535   8.986   0.791
26232WAT     H178938   0.604   8.952   0.727
26232WAT     H278939   0.477   8.911   0.821
26233WAT      O78940   6.557   8.175   5.183
26233WAT     H178941   6.476   8.129   5.148
26233WAT     H278942   6.615   8.203   5.106
26234WAT      O78943   5.144   6.860   9.114
26234WAT     H178944   5.074   6.857   9.186
26234WAT     H278945   5.186   6.951   9.113
26235WAT      O78946   5.269   3.666   2.247
26235WAT     H178947   5.227   3.756   2.262
26235WAT     H278948   5.360   3.679   2.207
26236WAT      O78949   3.490   3.032   6.343
26236WAT     H178950   3.566   3.050   6.405
26236WAT     H278951   3.494   3.096   6.266
26237WAT      O78952   0.751   8.816   3.550
26237WAT     H178953   0.713   8.735   3.595
26237WAT     H278954   0.848   8.824   3.572
26238WAT      O78955   5.963   7.241   6.783
26238WAT     H178956   5.976   7.168   6.851
26238WAT     H278957   6.043   7.244   6.723
26239WAT      O78958   3.102   1.014   4.576
26239WAT     H178959   3.079   1.091   4.517
26239WAT     H278960   3.195   1.026   4.611
26240WAT      O78961   7.819   8.500   4.632
26240WAT     H178962   7.862   8.424   4.583
26240WAT     H278963   7.887   8.571   4.649
26241WAT      O78964   3.746   8.239   1.296
26241WAT     H178965   3.763   8.320   1.352
26241WAT     H278966   3.739   8.158   1.355
26242WAT      O78967   4.623   2.335   7.817
26242WAT     H178968   4.654   2.240   7.813
26242WAT     H278969   4.531   2.339   7.856
26243WAT      O78970   0.910   1.364   8.415
26243WAT     H178971   0.964   1.434   8.368
26243WAT     H278972   0.820   1.357   8.370
26244WAT      O78973   1.754   1.207   2.392
26244WAT     H178974   1.810   1.256   2.326
26244WAT     H278975   1.791   1.221   2.484
26245WAT      O78976   8.512   3.019   1.834
26245WAT     H178977   8.436   3.022   1.769
26245WAT     H278978   8.536   3.112   1.862
26246WAT      O78979   7.781   3.129   1.070
26246WAT     H178980   7.692   3.174   1.068
26246WAT     H278981   7.835   3.166   1.146
26247WAT      O78982   4.155   5.351   6.541
26247WAT     H178983   4.059   5.379   6.535
26247WAT     H278984   4.203   5.410   6.606
26248WAT      O78985   0.898   5.514   5.191
26248WAT     H178986   0.985   5.536   5.145
26248WAT     H278987   0.858   5.433   5.149
26249WAT      O78988   5.305   7.163   5.912
26249WAT     H178989   5.281   7.259   5.903
26249WAT     H278990   5.252   7.122   5.986
26250WAT      O78991   4.697   4.695   6.547
26250WAT     H178992   4.793   4.698   6.573
26250WAT     H278993   4.668   4.786   6.516
26251WAT      O78994   5.575   1.997   7.629
26251WAT     H178995   5.588   1.921   7.693
26251WAT     H278996   5.529   1.962   7.547
26252WAT      O78997   2.648   9.172   2.955
26252WAT     H178998   2.665   9.102   2.885
26252WAT     H278999   2.553   9.167   2.985
26253WAT      O79000   1.684   2.029   4.169
26253WAT     H179001   1.731   1.995   4.088
26253WAT     H279002   1.734   2.002   4.251
26254WAT      O79003   8.751   6.191   4.291
26254WAT     H179004   8.722   6.222   4.382
26254WAT     H279005   8.773   6.093   4.295
26255WAT      O79006   9.300   8.272   9.823
26255WAT     H179007   9.262   8.293   9.732
26255WAT     H279008   9.227   8.238   9.882
26256WAT      O79009   5.072   4.437   8.114
26256WAT     H179010   5.003   4.417   8.183
26256WAT     H279011   5.031   4.432   8.023
26257WAT      O79012   6.214   0.606   1.434
26257WAT     H179013   6.131   0.661   1.424
26257WAT     H279014   6.237   0.564   1.347
26258WAT      O79015   3.511   4.233   5.188
26258WAT     H179016   3.443   4.306   5.194
26258WAT     H279017   3.596   4.261   5.233
26259WAT      O79018   6.522   6.921   9.751
26259WAT     H179019   6.482   6.842   9.704
26259WAT     H279020   6.449   6.975   9.793
26260WAT      O79021   7.840   1.332   1.431
26260WAT     H179022   7.783   1.348   1.512
26260WAT     H279023   7.836   1.412   1.371
26261WAT      O79024   3.001   2.325   8.632
26261WAT     H179025   2.990   2.396   8.563
26261WAT     H279026   3.097   2.295   8.635
26262WAT      O79027   8.351   0.015   5.835
26262WAT     H179028   8.323  -0.063   5.780
26262WAT     H279029   8.385  -0.017   5.924
26263WAT      O79030   3.394   8.107   4.207
26263WAT     H179031   3.404   8.016   4.166
26263WAT     H279032   3.478   8.160   4.191
26264WAT      O79033   7.579   7.799   5.909
26264WAT     H179034   7.651   7.760   5.853
26264WAT     H279035   7.564   7.741   5.990
26265WAT      O79036   5.649   6.166   6.650
26265WAT     H179037   5.560   6.123   6.635
26265WAT     H279038   5.720   6.114   6.604
26266WAT      O79039   5.737   4.440   4.606
26266WAT     H179040   5.690   4.400   4.526
26266WAT     H279041   5.762   4.535   4.586
26267WAT      O79042   4.869   3.211   0.213
26267WAT     H179043   4.849   3.307   0.228
26267WAT     H279044   4.891   3.167   0.300
26268WAT      O79045   1.123   7.901   8.901
26268WAT     H179046   1.189   7.839   8.942
26268WAT     H279047   1.095   7.865   8.812
26269WAT      O79048   5.897   7.892   2.468
26269WAT     H179049   5.983   7.939   2.489
26269WAT     H279050   5.830   7.912   2.539
26270WAT      O79051   3.938   5.673   3.242
26270WAT     H179052   3.961   5.578   3.222
26270WAT     H279053   3.948   5.689   3.340
26271WAT      O79054   4.315   7.063   5.862
26271WAT     H179055   4.219   7.074   5.836
26271WAT     H279056   4.370   7.052   5.780
26272WAT      O79057   8.638   7.538   0.687
26272WAT     H179058   8.713   7.548   0.753
26272WAT     H279059   8.576   7.466   0.717
26273WAT      O79060   0.448   2.203   0.850
26273WAT     H179061   0.515   2.244   0.912
26273WAT     H279062   0.449   2.104   0.861
26274WAT      O79063   3.178   5.326   4.682
26274WAT     H179064   3.164   5.247   4.741
26274WAT     H279065   3.244   5.388   4.723
26275WAT      O79066   2.689   2.384   6.293
26275WAT     H179067   2.664   2.478   6.317
26275WAT     H279068   2.771   2.384   6.237
26276WAT      O79069   5.939   2.255   6.352
26276WAT     H179070   5.944   2.162   6.389
26276WAT     H279071   5.846   2.273   6.320
26277WAT      O79072   8.120   4.933   2.957
26277WAT     H179073   8.165   4.887   2.881
26277WAT     H279074   8.047   4.992   2.922
26278WAT      O79075   0.810   4.675   5.208
26278WAT     H179076   0.798   4.603   5.277
26278WAT     H279077   0.723   4.694   5.164
26279WAT      O79078   4.028   7.867   4.839
26279WAT     H179079   4.127   7.874   4.823
26279WAT     H279080   3.991   7.958   4.859
26280WAT      O79081   2.355   7.991   6.735
26280WAT     H179082   2.337   7.893   6.748
26280WAT     H279083   2.351   8.037   6.823
26281WAT      O79084   6.534   8.130   3.579
26281WAT     H179085   6.600   8.088   3.642
26281WAT     H279086   6.441   8.116   3.613
26282WAT      O79087   5.530   2.702   1.180
26282WAT     H179088   5.539   2.791   1.225
26282WAT     H279089   5.607   2.644   1.206
26283WAT      O79090   1.134   2.088   7.150
26283WAT     H179091   1.228   2.079   7.185
26283WAT     H279092   1.071   2.101   7.226
26284WAT      O79093   8.911   7.304   5.800
26284WAT     H179094   8.873   7.282   5.890
26284WAT     H279095   8.987   7.241   5.780
26285WAT      O79096   7.189   8.496   5.227
26285WAT     H179097   7.272   8.544   5.200
26285WAT     H279098   7.209   8.398   5.238
26286WAT      O79099   8.850   2.338   3.688
26286WAT     H179100   8.832   2.428   3.646
26286WAT     H279101   8.809   2.335   3.779
26287WAT      O79102   6.952   6.723   5.543
26287WAT     H179103   7.040   6.677   5.551
26287WAT     H279104   6.879   6.655   5.535
26288WAT      O79105   0.949   0.528   3.863
26288WAT     H179106   0.894   0.498   3.785
26288WAT     H279107   1.040   0.554   3.830
26289WAT      O79108   2.021   7.054   5.727
26289WAT     H179109   2.073   7.066   5.812
26289WAT     H279110   2.084   7.035   5.652
26290WAT      O79111   5.150   2.695   8.538
26290WAT     H179112   5.133   2.790   8.563
26290WAT     H279113   5.230   2.661   8.588
26291WAT      O79114   9.202   0.146   0.852
26291WAT     H179115   9.171   0.084   0.780
26291WAT     H279116   9.163   0.118   0.940
26292WAT      O79117   1.422   5.816   8.516
26292WAT     H179118   1.476   5.735   8.490
26292WAT     H279119   1.484   5.889   8.544
26293WAT      O79120   9.614   9.107   3.039
26293WAT     H179121   9.573   9.195   3.017
26293WAT     H279122   9.543   9.044   3.070
26294WAT      O79123   6.111   4.461   7.825
26294WAT     H179124   6.100   4.450   7.726
26294WAT     H279125   6.203   4.431   7.851
26295WAT      O79126   1.916   6.120   3.112
26295WAT     H179127   1.958   6.194   3.059
26295WAT     H279128   1.908   6.149   3.207
26296WAT      O79129   8.462   4.073   3.981
26296WAT     H179130   8.511   3.986   3.982
26296WAT     H279131   8.391   4.070   3.911
26297WAT      O79132   5.571   0.305   4.982
26297WAT     H179133   5.602   0.210   4.979
26297WAT     H279134   5.576   0.345   4.890
26298WAT      O79135   6.904   0.372   3.338
26298WAT     H179136   6.936   0.374   3.433
26298WAT     H279137   6.806   0.357   3.335
26299WAT      O79138   7.356   7.384   1.310
26299WAT     H179139   7.454   7.377   1.329
26299WAT     H279140   7.328   7.310   1.249
26300WAT      O79141   5.636   7.978   0.945
26300WAT     H179142   5.697   7.919   0.892
26300WAT     H279143   5.541   7.953   0.927
26301WAT      O79144   3.200   0.984   3.128
26301WAT     H179145   3.153   1.048   3.189
26301WAT     H279146   3.141   0.906   3.109
26302WAT      O79147   1.840   3.797   4.160
26302WAT     H179148   1.779   3.817   4.083
26302WAT     H279149   1.792   3.816   4.246
26303WAT      O79150   4.726   1.429   5.827
26303WAT     H179151   4.657   1.500   5.839
26303WAT     H279152   4.761   1.401   5.917
26304WAT      O79153   0.380   7.309   6.992
26304WAT     H179154   0.431   7.241   6.940
26304WAT     H279155   0.299   7.337   6.940
26305WAT      O79156   6.396   8.059   9.428
26305WAT     H179157   6.471   7.993   9.416
26305WAT     H279158   6.317   8.029   9.374
26306WAT      O79159   1.069   1.917   6.908
26306WAT     H179160   1.138   1.859   6.865
26306WAT     H279161   1.111   1.967   6.984
26307WAT      O79162   5.249   8.684   0.771
26307WAT     H179163   5.298   8.598   0.757
26307WAT     H279164   5.214   8.689   0.864
26308WAT      O79165   1.543   2.714   2.451
26308WAT     H179166   1.521   2.783   2.520
26308WAT     H279167   1.622   2.744   2.397
26309WAT      O79168   5.703   9.083   2.740
26309WAT     H179169   5.718   9.083   2.641
26309WAT     H279170   5.779   9.038   2.785
26310WAT      O79171   3.228   1.632   5.702
26310WAT     H179172   3.207   1.570   5.627
26310WAT     H279173   3.224   1.582   5.789
26311WAT      O79174   7.056   4.489   7.992
26311WAT     H179175   6.974   4.536   7.960
26311WAT     H279176   7.110   4.552   8.049
26312WAT      O79177   6.859   3.173   1.215
26312WAT     H179178   6.873   3.271   1.227
26312WAT     H279179   6.849   3.151   1.118
26313WAT      O79180   3.068   1.705   3.328
26313WAT     H179181   2.982   1.737   3.288
26313WAT     H279182   3.106   1.632   3.271
26314WAT      O79183   3.191   1.908   3.749
26314WAT     H179184   3.259   1.917   3.676
26314WAT     H279185   3.109   1.865   3.713
26315WAT      O79186   9.473   5.549   3.594
26315WAT     H179187   9.561   5.522   3.634
26315WAT     H279188   9.456   5.645   3.613
26316WAT      O79189   9.508   4.960   2.951
26316WAT     H179190   9.449   4.898   3.003
26316WAT     H279191   9.535   5.036   3.009
26317WAT      O79192   4.766   0.724   5.685
26317WAT     H179193   4.833   0.767   5.625
26317WAT     H279194   4.715   0.655   5.634
26318WAT      O79195   3.124   8.289   8.524
26318WAT     H179196   3.155   8.305   8.617
26318WAT     H279197   3.065   8.363   8.494
26319WAT      O79198   7.996   0.821   8.444
26319WAT     H179199   8.058   0.797   8.519
26319WAT     H279200   7.945   0.904   8.468
26320WAT      O79201   0.133   0.425   3.647
26320WAT     H179202   0.187   0.509   3.647
26320WAT     H279203   0.193   0.346   3.636
26321WAT      O79204   7.176   9.179   7.196
26321WAT     H179205   7.216   9.108   7.253
26321WAT     H279206   7.095   9.143   7.150
26322WAT      O79207   9.119   8.952   4.090
26322WAT     H179208   9.184   8.906   4.029
26322WAT     H279209   9.166   8.982   4.173
26323WAT      O79210   4.469   7.159   5.174
26323WAT     H179211   4.421   7.075   5.199
26323WAT     H279212   4.515   7.146   5.086
26324WAT      O79213   6.251   2.203   9.327
26324WAT     H179214   6.341   2.164   9.345
26324WAT     H279215   6.260   2.281   9.265
26325WAT      O79216   8.603   0.825   3.842
26325WAT     H179217   8.553   0.742   3.868
26325WAT     H279218   8.697   0.801   3.819
26326WAT      O79219   4.230   8.542   3.124
26326WAT     H179220   4.185   8.545   3.214
26326WAT     H279221   4.321   8.582   3.132
26327WAT      O79222   7.655   3.420   9.036
26327WAT     H179223   7.669   3.329   8.998
26327WAT     H279224   7.569   3.458   9.001
26328WAT      O79225   7.584   6.674   1.255
26328WAT     H179226   7.512   6.712   1.198
26328WAT     H279227   7.639   6.748   1.293
26329WAT      O79228   7.547   1.702   2.854
26329WAT     H179229   7.510   1.740   2.938
26329WAT     H279230   7.476   1.651   2.806
26330WAT      O79231   7.369   0.717   2.899
26330WAT     H179232   7.324   0.713   2.988
26330WAT     H279233   7.417   0.631   2.883
26331WAT      O79234   3.824   6.056   7.756
26331WAT     H179235   3.878   6.006   7.689
26331WAT     H279236   3.885   6.105   7.818
26332WAT      O79237   0.725   0.554   4.412
26332WAT     H179238   0.771   0.496   4.344
26332WAT     H279239   0.739   0.515   4.504
26333WAT      O79240   8.773   3.372   4.981
26333WAT     H179241   8.835   3.312   5.031
26333WAT     H279242   8.822   3.411   4.902
26334WAT      O79243   3.584   3.981   1.671
26334WAT     H179244   3.576   4.067   1.620
26334WAT     H279245   3.595   4.001   1.768
26335WAT      O79246   2.324   2.784   4.325
26335WAT     H179247   2.250   2.719   4.308
26335WAT     H279248   2.380   2.793   4.243
26336WAT      O79249   9.828   1.140   3.823
26336WAT     H179250   9.849   1.045   3.798
26336WAT     H279251   9.912   1.186   3.851
26337WAT      O79252   2.878   1.478   5.601
26337WAT     H179253   2.861   1.569   5.639
26337WAT     H279254   2.949   1.483   5.532
26338WAT      O79255   3.324   9.331   8.032
26338WAT     H179256   3.241   9.288   8.068
26338WAT     H279257   3.299   9.405   7.970
26339WAT      O79258   6.348   8.486   3.779
26339WAT     H179259   6.354   8.492   3.679
26339WAT     H279260   6.259   8.519   3.809
26340WAT      O79261   8.284   8.737   5.613
26340WAT     H179262   8.220   8.801   5.571
26340WAT     H279263   8.244   8.646   5.614
26341WAT      O79264   8.754   3.808   8.636
26341WAT     H179265   8.676   3.861   8.604
26341WAT     H279266   8.815   3.867   8.691
26342WAT      O79267   2.529   3.004   1.203
26342WAT     H179268   2.609   3.045   1.159
26342WAT     H279269   2.456   2.994   1.135
26343WAT      O79270   7.696   3.414   9.353
26343WAT     H179271   7.698   3.434   9.255
26343WAT     H279272   7.602   3.414   9.386
26344WAT      O79273   5.259   6.812   4.041
26344WAT     H179274   5.325   6.886   4.028
26344WAT     H279275   5.181   6.846   4.095
26345WAT      O79276   6.969   1.513   5.749
26345WAT     H179277   6.904   1.559   5.689
26345WAT     H279278   6.992   1.423   5.711
26346WAT      O79279   7.826   9.125   2.087
26346WAT     H179280   7.738   9.170   2.101
26346WAT     H279281   7.862   9.093   2.175
26347WAT      O79282   5.276   3.334   8.909
26347WAT     H179283   5.308   3.422   8.944
26347WAT     H279284   5.222   3.348   8.826
26348WAT      O79285   4.369   2.612   9.473
26348WAT     H179286   4.297   2.681   9.489
26348WAT     H279287   4.368   2.584   9.377
26349WAT      O79288   0.828   8.175   0.331
26349WAT     H179289   0.809   8.211   0.422
26349WAT     H279290   0.806   8.078   0.328
26350WAT      O79291   6.932   4.598   9.593
26350WAT     H179292   6.852   4.540   9.579
26350WAT     H279293   6.911   4.691   9.564
26351WAT      O79294   5.533   0.864   0.475
26351WAT     H179295   5.508   0.824   0.563
26351WAT     H279296   5.473   0.942   0.455
26352WAT      O79297   8.612   6.333   6.705
26352WAT     H179298   8.568   6.243   6.701
26352WAT     H279299   8.609   6.368   6.798
26353WAT      O79300   7.270   4.047   5.809
26353WAT     H179301   7.210   4.105   5.863
26353WAT     H279302   7.313   3.978   5.869
26354WAT      O79303   6.973   7.135   1.076
26354WAT     H179304   7.005   7.064   1.014
26354WAT     H279305   7.051   7.181   1.118
26355WAT      O79306   1.209   3.961   3.943
26355WAT     H179307   1.258   4.033   3.992
26355WAT     H279308   1.196   3.989   3.847
26356WAT      O79309   2.075   6.475   7.156
26356WAT     H179310   1.995   6.490   7.214
26356WAT     H279311   2.054   6.406   7.087
26357WAT      O79312   7.926   1.865   8.267
26357WAT     H179313   8.022   1.838   8.261
26357WAT     H279314   7.917   1.961   8.238
26358WAT      O79315   2.906   4.551   8.431
26358WAT     H179316   2.851   4.612   8.489
26358WAT     H279317   2.999   4.587   8.424
26359WAT      O79318   7.422   0.486   0.845
26359WAT     H179319   7.357   0.517   0.914
26359WAT     H279320   7.505   0.453   0.890
26360WAT      O79321   2.132   2.894   1.984
26360WAT     H179322   2.180   2.830   2.045
26360WAT     H279323   2.140   2.863   1.890
26361WAT      O79324   8.379   3.978   2.885
26361WAT     H179325   8.376   3.949   2.789
26361WAT     H279326   8.290   3.964   2.928
26362WAT      O79327   2.125   7.107   6.423
26362WAT     H179328   2.171   7.106   6.512
26362WAT     H279329   2.031   7.138   6.435
26363WAT      O79330   4.402   0.441   2.711
26363WAT     H179331   4.329   0.480   2.654
26363WAT     H279332   4.406   0.342   2.697
26364WAT      O79333   4.612   7.834   1.610
26364WAT     H179334   4.616   7.790   1.520
26364WAT     H279335   4.642   7.770   1.680
26365WAT      O79336   3.679   8.229   4.257
26365WAT     H179337   3.727   8.189   4.335
26365WAT     H279338   3.716   8.190   4.172
26366WAT      O79339   3.548   6.592   6.465
26366WAT     H179340   3.554   6.515   6.528
26366WAT     H279341   3.543   6.677   6.517
26367WAT      O79342   9.522   2.416   6.344
26367WAT     H179343   9.593   2.352   6.374
26367WAT     H279344   9.552   2.463   6.261
26368WAT      O79345   5.205   3.478   7.555
26368WAT     H179346   5.123   3.513   7.510
26368WAT     H279347   5.286   3.518   7.512
26369WAT      O79348   8.366   4.862   3.737
26369WAT     H179349   8.303   4.878   3.814
26369WAT     H279350   8.441   4.805   3.767
26370WAT      O79351   1.731   3.284   9.858
26370WAT     H179352   1.784   3.274   9.774
26370WAT     H279353   1.677   3.202   9.873
26371WAT      O79354   2.982   2.783   5.801
26371WAT     H179355   3.004   2.817   5.709
26371WAT     H279356   3.064   2.786   5.858
26372WAT      O79357   7.552   3.249   6.474
26372WAT     H179358   7.494   3.190   6.417
26372WAT     H279359   7.494   3.310   6.528
26373WAT      O79360   8.982   7.328   7.799
26373WAT     H179361   8.894   7.283   7.781
26373WAT     H279362   9.034   7.336   7.713
26374WAT      O79363   9.362   5.077   4.077
26374WAT     H179364   9.306   4.999   4.103
26374WAT     H279365   9.308   5.161   4.083
26375WAT      O79366   6.728   8.776   3.963
26375WAT     H179367   6.670   8.701   3.994
26375WAT     H279368   6.803   8.789   4.027
26376WAT      O79369   6.853   3.735   8.739
26376WAT     H179370   6.827   3.776   8.826
26376WAT     H279371   6.773   3.689   8.699
26377WAT      O79372   2.735   4.696   6.695
26377WAT     H179373   2.701   4.789   6.710
26377WAT     H279374   2.806   4.697   6.625
26378WAT      O79375   1.407   6.006   3.131
26378WAT     H179376   1.503   6.033   3.122
26378WAT     H279377   1.384   5.941   3.059
26379WAT      O79378   5.229   4.689   3.326
26379WAT     H179379   5.309   4.747   3.316
26379WAT     H279380   5.178   4.716   3.408
26380WAT      O79381   2.167   4.902   6.135
26380WAT     H179382   2.088   4.842   6.135
26380WAT     H279383   2.247   4.853   6.099
26381WAT      O79384   1.827   9.154   7.408
26381WAT     H179385   1.760   9.156   7.483
26381WAT     H279386   1.871   9.243   7.399
26382WAT      O79387   7.089   6.947   0.924
26382WAT     H179388   7.173   6.924   0.876
26382WAT     H279389   7.073   6.880   0.997
26383WAT      O79390   0.813   0.875   7.020
26383WAT     H179391   0.908   0.850   7.002
26383WAT     H279392   0.803   0.903   7.115
26384WAT      O79393   7.544   2.333   6.764
26384WAT     H179394   7.601   2.401   6.717
26384WAT     H279395   7.602   2.260   6.800
26385WAT      O79396   0.015   0.417   8.381
26385WAT     H179397  -0.030   0.488   8.326
26385WAT     H279398  -0.023   0.416   8.473
26386WAT      O79399   3.798   5.570   0.150
26386WAT     H179400   3.813   5.648   0.090
26386WAT     H279401   3.726   5.593   0.216
26387WAT      O79402   5.204   7.430   3.001
26387WAT     H179403   5.166   7.344   3.035
26387WAT     H279404   5.233   7.486   3.078
26388WAT      O79405   8.195   8.144   8.284
26388WAT     H179406   8.205   8.084   8.363
26388WAT     H279407   8.212   8.091   8.200
26389WAT      O79408   3.916   7.104   8.533
26389WAT     H179409   3.913   7.100   8.633
26389WAT     H279410   3.861   7.031   8.495
26390WAT      O79411   3.717   8.540   4.728
26390WAT     H179412   3.779   8.615   4.750
26390WAT     H279413   3.623   8.574   4.726
26391WAT      O79414   6.051   0.625   7.455
26391WAT     H179415   5.951   0.617   7.452
26391WAT     H279416   6.077   0.717   7.485
26392WAT      O79417   9.485   5.259   9.655
26392WAT     H179418   9.527   5.265   9.564
26392WAT     H279419   9.441   5.170   9.665
26393WAT      O79420   0.941   3.748   8.223
26393WAT     H179421   0.880   3.825   8.204
26393WAT     H279422   1.012   3.744   8.152
26394WAT      O79423   7.629   4.326   3.477
26394WAT     H179424   7.590   4.343   3.568
26394WAT     H279425   7.728   4.318   3.485
26395WAT      O79426   3.956   1.663   6.215
26395WAT     H179427   3.983   1.759   6.212
26395WAT     H279428   3.970   1.622   6.125
26396WAT      O79429   7.259   4.370   6.289
26396WAT     H179430   7.351   4.391   6.258
26396WAT     H279431   7.255   4.275   6.321
26397WAT      O79432   2.327   7.477   5.496
26397WAT     H179433   2.317   7.575   5.482
26397WAT     H279434   2.421   7.456   5.523
26398WAT      O79435   8.548   6.190   0.338
26398WAT     H179436   8.537   6.217   0.434
26398WAT     H279437   8.588   6.267   0.287
26399WAT      O79438   6.740   7.927   5.715
26399WAT     H179439   6.757   7.993   5.642
26399WAT     H279440   6.725   7.836   5.675
26400WAT      O79441   3.493   9.515   4.071
26400WAT     H179442   3.546   9.439   4.109
26400WAT     H279443   3.525   9.536   3.979
26401WAT      O79444   5.844   8.577   1.312
26401WAT     H179445   5.893   8.527   1.383
26401WAT     H279446   5.748   8.550   1.312
26402WAT      O79447   0.683   7.830   7.366
26402WAT     H179448   0.642   7.896   7.429
26402WAT     H279449   0.648   7.847   7.273
26403WAT      O79450   8.225   7.536   2.588
26403WAT     H179451   8.189   7.619   2.546
26403WAT     H279452   8.155   7.495   2.648
26404WAT      O79453   2.645   1.534   4.778
26404WAT     H179454   2.581   1.457   4.787
26404WAT     H279455   2.705   1.519   4.699
26405WAT      O79456   9.205   0.424   6.494
26405WAT     H179457   9.263   0.443   6.573
26405WAT     H279458   9.231   0.336   6.453
26406WAT      O79459   5.064   6.929   4.189
26406WAT     H179460   5.065   6.962   4.284
26406WAT     H279461   5.037   7.004   4.129
26407WAT      O79462   7.862   7.161   8.294
26407WAT     H179463   7.824   7.105   8.367
26407WAT     H279464   7.922   7.231   8.334
26408WAT      O79465   5.208   7.037   2.017
26408WAT     H179466   5.229   6.974   1.943
26408WAT     H279467   5.270   7.021   2.094
26409WAT      O79468   1.845   3.685   8.865
26409WAT     H179469   1.747   3.687   8.845
26409WAT     H279470   1.893   3.745   8.802
26410WAT      O79471   8.338   2.896   6.004
26410WAT     H179472   8.316   2.811   6.051
26410WAT     H279473   8.389   2.876   5.920
26411WAT      O79474   0.623   6.694   9.186
26411WAT     H179475   0.644   6.792   9.187
26411WAT     H279476   0.694   6.645   9.134
26412WAT      O79477   3.590   4.543   3.174
26412WAT     H179478   3.637   4.612   3.119
26412WAT     H279479   3.493   4.567   3.183
26413WAT      O79480   4.737   9.659   5.409
26413WAT     H179481   4.748   9.754   5.441
26413WAT     H279482   4.811   9.603   5.445
26414WAT      O79483   5.054   4.118   5.068
26414WAT     H179484   5.137   4.169   5.091
26414WAT     H279485   5.042   4.044   5.135
26415WAT      O79486   1.717   3.660   8.547
26415WAT     H179487   1.725   3.739   8.486
26415WAT     H279488   1.675   3.688   8.633
26416WAT      O79489   8.654   9.328   8.129
26416WAT     H179490   8.674   9.269   8.207
26416WAT     H279491   8.685   9.421   8.148
26417WAT      O79492   2.951   4.772   6.519
26417WAT     H179493   3.002   4.698   6.564
26417WAT     H279494   2.991   4.860   6.543
26418WAT      O79495   4.590   1.961   9.011
26418WAT     H179496   4.632   1.976   9.101
26418WAT     H279497   4.491   1.972   9.018
26419WAT      O79498   1.283   3.103   0.255
26419WAT     H179499   1.311   3.082   0.349
26419WAT     H279500   1.255   3.199   0.250
26420WAT      O79501   8.386   0.071   8.173
26420WAT     H179502   8.289   0.057   8.154
26420WAT     H279503   8.439  -0.003   8.132
26421WAT      O79504   5.746   3.161   9.335
26421WAT     H179505   5.798   3.235   9.377
26421WAT     H279506   5.681   3.198   9.269
26422WAT      O79507   1.974   4.271   6.286
26422WAT     H179508   1.948   4.260   6.190
26422WAT     H279509   2.037   4.348   6.294
26423WAT      O79510   7.581   3.157   8.937
26423WAT     H179511   7.639   3.076   8.937
26423WAT     H279512   7.509   3.147   9.006
26424WAT      O79513   8.799   2.801   5.484
26424WAT     H179514   8.816   2.823   5.388
26424WAT     H279515   8.824   2.706   5.501
26425WAT      O79516   7.803   5.381   2.443
26425WAT     H179517   7.802   5.477   2.470
26425WAT     H279518   7.862   5.330   2.505
26426WAT      O79519   4.847   0.491   7.469
26426WAT     H179520   4.928   0.444   7.501
26426WAT     H279521   4.799   0.533   7.546
26427WAT      O79522   1.346   3.555   3.863
26427WAT     H179523   1.308   3.593   3.778
26427WAT     H279524   1.387   3.466   3.844
26428WAT      O79525   5.434   2.495   5.076
26428WAT     H179526   5.344   2.455   5.092
26428WAT     H279527   5.437   2.534   4.984
26429WAT      O79528   6.938   1.892   1.848
26429WAT     H179529   6.981   1.903   1.938
26429WAT     H279530   6.992   1.939   1.779
26430WAT      O79531   8.402   3.135   6.843
26430WAT     H179532   8.418   3.066   6.772
26430WAT     H279533   8.458   3.216   6.824
26431WAT      O79534   5.967   9.702   8.614
26431WAT     H179535   6.049   9.694   8.670
26431WAT     H279536   5.887   9.708   8.673
26432WAT      O79537   4.829   0.267   9.732
26432WAT     H179538   4.746   0.211   9.738
26432WAT     H279539   4.886   0.232   9.657
26433WAT      O79540   7.289   0.699   5.999
26433WAT     H179541   7.318   0.638   6.073
26433WAT     H279542   7.340   0.785   6.004
26434WAT      O79543   1.367   3.507   0.696
26434WAT     H179544   1.297   3.573   0.669
26434WAT     H279545   1.371   3.501   0.796
26435WAT      O79546   5.445   6.450   7.469
26435WAT     H179547   5.418   6.470   7.563
26435WAT     H279548   5.364   6.445   7.411
26436WAT      O79549   2.256   5.904   0.471
26436WAT     H179550   2.336   5.931   0.418
26436WAT     H279551   2.181   5.967   0.452
26437WAT      O79552   5.490   5.168   7.994
26437WAT     H179553   5.440   5.246   7.955
26437WAT     H279554   5.548   5.201   8.069
26438WAT      O79555   4.477   6.045   9.484
26438WAT     H179556   4.427   5.962   9.506
26438WAT     H279557   4.549   6.024   9.417
26439WAT      O79558   7.499   0.074   7.121
26439WAT     H179559   7.418   0.069   7.181
26439WAT     H279560   7.471   0.105   7.030
26440WAT      O79561   8.678   6.614   2.168
26440WAT     H179562   8.630   6.649   2.248
26440WAT     H279563   8.768   6.658   2.162
26441WAT      O79564   0.314   1.936   7.697
26441WAT     H179565   0.223   1.932   7.736
26441WAT     H279566   0.367   2.009   7.742
26442WAT      O79567   0.164   2.632   4.999
26442WAT     H179568   0.178   2.639   5.098
26442WAT     H279569   0.109   2.708   4.967
26443WAT      O79570   1.667   2.464   4.685
26443WAT     H179571   1.590   2.498   4.631
26443WAT     H279572   1.730   2.538   4.705
26444WAT      O79573   6.179   2.237   0.748
26444WAT     H179574   6.239   2.181   0.806
26444WAT     H279575   6.099   2.183   0.722
26445WAT      O79576   5.437   6.820   5.471
26445WAT     H179577   5.345   6.835   5.507
26445WAT     H279578   5.437   6.741   5.409
26446WAT      O79579   6.453   1.716   1.238
26446WAT     H179580   6.522   1.659   1.193
26446WAT     H279581   6.382   1.657   1.278
26447WAT      O79582   7.243   4.815   5.069
26447WAT     H179583   7.318   4.766   5.024
26447WAT     H279584   7.256   4.812   5.168
26448WAT      O79585   9.291   0.081   9.863
26448WAT     H179586   9.198   0.059   9.894
26448WAT     H279587   9.301   0.052   9.768
26449WAT      O79588   1.509   2.346   5.295
26449WAT     H179589   1.566   2.421   5.327
26449WAT     H279590   1.492   2.357   5.196
26450WAT      O79591   9.253   1.263   4.031
26450WAT     H179592   9.286   1.191   4.093
26450WAT     H279593   9.327   1.328   4.014
26451WAT      O79594   5.063   1.973   5.976
26451WAT     H179595   5.154   1.999   6.007
26451WAT     H279596   5.004   1.953   6.054
26452WAT      O79597   6.088   1.658   5.545
26452WAT     H179598   5.994   1.624   5.553
26452WAT     H279599   6.087   1.756   5.527
26453WAT      O79600   9.522   7.516   7.643
26453WAT     H179601   9.446   7.509   7.579
26453WAT     H279602   9.591   7.447   7.621
26454WAT      O79603   6.901   7.128   5.673
26454WAT     H179604   6.909   7.071   5.591
26454WAT     H279605   6.905   7.071   5.755
26455WAT      O79606   0.006   9.114   7.006
26455WAT     H179607  -0.019   9.185   6.941
26455WAT     H279608   0.043   9.034   6.958
26456WAT      O79609   8.162   0.909   2.845
26456WAT     H179610   8.145   0.835   2.910
26456WAT     H279611   8.081   0.924   2.788
26457WAT      O79612   3.159   7.740   7.509
26457WAT     H179613   3.230   7.788   7.457
26457WAT     H279614   3.168   7.642   7.495
26458WAT      O79615   7.048   8.493   6.713
26458WAT     H179616   6.993   8.410   6.710
26458WAT     H279617   6.988   8.573   6.715
26459WAT      O79618   1.237   6.448   6.257
26459WAT     H179619   1.294   6.526   6.232
26459WAT     H279620   1.153   6.449   6.202
26460WAT      O79621   3.747   3.006   9.086
26460WAT     H179622   3.846   2.998   9.095
26460WAT     H279623   3.724   3.041   8.995
26461WAT      O79624   3.039   9.002   6.341
26461WAT     H179625   3.134   9.035   6.339
26461WAT     H279626   3.031   8.923   6.281
26462WAT      O79627   5.870   5.648   1.632
26462WAT     H179628   5.854   5.566   1.578
26462WAT     H279629   5.819   5.643   1.717
26463WAT      O79630   0.823   7.756   2.163
26463WAT     H179631   0.922   7.774   2.167
26463WAT     H279632   0.803   7.702   2.081
26464WAT      O79633   0.084   5.752   4.718
26464WAT     H179634   0.047   5.831   4.669
26464WAT     H279635   0.164   5.780   4.770
26465WAT      O79636   0.728   8.014   3.449
26465WAT     H179637   0.752   7.919   3.470
26465WAT     H279638   0.680   8.054   3.526
26466WAT      O79639   3.330   0.673   9.613
26466WAT     H179640   3.316   0.767   9.582
26466WAT     H279641   3.348   0.614   9.535
26467WAT      O79642   7.444   2.885   7.465
26467WAT     H179643   7.493   2.851   7.385
26467WAT     H279644   7.495   2.962   7.504
26468WAT      O79645   3.721   8.991   0.183
26468WAT     H179646   3.765   8.913   0.140
26468WAT     H279647   3.623   8.972   0.195
26469WAT      O79648   2.010   7.423   4.015
26469WAT     H179649   2.045   7.347   4.072
26469WAT     H279650   2.000   7.504   4.072
26470WAT      O79651   5.846   1.951   0.909
26470WAT     H179652   5.782   1.997   0.847
26470WAT     H279653   5.904   1.889   0.857
26471WAT      O79654   7.940   7.398   6.843
26471WAT     H179655   7.979   7.466   6.781
26471WAT     H279656   7.980   7.308   6.822
26472WAT      O79657   0.347   7.587   2.182
26472WAT     H179658   0.441   7.601   2.212
26472WAT     H279659   0.345   7.525   2.103
26473WAT      O79660   6.855   3.679   3.589
26473WAT     H179661   6.897   3.765   3.559
26473WAT     H279662   6.900   3.602   3.543
26474WAT      O79663   3.732   7.697   3.857
26474WAT     H179664   3.654   7.642   3.886
26474WAT     H279665   3.772   7.743   3.937
26475WAT      O79666   3.561   3.791   6.648
26475WAT     H179667   3.461   3.795   6.651
26475WAT     H279668   3.593   3.715   6.704
26476WAT      O79669   5.804   1.701   2.354
26476WAT     H179670   5.854   1.638   2.413
26476WAT     H279671   5.772   1.652   2.272
26477WAT      O79672   0.077   5.167   4.366
26477WAT     H179673   0.177   5.165   4.370
26477WAT     H279674   0.048   5.179   4.271
26478WAT      O79675   7.575   8.066   7.448
26478WAT     H179676   7.577   8.161   7.417
26478WAT     H279677   7.661   8.021   7.421
26479WAT      O79678   8.729   2.680   2.735
26479WAT     H179679   8.718   2.642   2.827
26479WAT     H279680   8.764   2.609   2.675
26480WAT      O79681   3.085   2.141   9.542
26480WAT     H179682   3.107   2.055   9.588
26480WAT     H279683   2.987   2.158   9.547
26481WAT      O79684   0.552   7.033   0.934
26481WAT     H179685   0.473   7.000   0.881
26481WAT     H279686   0.609   6.955   0.961
26482WAT      O79687   0.352   2.472   3.926
26482WAT     H179688   0.280   2.511   3.869
26482WAT     H279689   0.439   2.474   3.876
26483WAT      O79690   8.615   7.943   8.909
26483WAT     H179691   8.615   7.901   9.000
26483WAT     H279692   8.640   8.039   8.916
26484WAT      O79693   5.759   3.994   2.713
26484WAT     H179694   5.667   3.999   2.673
26484WAT     H279695   5.800   4.085   2.715
26485WAT      O79696   2.054   2.017   3.309
26485WAT     H179697   2.040   1.928   3.265
26485WAT     H279698   2.094   2.002   3.400
26486WAT      O79699   0.913   8.515   4.068
26486WAT     H179700   0.943   8.536   4.161
26486WAT     H279701   0.948   8.585   4.005
26487WAT      O79702   8.810   6.009   7.706
26487WAT     H179703   8.835   5.978   7.615
26487WAT     H279704   8.754   6.092   7.700
26488WAT      O79705   3.074   4.586   8.075
26488WAT     H179706   3.150   4.533   8.036
26488WAT     H279707   3.054   4.553   8.167
26489WAT      O79708   3.087   3.495   5.165
26489WAT     H179709   3.066   3.537   5.076
26489WAT     H279710   3.174   3.447   5.159
26490WAT      O79711   8.596   5.250   1.054
26490WAT     H179712   8.515   5.245   0.995
26490WAT     H279713   8.599   5.340   1.099
26491WAT      O79714   8.485   2.983   9.267
26491WAT     H179715   8.408   2.950   9.322
26491WAT     H279716   8.568   2.934   9.294
26492WAT      O79717   9.240   3.071   0.652
26492WAT     H179718   9.211   3.164   0.675
26492WAT     H279719   9.265   3.023   0.736
26493WAT      O79720   3.664   2.233   5.072
26493WAT     H179721   3.640   2.207   4.978
26493WAT     H279722   3.637   2.328   5.088
26494WAT      O79723   9.117   6.785   3.133
26494WAT     H179724   9.194   6.777   3.196
26494WAT     H279725   9.047   6.844   3.172
26495WAT      O79726   1.465   4.761   4.676
26495WAT     H179727   1.389   4.821   4.699
26495WAT     H279728   1.430   4.675   4.639
26496WAT      O79729   8.994   8.882   1.004
26496WAT     H179730   8.988   8.844   1.097
26496WAT     H279731   9.090   8.883   0.975
26497WAT      O79732   9.743   4.775   0.804
26497WAT     H179733   9.738   4.675   0.816
26497WAT     H279734   9.656   4.808   0.767
26498WAT      O79735   5.726   2.792   7.202
26498WAT     H179736   5.630   2.802   7.178
26498WAT     H279737   5.736   2.794   7.301
26499WAT      O79738   2.201   0.468   9.086
26499WAT     H179739   2.186   0.369   9.086
26499WAT     H279740   2.243   0.496   9.000
26500WAT      O79741   7.901   4.466   9.661
26500WAT     H179742   7.952   4.537   9.709
26500WAT     H279743   7.842   4.417   9.725
26501WAT      O79744   2.947   5.575   5.803
26501WAT     H179745   3.039   5.587   5.840
26501WAT     H279746   2.896   5.510   5.861
26502WAT      O79747   8.417   9.757   4.920
26502WAT     H179748   8.490   9.708   4.969
26502WAT     H279749   8.430   9.745   4.822
26503WAT      O79750   7.519   3.267   8.250
26503WAT     H179751   7.486   3.343   8.193
26503WAT     H279752   7.507   3.181   8.201
26504WAT      O79753   9.011   3.441   0.184
26504WAT     H179754   9.016   3.498   0.266
26504WAT     H279755   9.018   3.345   0.209
26505WAT      O79756   8.261   1.910   1.326
26505WAT     H179757   8.265   1.823   1.376
26505WAT     H279758   8.303   1.982   1.380
26506WAT      O79759   8.553   3.331   2.460
26506WAT     H179760   8.465   3.336   2.508
26506WAT     H279761   8.538   3.349   2.362
26507WAT      O79762   0.842   2.065   3.598
26507WAT     H179763   0.747   2.046   3.574
26507WAT     H279764   0.901   2.040   3.522
26508WAT      O79765   0.351   6.171   7.202
26508WAT     H179766   0.259   6.134   7.187
26508WAT     H279767   0.370   6.173   7.300
26509WAT      O79768   2.269   6.674   4.763
26509WAT     H179769   2.265   6.606   4.689
26509WAT     H279770   2.347   6.735   4.747
26510WAT      O79771   0.419   1.344   5.140
26510WAT     H179772   0.363   1.415   5.096
26510WAT     H279773   0.368   1.259   5.143
26511WAT      O79774   2.682   2.653   9.145
26511WAT     H179775   2.773   2.651   9.102
26511WAT     H279776   2.692   2.680   9.241
26512WAT      O79777   4.021   6.584   8.400
26512WAT     H179778   3.981   6.545   8.317
26512WAT     H279779   4.065   6.671   8.377
26513WAT      O79780   7.773   2.851   2.733
26513WAT     H179781   7.719   2.798   2.798
26513WAT     H279782   7.727   2.938   2.714
26514WAT      O79783   6.853   3.062   3.919
26514WAT     H179784   6.874   3.160   3.926
26514WAT     H279785   6.884   3.016   4.002
26515WAT      O79786   3.814   3.352   4.034
26515WAT     H179787   3.837   3.448   4.051
26515WAT     H279788   3.873   3.293   4.089
26516WAT      O79789   7.527   7.266   6.092
26516WAT     H179790   7.543   7.240   6.188
26516WAT     H279791   7.517   7.183   6.037
26517WAT      O79792   1.401   2.367   5.980
26517WAT     H179793   1.466   2.307   5.934
26517WAT     H279794   1.330   2.395   5.916
26518WAT      O79795   6.887   6.369   4.291
26518WAT     H179796   6.957   6.350   4.222
26518WAT     H279797   6.929   6.413   4.370
26519WAT      O79798   4.032   5.004   0.986
26519WAT     H179799   4.057   4.956   1.070
26519WAT     H279800   4.085   4.967   0.909
26520WAT      O79801   5.587   8.426   1.354
26520WAT     H179802   5.590   8.436   1.453
26520WAT     H279803   5.618   8.334   1.328
26521WAT      O79804   8.179   7.846   1.784
26521WAT     H179805   8.256   7.815   1.839
26521WAT     H279806   8.186   7.945   1.770
26522WAT      O79807   3.329   7.749   4.590
26522WAT     H179808   3.327   7.847   4.572
26522WAT     H279809   3.309   7.700   4.505
26523WAT      O79810   9.610   0.909   5.100
26523WAT     H179811   9.594   0.982   5.167
26523WAT     H279812   9.571   0.935   5.012
26524WAT      O79813   7.824   9.377   1.431
26524WAT     H179814   7.835   9.340   1.339
26524WAT     H279815   7.904   9.431   1.456
26525WAT      O79816   4.903   1.818   8.637
26525WAT     H179817   4.902   1.918   8.625
26525WAT     H279818   4.997   1.785   8.626
26526WAT      O79819   6.545   3.691   2.594
26526WAT     H179820   6.590   3.634   2.525
26526WAT     H279821   6.485   3.757   2.549
26527WAT      O79822   3.948   5.046   1.357
26527WAT     H179823   3.917   5.115   1.291
26527WAT     H279824   3.997   4.974   1.309
26528WAT      O79825   6.998   9.708   2.648
26528WAT     H179826   7.047   9.743   2.568
26528WAT     H279827   6.900   9.706   2.629
26529WAT      O79828   1.003   0.692   7.901
26529WAT     H179829   0.947   0.766   7.938
26529WAT     H279830   1.065   0.729   7.831
26530WAT      O79831   3.427   0.170   8.684
26530WAT     H179832   3.345   0.117   8.663
26530WAT     H279833   3.428   0.253   8.629
26531WAT      O79834   5.089   3.730   5.939
26531WAT     H179835   5.101   3.745   5.840
26531WAT     H279836   5.007   3.778   5.970
26532WAT      O79837   5.300   9.679   4.888
26532WAT     H179838   5.258   9.598   4.929
26532WAT     H279839   5.243   9.711   4.813
26533WAT      O79840   5.774   7.736   6.022
26533WAT     H179841   5.840   7.669   5.987
26533WAT     H279842   5.687   7.690   6.040
26534WAT      O79843   4.946   4.731   6.668
26534WAT     H179844   4.934   4.830   6.664
26534WAT     H279845   4.932   4.700   6.762
26535WAT      O79846   6.554   3.259   4.429
26535WAT     H179847   6.622   3.234   4.361
26535WAT     H279848   6.554   3.358   4.442
26536WAT      O79849   6.453   0.295   4.981
26536WAT     H179850   6.419   0.390   4.984
26536WAT     H279851   6.375   0.232   4.985
26537WAT      O79852   6.732   1.563   8.526
26537WAT     H179853   6.789   1.612   8.592
26537WAT     H279854   6.667   1.627   8.484
26538WAT      O79855   6.047   6.482   5.808
26538WAT     H179856   6.008   6.469   5.900
26538WAT     H279857   6.134   6.434   5.802
26539WAT      O79858   5.943   8.139   6.533
26539WAT     H179859   5.851   8.129   6.572
26539WAT     H279860   6.002   8.066   6.567
26540WAT      O79861   5.578   8.669   3.290
26540WAT     H179862   5.557   8.648   3.194
26540WAT     H279863   5.635   8.750   3.294
26541WAT      O79864   2.340   2.007   6.851
26541WAT     H179865   2.389   1.928   6.813
26541WAT     H279866   2.275   2.041   6.783
26542WAT      O79867   7.529   3.655   4.543
26542WAT     H179868   7.502   3.737   4.592
26542WAT     H279869   7.491   3.656   4.451
26543WAT      O79870   1.899   5.585   4.887
26543WAT     H179871   1.846   5.653   4.837
26543WAT     H279872   1.928   5.513   4.825
26544WAT      O79873   5.661   9.218   0.765
26544WAT     H179874   5.725   9.141   0.760
26544WAT     H279875   5.713   9.303   0.761
26545WAT      O79876   3.038   4.029   0.102
26545WAT     H179877   2.979   3.964   0.054
26545WAT     H279878   3.057   4.108   0.043
26546WAT      O79879   2.257   6.301   1.443
26546WAT     H179880   2.209   6.339   1.364
26546WAT     H279881   2.356   6.308   1.428
26547WAT      O79882   0.709   4.650   0.048
26547WAT     H179883   0.653   4.732   0.034
26547WAT     H279884   0.790   4.654  -0.011
26548WAT      O79885   8.322   2.257   1.818
26548WAT     H179886   8.386   2.181   1.812
26548WAT     H279887   8.363   2.338   1.777
26549WAT      O79888   1.400   1.660   5.684
26549WAT     H179889   1.321   1.605   5.657
26549WAT     H279890   1.484   1.611   5.663
26550WAT      O79891   6.417   4.533   7.575
26550WAT     H179892   6.379   4.492   7.657
26550WAT     H279893   6.495   4.479   7.543
26551WAT      O79894   8.577   8.334   8.883
26551WAT     H179895   8.494   8.363   8.836
26551WAT     H279896   8.554   8.266   8.953
26552WAT      O79897   9.036   8.856   5.951
26552WAT     H179898   8.967   8.914   5.908
26552WAT     H279899   9.118   8.910   5.970
26553WAT      O79900   6.386   5.624   7.116
26553WAT     H179901   6.466   5.593   7.167
26553WAT     H279902   6.313   5.556   7.123
26554WAT      O79903   1.788   2.553   2.924
26554WAT     H179904   1.840   2.531   2.842
26554WAT     H279905   1.701   2.595   2.899
26555WAT      O79906   1.079   5.619   8.321
26555WAT     H179907   1.099   5.536   8.373
26555WAT     H279908   1.120   5.698   8.367
26556WAT      O79909   6.825   8.897   4.922
26556WAT     H179910   6.775   8.965   4.976
26556WAT     H279911   6.841   8.932   4.830
26557WAT      O79912   6.789   6.994   7.898
26557WAT     H179913   6.700   6.950   7.885
26557WAT     H279914   6.782   7.063   7.969
26558WAT      O79915   2.693   9.695   4.427
26558WAT     H179916   2.724   9.764   4.362
26558WAT     H279917   2.637   9.628   4.379
26559WAT      O79918   7.678   4.210   6.912
26559WAT     H179919   7.746   4.204   6.985
26559WAT     H279920   7.706   4.153   6.835
26560WAT      O79921   2.537   8.343   2.209
26560WAT     H179922   2.552   8.398   2.127
26560WAT     H279923   2.588   8.258   2.202
26561WAT      O79924   8.288   0.035   9.767
26561WAT     H179925   8.307  -0.047   9.712
26561WAT     H279926   8.268   0.008   9.861
26562WAT      O79927   4.979   1.734   8.338
26562WAT     H179928   5.029   1.719   8.423
26562WAT     H279929   4.924   1.654   8.317
26563WAT      O79930   9.482   1.769   3.085
26563WAT     H179931   9.412   1.811   3.028
26563WAT     H279932   9.507   1.830   3.160
26564WAT      O79933   2.047   0.533   1.890
26564WAT     H179934   1.962   0.497   1.929
26564WAT     H279935   2.122   0.518   1.955
26565WAT      O79936   3.178   4.475   9.090
26565WAT     H179937   3.163   4.383   9.124
26565WAT     H279938   3.101   4.502   9.032
26566WAT      O79939   8.680   3.182   9.466
26566WAT     H179940   8.706   3.118   9.537
26566WAT     H279941   8.752   3.188   9.397
26567WAT      O79942   0.600   1.662   9.682
26567WAT     H179943   0.572   1.675   9.777
26567WAT     H279944   0.691   1.621   9.679
26568WAT      O79945   7.049   2.018   9.788
26568WAT     H179946   7.076   2.053   9.877
26568WAT     H279947   6.983   1.944   9.801
26569WAT      O79948   6.495   0.931   6.906
26569WAT     H179949   6.505   0.835   6.881
26569WAT     H279950   6.399   0.948   6.931
26570WAT      O79951   3.974   8.471   0.503
26570WAT     H179952   3.944   8.378   0.485
26570WAT     H279953   4.031   8.504   0.427
26571WAT      O79954   8.658   1.961   1.290
26571WAT     H179955   8.601   1.881   1.310
26571WAT     H279956   8.661   2.021   1.370
26572WAT      O79957   7.852   6.233   3.753
26572WAT     H179958   7.910   6.164   3.710
26572WAT     H279959   7.770   6.189   3.791
26573WAT      O79960   6.129   9.215   4.520
26573WAT     H179961   6.044   9.219   4.572
26573WAT     H279962   6.184   9.296   4.539
26574WAT      O79963   7.114   5.583   6.913
26574WAT     H179964   7.086   5.550   6.823
26574WAT     H279965   7.038   5.630   6.957
26575WAT      O79966   2.034   3.485   8.802
26575WAT     H179967   1.976   3.558   8.840
26575WAT     H279968   2.115   3.473   8.860
26576WAT      O79969   5.891   0.041   2.063
26576WAT     H179970   5.954   0.024   1.987
26576WAT     H279971   5.938   0.093   2.134
26577WAT      O79972   0.311   9.271   3.718
26577WAT     H179973   0.393   9.235   3.675
26577WAT     H279974   0.327   9.365   3.748
26578WAT      O79975   0.147   8.900   2.154
26578WAT     H179976   0.191   8.889   2.243
26578WAT     H279977   0.047   8.898   2.166
26579WAT      O79978   2.488   4.201   8.563
26579WAT     H179979   2.571   4.156   8.595
26579WAT     H279980   2.481   4.194   8.464
26580WAT      O79981   5.642   4.659   9.511
26580WAT     H179982   5.721   4.614   9.551
26580WAT     H279983   5.626   4.623   9.419
26581WAT      O79984   8.481   8.939   5.716
26581WAT     H179985   8.538   8.971   5.640
26581WAT     H279986   8.409   8.879   5.680
26582WAT      O79987   9.124   5.310   8.584
26582WAT     H179988   9.191   5.382   8.566
26582WAT     H279989   9.084   5.279   8.498
26583WAT      O79990   7.622   7.780   4.097
26583WAT     H179991   7.606   7.785   4.196
26583WAT     H279992   7.699   7.719   4.078
26584WAT      O79993   8.963   8.023   8.381
26584WAT     H179994   8.923   8.109   8.412
26584WAT     H279995   9.039   8.042   8.319
26585WAT      O79996   8.869   8.723   3.718
26585WAT     H179997   8.887   8.708   3.815
26585WAT     H279998   8.771   8.725   3.702
26586WAT      O79999   4.001   8.806   4.524
26586WAT     H180000   3.969   8.900   4.511
26586WAT     H280001   3.924   8.742   4.512
26587WAT      O80002   4.630   5.572   5.741
26587WAT     H180003   4.582   5.507   5.799
26587WAT     H280004   4.567   5.610   5.673
26588WAT      O80005   9.393   3.661   4.804
26588WAT     H180006   9.391   3.737   4.740
26588WAT     H280007   9.300   3.632   4.824
26589WAT      O80008   3.999   7.182   0.260
26589WAT     H180009   3.995   7.280   0.241
26589WAT     H280010   3.923   7.156   0.319
26590WAT      O80011   7.781   7.143   1.409
26590WAT     H180012   7.818   7.112   1.497
26590WAT     H280013   7.765   7.064   1.350
26591WAT      O80014   4.311   2.711   0.764
26591WAT     H180015   4.349   2.647   0.698
26591WAT     H280016   4.329   2.679   0.856
26592WAT      O80017   4.873   6.366   3.031
26592WAT     H180018   4.848   6.463   3.034
26592WAT     H280019   4.911   6.339   3.119
26593WAT      O80020   2.804   0.543   9.494
26593WAT     H180021   2.711   0.516   9.519
26593WAT     H280022   2.818   0.527   9.397
26594WAT      O80023   0.966   2.337   8.961
26594WAT     H180024   1.034   2.353   8.889
26594WAT     H280025   0.939   2.424   9.001
26595WAT      O80026   4.340   1.842   0.486
26595WAT     H180027   4.411   1.859   0.417
26595WAT     H280028   4.257   1.893   0.462
26596WAT      O80029   2.427   1.474   1.013
26596WAT     H180030   2.354   1.429   0.962
26596WAT     H280031   2.465   1.548   0.957
26597WAT      O80032   6.750   2.013   8.495
26597WAT     H180033   6.799   2.091   8.535
26597WAT     H280034   6.669   2.046   8.445
26598WAT      O80035   3.181   0.093   3.760
26598WAT     H180036   3.276   0.098   3.728
26598WAT     H280037   3.122   0.059   3.687
26599WAT      O80038   0.901   3.066   5.099
26599WAT     H180039   0.885   2.968   5.093
26599WAT     H280040   0.942   3.088   5.187
26600WAT      O80041   9.045   4.838   9.547
26600WAT     H180042   9.023   4.828   9.450
26600WAT     H280043   9.025   4.753   9.594
26601WAT      O80044   9.561   8.395   6.342
26601WAT     H180045   9.504   8.414   6.422
26601WAT     H280046   9.629   8.468   6.332
26602WAT      O80047   8.322   0.230   6.841
26602WAT     H180048   8.412   0.271   6.851
26602WAT     H280049   8.316   0.180   6.755
26603WAT      O80050   6.815   5.936   6.596
26603WAT     H180051   6.773   5.913   6.508
26603WAT     H280052   6.911   5.909   6.595
26604WAT      O80053   6.341   9.514   2.910
26604WAT     H180054   6.315   9.596   2.859
26604WAT     H280055   6.336   9.533   3.008
26605WAT      O80056   3.300   4.909   9.328
26605WAT     H180057   3.275   4.905   9.425
26605WAT     H280058   3.396   4.883   9.317
26606WAT      O80059   3.654   0.496   0.038
26606WAT     H180060   3.712   0.443  -0.023
26606WAT     H280061   3.661   0.460   0.131
26607WAT      O80062   8.536   0.760   5.335
26607WAT     H180063   8.483   0.765   5.420
26607WAT     H280064   8.592   0.842   5.327
26608WAT      O80065   2.966   8.468   8.424
26608WAT     H180066   2.883   8.422   8.391
26608WAT     H280067   3.014   8.509   8.346
26609WAT      O80068   3.246   8.147   8.947
26609WAT     H180069   3.253   8.064   8.891
26609WAT     H280070   3.182   8.131   9.022
26610WAT      O80071   1.292   5.974   5.474
26610WAT     H180072   1.225   5.969   5.549
26610WAT     H280073   1.344   5.889   5.470
26611WAT      O80074   9.458   1.937   5.181
26611WAT     H180075   9.447   2.023   5.232
26611WAT     H280076   9.372   1.912   5.138
26612WAT      O80077   7.620   9.070   6.276
26612WAT     H180078   7.566   9.154   6.264
26612WAT     H280079   7.671   9.051   6.192
26613WAT      O80080   9.128   1.951   9.016
26613WAT     H180081   9.144   1.983   8.922
26613WAT     H280082   9.086   2.025   9.069
26614WAT      O80083   8.198   0.638   5.737
26614WAT     H180084   8.180   0.541   5.755
26614WAT     H280085   8.119   0.680   5.694
26615WAT      O80086   1.373   4.885   5.073
26615WAT     H180087   1.472   4.898   5.062
26615WAT     H280088   1.332   4.970   5.107
26616WAT      O80089   0.996   5.790   2.364
26616WAT     H180090   0.990   5.784   2.463
26616WAT     H280091   0.943   5.715   2.323
26617WAT      O80092   3.502   3.526   9.104
26617WAT     H180093   3.505   3.609   9.048
26617WAT     H280094   3.503   3.551   9.201
26618WAT      O80095   6.327   4.307   0.301
26618WAT     H180096   6.326   4.388   0.360
26618WAT     H280097   6.256   4.316   0.232
26619WAT      O80098   7.889   5.953   5.255
26619WAT     H180099   7.878   5.858   5.224
26619WAT     H280100   7.942   5.955   5.339
26620WAT      O80101   9.398   6.343   2.505
26620WAT     H180102   9.365   6.436   2.524
26620WAT     H280103   9.381   6.321   2.409
26621WAT      O80104   6.175   8.294   0.502
26621WAT     H180105   6.218   8.258   0.420
26621WAT     H280106   6.101   8.356   0.476
26622WAT      O80107   9.102   0.440   4.721
26622WAT     H180108   9.160   0.364   4.691
26622WAT     H280109   9.038   0.464   4.647
26623WAT      O80110   0.602   7.592   0.798
26623WAT     H180111   0.535   7.552   0.860
26623WAT     H280112   0.568   7.585   0.704
26624WAT      O80113   6.968   4.185   3.879
26624WAT     H180114   7.009   4.094   3.889
26624WAT     H280115   7.041   4.252   3.865
26625WAT      O80116   3.979   9.238   3.298
26625WAT     H180117   4.025   9.202   3.217
26625WAT     H280118   4.030   9.212   3.380
26626WAT      O80119   3.091   2.024   7.373
26626WAT     H180120   3.106   2.121   7.355
26626WAT     H280121   2.993   2.004   7.369
26627WAT      O80122   1.910   3.953   9.200
26627WAT     H180123   1.957   3.982   9.117
26627WAT     H280124   1.977   3.939   9.273
26628WAT      O80125   8.966   7.139   3.631
26628WAT     H180126   9.063   7.151   3.648
26628WAT     H280127   8.919   7.227   3.642
26629WAT      O80128   5.018   8.058   3.283
26629WAT     H180129   4.982   8.151   3.295
26629WAT     H280130   4.961   8.010   3.216
26630WAT      O80131   6.629   1.991   2.401
26630WAT     H180132   6.728   1.998   2.412
26630WAT     H280133   6.599   2.049   2.325
26631WAT      O80134   9.863   2.730   1.676
26631WAT     H180135   9.931   2.786   1.722
26631WAT     H280136   9.907   2.670   1.610
26632WAT      O80137   2.029   9.170   0.999
26632WAT     H180138   2.036   9.170   1.099
26632WAT     H280139   2.007   9.077   0.967
26633WAT      O80140   4.021   9.106   2.265
26633WAT     H180141   4.035   9.077   2.170
26633WAT     H280142   3.939   9.063   2.301
26634WAT      O80143   2.174   5.485   0.462
26634WAT     H180144   2.094   5.508   0.408
26634WAT     H280145   2.193   5.559   0.527
26635WAT      O80146   2.321   5.170   8.408
26635WAT     H180147   2.343   5.155   8.311
26635WAT     H280148   2.364   5.254   8.440
26636WAT      O80149   7.996   1.025   5.105
26636WAT     H180150   7.984   0.945   5.047
26636WAT     H280151   8.088   1.062   5.094
26637WAT      O80152   1.716   6.168   4.865
26637WAT     H180153   1.692   6.209   4.952
26637WAT     H280154   1.693   6.070   4.866
26638WAT      O80155   8.686   9.367   5.073
26638WAT     H180156   8.636   9.285   5.045
26638WAT     H280157   8.774   9.369   5.026
26639WAT      O80158   9.650   5.036   8.648
26639WAT     H180159   9.712   5.065   8.576
26639WAT     H280160   9.686   4.953   8.691
26640WAT      O80161   2.543   6.648   4.272
26640WAT     H180162   2.451   6.678   4.296
26640WAT     H280163   2.599   6.727   4.248
26641WAT      O80164   8.690   2.730   7.544
26641WAT     H180165   8.710   2.826   7.562
26641WAT     H280166   8.756   2.672   7.591
26642WAT      O80167   7.009   8.719   7.782
26642WAT     H180168   6.946   8.680   7.714
26642WAT     H280169   6.982   8.689   7.873
26643WAT      O80170   9.047   3.696   6.335
26643WAT     H180171   9.031   3.789   6.301
26643WAT     H280172   8.986   3.632   6.288
26644WAT      O80173   9.143   3.557   4.909
26644WAT     H180174   9.179   3.470   4.875
26644WAT     H280175   9.122   3.548   5.006
26645WAT      O80176   4.015   0.912   8.663
26645WAT     H180177   4.003   1.010   8.651
26645WAT     H280178   3.959   0.880   8.739
26646WAT      O80179   1.756   3.376   4.079
26646WAT     H180180   1.727   3.284   4.105
26646WAT     H280181   1.762   3.382   3.980
26647WAT      O80182   8.500   8.886   9.366
26647WAT     H180183   8.577   8.938   9.403
26647WAT     H280184   8.415   8.917   9.407
26648WAT      O80185   9.207   3.200   3.506
26648WAT     H180186   9.300   3.165   3.498
26648WAT     H280187   9.158   3.151   3.578
26649WAT      O80188   6.194   1.343   3.077
26649WAT     H180189   6.117   1.281   3.094
26649WAT     H280190   6.177   1.394   2.993
26650WAT      O80191   1.594   5.000   9.037
26650WAT     H180192   1.557   5.020   9.128
26650WAT     H280193   1.599   4.901   9.024
26651WAT      O80194   9.467   2.290   5.041
26651WAT     H180195   9.445   2.210   4.985
26651WAT     H280196   9.442   2.272   5.136
26652WAT      O80197   5.965   3.191   8.304
26652WAT     H180198   5.940   3.280   8.266
26652WAT     H280199   5.903   3.121   8.269
26653WAT      O80200   3.683   0.296   1.116
26653WAT     H180201   3.649   0.312   1.024
26653WAT     H280202   3.751   0.365   1.139
26654WAT      O80203   8.870   1.725   0.035
26654WAT     H180204   8.779   1.736   0.074
26654WAT     H280205   8.875   1.773  -0.053
26655WAT      O80206   4.175   5.765   1.292
26655WAT     H180207   4.243   5.831   1.324
26655WAT     H280208   4.197   5.738   1.198
26656WAT      O80209   6.492   4.143   4.352
26656WAT     H180210   6.419   4.103   4.408
26656WAT     H280211   6.577   4.143   4.405
26657WAT      O80212   2.539   3.958   1.123
26657WAT     H180213   2.457   3.921   1.080
26657WAT     H280214   2.542   3.930   1.219
26658WAT      O80215   5.954   4.189   3.855
26658WAT     H180216   5.920   4.198   3.949
26658WAT     H280217   5.998   4.274   3.827
26659WAT      O80218   4.293   3.065   8.500
26659WAT     H180219   4.303   3.122   8.581
26659WAT     H280220   4.382   3.024   8.477
26660WAT      O80221   0.016   8.630   5.230
26660WAT     H180222  -0.039   8.671   5.303
26660WAT     H280223   0.059   8.703   5.177
26661WAT      O80224   1.568   2.101   5.493
26661WAT     H180225   1.523   2.051   5.420
26661WAT     H280226   1.633   2.041   5.540
26662WAT      O80227   5.697   0.119   7.399
26662WAT     H180228   5.783   0.170   7.393
26662WAT     H280229   5.663   0.124   7.493
26663WAT      O80230   2.857   7.101   5.550
26663WAT     H180231   2.910   7.149   5.620
26663WAT     H280232   2.891   7.127   5.459
26664WAT      O80233   7.271   2.814   9.023
26664WAT     H180234   7.252   2.749   9.097
26664WAT     H280235   7.299   2.763   8.941
26665WAT      O80236   1.166   0.750   5.140
26665WAT     H180237   1.154   0.653   5.118
26665WAT     H280238   1.148   0.805   5.058
26666WAT      O80239   5.716   5.009   9.122
26666WAT     H180240   5.676   5.056   9.201
26666WAT     H280241   5.759   4.924   9.151
26667WAT      O80242   8.997   8.310   5.336
26667WAT     H180243   9.067   8.369   5.376
26667WAT     H280244   9.041   8.238   5.281
26668WAT      O80245   3.427   7.388   8.113
26668WAT     H180246   3.419   7.442   8.197
26668WAT     H280247   3.350   7.409   8.053
26669WAT      O80248   5.932   0.404   1.403
26669WAT     H180249   5.978   0.325   1.443
26669WAT     H280250   5.939   0.400   1.303
26670WAT      O80251   4.283   8.857   7.456
26670WAT     H180252   4.259   8.804   7.375
26670WAT     H280253   4.288   8.954   7.432
26671WAT      O80254   9.618   8.271   2.578
26671WAT     H180255   9.700   8.217   2.560
26671WAT     H280256   9.576   8.298   2.491
26672WAT      O80257   8.835   7.979   4.254
26672WAT     H180258   8.855   7.913   4.327
26672WAT     H280259   8.746   8.021   4.271
26673WAT      O80260   1.811   1.124   9.183
26673WAT     H180261   1.852   1.156   9.268
26673WAT     H280262   1.873   1.061   9.137
26674WAT      O80263   2.614   5.091   8.519
26674WAT     H180264   2.605   5.150   8.438
26674WAT     H280265   2.659   5.005   8.492
26675WAT      O80266   4.357   1.766   9.420
26675WAT     H180267   4.258   1.777   9.420
26675WAT     H280268   4.388   1.734   9.331
26676WAT      O80269   7.366   3.082   9.152
26676WAT     H180270   7.313   3.002   9.124
26676WAT     H280271   7.323   3.165   9.116
26677WAT      O80272   8.376   3.982   7.609
26677WAT     H180273   8.454   3.935   7.651
26677WAT     H280274   8.323   3.915   7.556
26678WAT      O80275   2.094   4.919   8.818
26678WAT     H180276   2.179   4.878   8.783
26678WAT     H280277   2.021   4.905   8.751
26679WAT      O80278   9.692   2.844   8.023
26679WAT     H180279   9.680   2.797   7.936
26679WAT     H280280   9.609   2.896   8.045
26680WAT      O80281   4.132   6.779   0.116
26680WAT     H180282   4.222   6.815   0.138
26680WAT     H280283   4.102   6.717   0.188
26681WAT      O80284   4.569   3.578   2.976
26681WAT     H180285   4.560   3.480   2.955
26681WAT     H280286   4.664   3.599   2.998
26682WAT      O80287   0.188   2.655   7.885
26682WAT     H180288   0.284   2.633   7.902
26682WAT     H280289   0.151   2.705   7.964
26683WAT      O80290   8.397   8.569   9.221
26683WAT     H180291   8.396   8.665   9.247
26683WAT     H280292   8.483   8.528   9.250
26684WAT      O80293   3.571   6.961   0.517
26684WAT     H180294   3.528   7.022   0.450
26684WAT     H280295   3.670   6.966   0.507
26685WAT      O80296   3.491   2.298   1.086
26685WAT     H180297   3.510   2.352   1.003
26685WAT     H280298   3.536   2.341   1.164
26686WAT      O80299   5.831   9.692   6.734
26686WAT     H180300   5.761   9.735   6.676
26686WAT     H280301   5.873   9.761   6.792
26687WAT      O80302   8.896   9.319   2.958
26687WAT     H180303   8.956   9.326   3.038
26687WAT     H280304   8.829   9.393   2.960
26688WAT      O80305   4.031   7.464   0.236
26688WAT     H180306   4.111   7.513   0.269
26688WAT     H280307   3.949   7.498   0.282
26689WAT      O80308   7.781   0.935   4.483
26689WAT     H180309   7.823   0.922   4.394
26689WAT     H280310   7.830   1.006   4.534
26690WAT      O80311   0.464   2.870   7.171
26690WAT     H180312   0.549   2.823   7.196
26690WAT     H280313   0.477   2.915   7.083
26691WAT      O80314   5.439   8.847   6.586
26691WAT     H180315   5.434   8.893   6.675
26691WAT     H280316   5.419   8.750   6.597
26692WAT      O80317   9.376   3.461   5.258
26692WAT     H180318   9.444   3.398   5.220
26692WAT     H280319   9.421   3.524   5.322
26693WAT      O80320   3.226   7.517   4.471
26693WAT     H180321   3.316   7.524   4.429
26693WAT     H280322   3.175   7.443   4.428
26694WAT      O80323   6.848   5.902   3.253
26694WAT     H180324   6.838   5.990   3.206
26694WAT     H280325   6.881   5.834   3.188
26695WAT      O80326   2.705   4.935   8.997
26695WAT     H180327   2.634   4.978   8.940
26695WAT     H280328   2.667   4.855   9.042
26696WAT      O80329   9.528   9.736   7.990
26696WAT     H180330   9.475   9.821   7.984
26696WAT     H280331   9.501   9.686   8.073
26697WAT      O80332   9.451   6.390   7.685
26697WAT     H180333   9.437   6.394   7.586
26697WAT     H280334   9.391   6.320   7.724
26698WAT      O80335   1.970   8.543   4.123
26698WAT     H180336   1.972   8.444   4.107
26698WAT     H280337   1.924   8.562   4.210
26699WAT      O80338   9.019   3.483   1.114
26699WAT     H180339   9.113   3.516   1.128
26699WAT     H280340   8.974   3.540   1.044
26700WAT      O80341   3.831   1.737   7.286
26700WAT     H180342   3.807   1.647   7.249
26700WAT     H280343   3.759   1.768   7.348
26701WAT      O80344   8.257   1.027   2.012
26701WAT     H180345   8.219   1.095   1.950
26701WAT     H280346   8.327   1.069   2.069
26702WAT      O80347   0.708   3.595   6.058
26702WAT     H180348   0.736   3.636   5.972
26702WAT     H280349   0.788   3.566   6.109
26703WAT      O80350   1.286   2.999   8.611
26703WAT     H180351   1.227   3.062   8.661
26703WAT     H280352   1.300   2.917   8.667
26704WAT      O80353   7.213   1.662   5.264
26704WAT     H180354   7.268   1.745   5.250
26704WAT     H280355   7.206   1.643   5.362
26705WAT      O80356   2.823   5.761   8.729
26705WAT     H180357   2.820   5.833   8.799
26705WAT     H280358   2.906   5.771   8.675
26706WAT      O80359   0.229   0.481   4.278
26706WAT     H180360   0.312   0.447   4.323
26706WAT     H280361   0.238   0.467   4.179
26707WAT      O80362   5.131   8.910   9.077
26707WAT     H180363   5.067   8.938   9.006
26707WAT     H280364   5.161   8.816   9.061
26708WAT      O80365   9.488   8.023   2.111
26708WAT     H180366   9.522   7.955   2.045
26708WAT     H280367   9.543   8.106   2.103
26709WAT      O80368   0.070   9.429   6.195
26709WAT     H180369   0.013   9.508   6.172
26709WAT     H280370   0.067   9.414   6.294
26710WAT      O80371   0.473   5.084   2.778
26710WAT     H180372   0.469   5.000   2.832
26710WAT     H280373   0.390   5.092   2.723
26711WAT      O80374   7.212   5.236   4.324
26711WAT     H180375   7.203   5.320   4.377
26711WAT     H280376   7.186   5.158   4.380
26712WAT      O80377   1.667   9.488   7.280
26712WAT     H180378   1.735   9.469   7.209
26712WAT     H280379   1.709   9.478   7.370
26713WAT      O80380   7.264   0.143   6.360
26713WAT     H180381   7.200   0.205   6.315
26713WAT     H280382   7.214   0.082   6.421
26714WAT      O80383   9.710   3.589   7.040
26714WAT     H180384   9.638   3.538   7.087
26714WAT     H280385   9.752   3.531   6.970
26715WAT      O80386   4.052   1.798   1.744
26715WAT     H180387   4.024   1.737   1.818
26715WAT     H280388   3.987   1.874   1.737
26716WAT      O80389   5.946   1.408   1.716
26716WAT     H180390   6.021   1.351   1.681
26716WAT     H280391   5.867   1.350   1.736
26717WAT      O80392   7.967   6.180   8.885
26717WAT     H180393   8.053   6.163   8.837
26717WAT     H280394   7.962   6.121   8.965
26718WAT      O80395   4.623   4.398   4.796
26718WAT     H180396   4.665   4.460   4.730
26718WAT     H280397   4.640   4.303   4.768
26719WAT      O80398   8.770   7.816   6.526
26719WAT     H180399   8.794   7.766   6.610
26719WAT     H280400   8.732   7.752   6.459
26720WAT      O80401   3.472   9.800   0.656
26720WAT     H180402   3.492   9.715   0.608
26720WAT     H280403   3.388   9.840   0.620
26721WAT      O80404   9.723   6.121   8.113
26721WAT     H180405   9.732   6.194   8.046
26721WAT     H280406   9.740   6.033   8.068
26722WAT      O80407   6.274   4.673   5.961
26722WAT     H180408   6.306   4.631   5.875
26722WAT     H280409   6.175   4.687   5.955
26723WAT      O80410   4.200   7.063   0.390
26723WAT     H180411   4.165   7.004   0.463
26723WAT     H280412   4.125   7.117   0.352
26724WAT      O80413   4.422   1.002   6.503
26724WAT     H180414   4.521   0.993   6.499
26724WAT     H280415   4.391   1.061   6.428
26725WAT      O80416   9.341   9.198   2.868
26725WAT     H180417   9.275   9.243   2.807
26725WAT     H280418   9.395   9.267   2.915
26726WAT      O80419   9.046   6.735   5.464
26726WAT     H180420   9.006   6.815   5.420
26726WAT     H280421   8.979   6.661   5.468
26727WAT      O80422   7.111   3.023   6.625
26727WAT     H180423   7.204   2.998   6.650
26727WAT     H280424   7.113   3.091   6.552
26728WAT      O80425   0.484   3.294   9.590
26728WAT     H180426   0.478   3.326   9.685
26728WAT     H280427   0.569   3.243   9.577
26729WAT      O80428   1.157   6.606   4.536
26729WAT     H180429   1.168   6.705   4.548
26729WAT     H280430   1.198   6.578   4.450
26730WAT      O80431   6.019   7.223   0.843
26730WAT     H180432   6.085   7.297   0.854
26730WAT     H280433   5.979   7.226   0.751
26731WAT      O80434   4.301   6.229   9.358
26731WAT     H180435   4.235   6.179   9.301
26731WAT     H280436   4.367   6.165   9.396
26732WAT      O80437   4.088   2.370   8.905
26732WAT     H180438   4.053   2.391   8.814
26732WAT     H280439   4.022   2.313   8.954
26733WAT      O80440   6.488   8.756   3.363
26733WAT     H180441   6.402   8.771   3.315
26733WAT     H280442   6.477   8.783   3.459
26734WAT      O80443   2.172   6.059   4.172
26734WAT     H180444   2.268   6.071   4.146
26734WAT     H280445   2.115   6.057   4.090
26735WAT      O80446   4.960   2.768   9.684
26735WAT     H180447   4.951   2.754   9.585
26735WAT     H280448   4.890   2.832   9.715
26736WAT      O80449   4.085   0.767   1.948
26736WAT     H180450   4.111   0.671   1.951
26736WAT     H280451   4.163   0.822   1.918
26737WAT      O80452   7.169   2.711   1.697
26737WAT     H180453   7.090   2.769   1.679
26737WAT     H280454   7.232   2.759   1.758
26738WAT      O80455   5.836   5.482   7.101
26738WAT     H180456   5.767   5.554   7.094
26738WAT     H280457   5.796   5.400   7.141
26739WAT      O80458   6.270   0.295   5.646
26739WAT     H180459   6.254   0.363   5.717
26739WAT     H280460   6.220   0.320   5.563
26740WAT      O80461   1.545   7.647   6.427
26740WAT     H180462   1.626   7.693   6.464
26740WAT     H280463   1.500   7.707   6.362
26741WAT      O80464   2.254   2.216   0.937
26741WAT     H180465   2.202   2.183   1.016
26741WAT     H280466   2.221   2.307   0.911
26742WAT      O80467   6.961   2.851   5.600
26742WAT     H180468   6.994   2.811   5.685
26742WAT     H280469   6.976   2.787   5.524
26743WAT      O80470   0.213   6.218   9.005
26743WAT     H180471   0.253   6.131   8.977
26743WAT     H280472   0.167   6.260   8.927
26744WAT      O80473   2.169   8.913   3.127
26744WAT     H180474   2.077   8.876   3.131
26744WAT     H280475   2.167   9.011   3.147
26745WAT      O80476   0.211   6.892   6.975
26745WAT     H180477   0.267   6.882   6.894
26745WAT     H280478   0.116   6.866   6.954
26746WAT      O80479   2.089   9.651   1.551
26746WAT     H180480   2.085   9.696   1.462
26746WAT     H280481   2.163   9.690   1.605
26747WAT      O80482   5.426   0.748   0.706
26747WAT     H180483   5.354   0.679   0.708
26747WAT     H280484   5.483   0.739   0.788
26748WAT      O80485   5.430   3.512   3.764
26748WAT     H180486   5.365   3.587   3.772
26748WAT     H280487   5.439   3.466   3.853
26749WAT      O80488   1.072   8.748   4.595
26749WAT     H180489   0.980   8.712   4.609
26749WAT     H280490   1.136   8.672   4.580
26750WAT      O80491   4.132   1.457   4.120
26750WAT     H180492   4.114   1.362   4.095
26750WAT     H280493   4.204   1.493   4.061
26751WAT      O80494   3.644   7.768   7.299
26751WAT     H180495   3.582   7.806   7.231
26751WAT     H280496   3.591   7.721   7.370
26752WAT      O80497   8.689   9.154   6.427
26752WAT     H180498   8.700   9.217   6.505
26752WAT     H280499   8.754   9.180   6.355
26753WAT      O80500   8.583   6.750   7.808
26753WAT     H180501   8.511   6.730   7.875
26753WAT     H280502   8.589   6.849   7.795
26754WAT      O80503   5.779   3.512   6.943
26754WAT     H180504   5.768   3.426   6.893
26754WAT     H280505   5.781   3.494   7.041
26755WAT      O80506   0.760   3.315   7.147
26755WAT     H180507   0.674   3.278   7.113
26755WAT     H280508   0.746   3.349   7.240
26756WAT      O80509   0.330   7.454   6.107
26756WAT     H180510   0.313   7.526   6.173
26756WAT     H280511   0.288   7.368   6.138
26757WAT      O80512   7.611   7.887   3.843
26757WAT     H180513   7.705   7.906   3.816
26757WAT     H280514   7.610   7.853   3.937
26758WAT      O80515   7.734   5.877   4.654
26758WAT     H180516   7.643   5.837   4.643
26758WAT     H280517   7.777   5.840   4.736
26759WAT      O80518   7.095   2.828   3.543
26759WAT     H180519   7.059   2.877   3.622
26759WAT     H280520   7.148   2.749   3.574
26760WAT      O80521   1.685   8.402   9.012
26760WAT     H180522   1.747   8.421   9.088
26760WAT     H280523   1.696   8.307   8.983
26761WAT      O80524   8.407   5.171   4.425
26761WAT     H180525   8.451   5.238   4.365
26761WAT     H280526   8.477   5.109   4.461
26762WAT      O80527   1.539   3.278   4.625
26762WAT     H180528   1.504   3.187   4.604
26762WAT     H280529   1.580   3.318   4.543
26763WAT      O80530   3.530   0.166   1.740
26763WAT     H180531   3.443   0.213   1.754
26763WAT     H280532   3.569   0.192   1.652
26764WAT      O80533   4.426   1.808   8.651
26764WAT     H180534   4.464   1.778   8.738
26764WAT     H280535   4.498   1.847   8.594
26765WAT      O80536   3.973   4.463   7.307
26765WAT     H180537   4.043   4.464   7.379
26765WAT     H280538   4.005   4.515   7.228
26766WAT      O80539   8.228   6.450   4.067
26766WAT     H180540   8.277   6.517   4.011
26766WAT     H280541   8.209   6.368   4.013
26767WAT      O80542   3.209   5.148   3.792
26767WAT     H180543   3.163   5.228   3.832
26767WAT     H280544   3.281   5.178   3.730
26768WAT      O80545   9.848   7.541   3.191
26768WAT     H180546   9.786   7.483   3.244
26768WAT     H280547   9.814   7.548   3.097
26769WAT      O80548   5.941   5.057   8.589
26769WAT     H180549   5.964   5.133   8.650
26769WAT     H280550   5.848   5.025   8.608
26770WAT      O80551   2.305   3.536   7.516
26770WAT     H180552   2.364   3.507   7.591
26770WAT     H280553   2.256   3.619   7.543
26771WAT      O80554   2.436   6.999   4.022
26771WAT     H180555   2.533   6.976   4.033
26771WAT     H280556   2.380   6.934   4.073
26772WAT      O80557   0.350   6.958   4.344
26772WAT     H180558   0.366   6.968   4.246
26772WAT     H280559   0.256   6.928   4.359
26773WAT      O80560   4.639   0.828   1.515
26773WAT     H180561   4.604   0.820   1.421
26773WAT     H280562   4.563   0.844   1.577
26774WAT      O80563   7.156   5.524   0.274
26774WAT     H180564   7.132   5.427   0.278
26774WAT     H280565   7.255   5.534   0.281
26775WAT      O80566   8.541   6.607   0.112
26775WAT     H180567   8.478   6.650   0.177
26775WAT     H280568   8.594   6.678   0.066
26776WAT      O80569   7.496   6.675   8.620
26776WAT     H180570   7.493   6.736   8.542
26776WAT     H280571   7.407   6.630   8.631
26777WAT      O80572   2.553   6.031   2.118
26777WAT     H180573   2.580   6.011   2.212
26777WAT     H280574   2.608   6.106   2.081
26778WAT      O80575   0.072   8.122   9.046
26778WAT     H180576   0.169   8.096   9.047
26778WAT     H280577   0.057   8.191   8.975
26779WAT      O80578   2.414   4.578   2.784
26779WAT     H180579   2.366   4.666   2.776
26779WAT     H280580   2.463   4.560   2.699
26780WAT      O80581   0.906   6.403   9.881
26780WAT     H180582   0.956   6.332   9.931
26780WAT     H280583   0.827   6.362   9.836
26781WAT      O80584   6.944   4.014   5.402
26781WAT     H180585   7.012   4.011   5.476
26781WAT     H280586   6.939   4.107   5.366
26782WAT      O80587   1.257   9.111   7.943
26782WAT     H180588   1.308   9.172   8.003
26782WAT     H280589   1.298   9.020   7.945
26783WAT      O80590   2.908   0.007   7.072
26783WAT     H180591   2.873  -0.085   7.056
26783WAT     H280592   2.874   0.069   7.001
26784WAT      O80593   7.200   4.134   0.600
26784WAT     H180594   7.207   4.043   0.560
26784WAT     H280595   7.181   4.126   0.698
26785WAT      O80596   1.100   3.167   8.719
26785WAT     H180597   1.104   3.219   8.634
26785WAT     H280598   1.052   3.220   8.789
26786WAT      O80599   4.972   8.315   5.165
26786WAT     H180600   4.879   8.277   5.158
26786WAT     H280601   5.020   8.302   5.078
26787WAT      O80602   0.983   3.022   1.080
26787WAT     H180603   1.031   3.040   0.995
26787WAT     H280604   1.017   3.082   1.152
26788WAT      O80605   5.429   6.430   0.400
26788WAT     H180606   5.361   6.492   0.439
26788WAT     H280607   5.408   6.336   0.427
26789WAT      O80608   0.355   2.887   9.558
26789WAT     H180609   0.451   2.889   9.530
26789WAT     H280610   0.301   2.839   9.489
26790WAT      O80611   8.351   4.321   1.938
26790WAT     H180612   8.380   4.403   1.889
26790WAT     H280613   8.339   4.246   1.873
26791WAT      O80614   3.978   1.756   3.585
26791WAT     H180615   4.073   1.785   3.569
26791WAT     H280616   3.927   1.831   3.627
26792WAT      O80617   2.746   0.073   4.280
26792WAT     H180618   2.795   0.083   4.193
26792WAT     H280619   2.769   0.150   4.340
26793WAT      O80620   1.805   1.662   5.619
26793WAT     H180621   1.886   1.632   5.671
26793WAT     H280622   1.729   1.601   5.639
26794WAT      O80623   9.481   1.943   2.384
26794WAT     H180624   9.430   2.027   2.400
26794WAT     H280625   9.565   1.964   2.334
26795WAT      O80626   2.680   6.830   9.060
26795WAT     H180627   2.616   6.907   9.063
26795WAT     H280628   2.770   6.859   9.094
26796WAT      O80629   8.649   5.467   8.982
26796WAT     H180630   8.610   5.484   9.073
26796WAT     H280631   8.724   5.531   8.966
26797WAT      O80632   2.833   8.374   2.023
26797WAT     H180633   2.748   8.399   1.976
26797WAT     H280634   2.910   8.419   1.977
26798WAT      O80635   4.168   1.816   8.725
26798WAT     H180636   4.132   1.908   8.713
26798WAT     H280637   4.262   1.811   8.691
26799WAT      O80638   2.792   0.669   4.202
26799WAT     H180639   2.773   0.696   4.296
26799WAT     H280640   2.891   0.666   4.187
26800WAT      O80641   6.463   3.875   9.711
26800WAT     H180642   6.464   3.775   9.716
26800WAT     H280643   6.372   3.908   9.736
26801WAT      O80644   5.074   3.246   3.198
26801WAT     H180645   5.167   3.244   3.160
26801WAT     H280646   5.080   3.243   3.298
26802WAT      O80647   7.450   4.472   4.163
26802WAT     H180648   7.445   4.474   4.263
26802WAT     H280649   7.414   4.385   4.130
26803WAT      O80650   8.553   1.614   9.373
26803WAT     H180651   8.557   1.708   9.407
26803WAT     H280652   8.464   1.574   9.393
26804WAT      O80653   7.410   7.122   7.740
26804WAT     H180654   7.399   7.133   7.839
26804WAT     H280655   7.323   7.097   7.699
26805WAT      O80656   3.593   4.588   0.881
26805WAT     H180657   3.577   4.602   0.784
26805WAT     H280658   3.583   4.674   0.930
26806WAT      O80659   4.976   9.403   7.474
26806WAT     H180660   5.009   9.313   7.505
26806WAT     H280661   4.876   9.401   7.467
26807WAT      O80662   8.876   7.363   9.702
26807WAT     H180663   8.846   7.270   9.682
26807WAT     H280664   8.802   7.427   9.682
26808WAT      O80665   7.880   4.544   1.167
26808WAT     H180666   7.945   4.470   1.181
26808WAT     H280667   7.859   4.552   1.069
26809WAT      O80668   9.740   4.731   3.992
26809WAT     H180669   9.807   4.666   3.955
26809WAT     H280670   9.738   4.722   4.092
26810WAT      O80671   6.512   0.989   9.650
26810WAT     H180672   6.510   0.960   9.746
26810WAT     H280673   6.541   1.085   9.645
26811WAT      O80674   1.234   7.966   7.050
26811WAT     H180675   1.224   7.919   6.963
26811WAT     H280676   1.305   8.036   7.042
26812WAT      O80677   8.872   3.068   1.206
26812WAT     H180678   8.875   2.974   1.171
26812WAT     H280679   8.963   3.093   1.241
26813WAT      O80680   3.697   1.643   9.232
26813WAT     H180681   3.606   1.624   9.270
26813WAT     H280682   3.698   1.619   9.135
26814WAT      O80683   0.925   7.362   2.995
26814WAT     H180684   0.940   7.457   3.023
26814WAT     H280685   0.967   7.301   3.063
26815WAT      O80686   3.083   4.445   4.869
26815WAT     H180687   3.005   4.462   4.928
26815WAT     H280688   3.070   4.359   4.820
26816WAT      O80689   1.397   1.750   9.059
26816WAT     H180690   1.452   1.676   9.019
26816WAT     H280691   1.402   1.831   9.000
26817WAT      O80692   5.336   4.526   6.585
26817WAT     H180693   5.282   4.466   6.525
26817WAT     H280694   5.313   4.621   6.566
26818WAT      O80695   7.427   6.207   7.443
26818WAT     H180696   7.332   6.185   7.419
26818WAT     H280697   7.454   6.156   7.525
26819WAT      O80698   3.212   8.416   3.468
26819WAT     H180699   3.151   8.460   3.534
26819WAT     H280700   3.274   8.355   3.516
26820WAT      O80701   4.754   2.727   1.299
26820WAT     H180702   4.827   2.665   1.270
26820WAT     H280703   4.788   2.786   1.372
26821WAT      O80704   7.960   0.690   2.796
26821WAT     H180705   8.022   0.662   2.723
26821WAT     H280706   7.872   0.644   2.784
26822WAT      O80707   7.673   4.826   0.426
26822WAT     H180708   7.606   4.847   0.497
26822WAT     H280709   7.677   4.727   0.413
26823WAT      O80710   8.504   7.508   5.100
26823WAT     H180711   8.511   7.544   5.192
26823WAT     H280712   8.506   7.583   5.034
26824WAT      O80713   9.258   8.281   4.299
26824WAT     H180714   9.204   8.203   4.332
26824WAT     H280715   9.356   8.259   4.306
26825WAT      O80716   2.080   2.690   8.898
26825WAT     H180717   2.136   2.608   8.911
26825WAT     H280718   2.056   2.698   8.801
26826WAT      O80719   2.754   0.337   5.680
26826WAT     H180720   2.711   0.346   5.590
26826WAT     H280721   2.683   0.337   5.751
26827WAT      O80722   6.853   2.246   8.559
26827WAT     H180723   6.847   2.310   8.482
26827WAT     H280724   6.939   2.259   8.608
26828WAT      O80725   9.176   8.843   6.871
26828WAT     H180726   9.244   8.867   6.940
26828WAT     H280727   9.107   8.784   6.912
26829WAT      O80728   8.315   6.117   1.972
26829WAT     H180729   8.286   6.191   2.031
26829WAT     H280730   8.297   6.029   2.016
26830WAT      O80731   5.041   8.265   8.223
26830WAT     H180732   5.126   8.219   8.249
26830WAT     H280733   5.004   8.222   8.140
26831WAT      O80734   3.294   1.496   5.944
26831WAT     H180735   3.240   1.442   6.008
26831WAT     H280736   3.369   1.440   5.908
26832WAT      O80737   2.161   1.455   7.199
26832WAT     H180738   2.178   1.495   7.109
26832WAT     H280739   2.087   1.388   7.193
26833WAT      O80740   9.309   0.023   5.305
26833WAT     H180741   9.346   0.012   5.397
26833WAT     H280742   9.217  -0.015   5.301
26834WAT      O80743   8.317   4.204   7.733
26834WAT     H180744   8.352   4.116   7.702
26834WAT     H280745   8.393   4.261   7.765
26835WAT      O80746   0.964   5.032   7.505
26835WAT     H180747   0.866   5.032   7.489
26835WAT     H280748   1.002   5.121   7.478
26836WAT      O80749   0.436   1.661   0.855
26836WAT     H180750   0.504   1.610   0.803
26836WAT     H280751   0.391   1.599   0.921
26837WAT      O80752   6.376   5.396   7.450
26837WAT     H180753   6.447   5.424   7.514
26837WAT     H280754   6.286   5.413   7.489
26838WAT      O80755   9.178   0.200   9.272
26838WAT     H180756   9.114   0.125   9.288
26838WAT     H280757   9.233   0.180   9.190
26839WAT      O80758   3.347   6.535   2.108
26839WAT     H180759   3.366   6.628   2.141
26839WAT     H280760   3.267   6.499   2.155
26840WAT      O80761   3.693   8.276   4.586
26840WAT     H180762   3.712   8.354   4.646
26840WAT     H280763   3.612   8.227   4.619
26841WAT      O80764   9.160   1.333   4.765
26841WAT     H180765   9.168   1.293   4.856
26841WAT     H280766   9.078   1.298   4.720
26842WAT      O80767   1.173   8.753   2.408
26842WAT     H180768   1.082   8.792   2.419
26842WAT     H280769   1.169   8.675   2.345
26843WAT      O80770   8.719   0.796   1.047
26843WAT     H180771   8.717   0.748   1.135
26843WAT     H280772   8.800   0.855   1.044
26844WAT      O80773   3.706   7.052   0.073
26844WAT     H180774   3.712   7.152   0.072
26844WAT     H280775   3.798   7.013   0.073
26845WAT      O80776   9.208   4.797   2.608
26845WAT     H180777   9.117   4.807   2.648
26845WAT     H280778   9.201   4.749   2.520
26846WAT      O80779   5.781   6.642   9.672
26846WAT     H180780   5.853   6.580   9.701
26846WAT     H280781   5.817   6.702   9.600
26847WAT      O80782   5.540   8.635   8.841
26847WAT     H180783   5.612   8.612   8.776
26847WAT     H280784   5.469   8.565   8.838
26848WAT      O80785   1.434   1.643   6.658
26848WAT     H180786   1.420   1.558   6.608
26848WAT     H280787   1.508   1.631   6.724
26849WAT      O80788   2.072   1.894   6.919
26849WAT     H180789   2.169   1.900   6.896
26849WAT     H280790   2.057   1.935   7.009
26850WAT      O80791   7.032   0.951   8.817
26850WAT     H180792   6.965   0.877   8.814
26850WAT     H280793   7.067   0.969   8.725
26851WAT      O80794   2.900   2.186   1.948
26851WAT     H180795   2.918   2.108   1.887
26851WAT     H280796   2.967   2.187   2.022
26852WAT      O80797   0.035   8.746   9.579
26852WAT     H180798  -0.027   8.825   9.582
26852WAT     H280799   0.014   8.684   9.654
26853WAT      O80800   0.179   2.494   2.185
26853WAT     H180801   0.190   2.497   2.285
26853WAT     H280802   0.164   2.400   2.155
26854WAT      O80803   2.867   8.749   3.978
26854WAT     H180804   2.876   8.682   4.052
26854WAT     H280805   2.818   8.829   4.012
26855WAT      O80806   0.531   7.352   5.102
26855WAT     H180807   0.599   7.425   5.107
26855WAT     H280808   0.455   7.372   5.163
26856WAT      O80809   7.982   7.559   8.189
26856WAT     H180810   7.927   7.541   8.108
26856WAT     H280811   7.974   7.482   8.252
26857WAT      O80812   9.391   4.033   7.781
26857WAT     H180813   9.369   4.093   7.705
26857WAT     H280814   9.311   4.022   7.840
26858WAT      O80815   6.521   0.927   2.605
26858WAT     H180816   6.560   1.001   2.550
26858WAT     H280817   6.525   0.952   2.702
26859WAT      O80818   7.396   2.256   0.503
26859WAT     H180819   7.350   2.274   0.591
26859WAT     H280820   7.328   2.259   0.430
26860WAT      O80821   1.696   3.745   7.332
26860WAT     H180822   1.745   3.832   7.322
26860WAT     H280823   1.647   3.745   7.419
26861WAT      O80824   3.192   6.069   0.610
26861WAT     H180825   3.222   5.976   0.589
26861WAT     H280826   3.093   6.069   0.626
26862WAT      O80827   6.171   2.540   3.042
26862WAT     H180828   6.140   2.445   3.047
26862WAT     H280829   6.160   2.583   3.132
26863WAT      O80830   3.348   7.887   7.374
26863WAT     H180831   3.404   7.917   7.451
26863WAT     H280832   3.367   7.943   7.294
26864WAT      O80833   0.789   7.198   4.954
26864WAT     H180834   0.763   7.124   5.016
26864WAT     H280835   0.858   7.256   4.999
26865WAT      O80836   9.417   5.828   4.667
26865WAT     H180837   9.384   5.892   4.736
26865WAT     H280838   9.475   5.759   4.709
26866WAT      O80839   7.261   7.970   6.721
26866WAT     H180840   7.272   7.904   6.796
26866WAT     H280841   7.313   7.940   6.642
26867WAT      O80842   6.428   8.723   6.449
26867WAT     H180843   6.403   8.717   6.352
26867WAT     H280844   6.514   8.772   6.458
26868WAT      O80845   4.673   7.570   2.062
26868WAT     H180846   4.730   7.569   2.145
26868WAT     H280847   4.586   7.615   2.082
26869WAT      O80848   4.958   3.894   3.861
26869WAT     H180849   4.953   3.795   3.862
26869WAT     H280850   5.008   3.925   3.781
26870WAT      O80851   5.672   9.308   4.385
26870WAT     H180852   5.585   9.296   4.337
26870WAT     H280853   5.659   9.370   4.463
26871WAT      O80854   6.297   7.865   3.409
26871WAT     H180855   6.243   7.853   3.326
26871WAT     H280856   6.364   7.938   3.396
26872WAT      O80857   1.468   4.521   5.109
26872WAT     H180858   1.503   4.614   5.125
26872WAT     H280859   1.447   4.510   5.012
26873WAT      O80860   9.315   5.229   6.726
26873WAT     H180861   9.295   5.243   6.629
26873WAT     H280862   9.343   5.134   6.741
26874WAT      O80863   7.823   4.862   6.879
26874WAT     H180864   7.784   4.947   6.842
26874WAT     H280865   7.870   4.813   6.805
26875WAT      O80866   1.229   3.944   6.510
26875WAT     H180867   1.213   3.891   6.426
26875WAT     H280868   1.275   4.030   6.486
26876WAT      O80869   4.390   0.351   7.742
26876WAT     H180870   4.476   0.325   7.698
26876WAT     H280871   4.332   0.269   7.750
26877WAT      O80872   3.906   5.427   0.657
26877WAT     H180873   3.963   5.506   0.633
26877WAT     H280874   3.963   5.345   0.665
26878WAT      O80875   4.158   7.063   6.991
26878WAT     H180876   4.244   7.114   6.993
26878WAT     H280877   4.170   6.978   6.942
26879WAT      O80878   4.348   3.227   8.701
26879WAT     H180879   4.369   3.146   8.755
26879WAT     H280880   4.356   3.308   8.759
26880WAT      O80881   4.840   7.026   7.943
26880WAT     H180882   4.847   6.970   7.860
26880WAT     H280883   4.837   6.967   8.023
26881WAT      O80884   6.674   1.174   3.943
26881WAT     H180885   6.748   1.120   3.982
26881WAT     H280886   6.710   1.231   3.869
26882WAT      O80887   3.124   1.286   1.701
26882WAT     H180888   3.043   1.234   1.728
26882WAT     H280889   3.103   1.341   1.620
26883WAT      O80890   8.222   4.924   5.663
26883WAT     H180891   8.233   4.840   5.610
26883WAT     H280892   8.223   5.003   5.601
26884WAT      O80893   4.767   7.851   2.781
26884WAT     H180894   4.729   7.764   2.811
26884WAT     H280895   4.866   7.848   2.786
26885WAT      O80896   3.514   4.927   9.714
26885WAT     H180897   3.461   4.842   9.713
26885WAT     H280898   3.549   4.946   9.623
26886WAT      O80899   7.309   4.795   7.193
26886WAT     H180900   7.382   4.727   7.192
26886WAT     H280901   7.281   4.815   7.099
26887WAT      O80902   6.765   9.006   4.428
26887WAT     H180903   6.855   9.004   4.384
26887WAT     H280904   6.713   9.084   4.393
26888WAT      O80905   1.695   9.114   3.585
26888WAT     H180906   1.599   9.103   3.558
26888WAT     H280907   1.701   9.119   3.684
26889WAT      O80908   5.535   1.833   4.385
26889WAT     H180909   5.465   1.894   4.421
26889WAT     H280910   5.494   1.772   4.317
26890WAT      O80911   9.591   2.407   4.107
26890WAT     H180912   9.645   2.469   4.049
26890WAT     H280913   9.514   2.457   4.147
26891WAT      O80914   9.402   2.383   5.961
26891WAT     H180915   9.368   2.470   5.927
26891WAT     H280916   9.327   2.331   6.001
26892WAT      O80917   2.581   9.701   1.842
26892WAT     H180918   2.619   9.740   1.758
26892WAT     H280919   2.600   9.763   1.918
26893WAT      O80920   0.208   1.886   7.252
26893WAT     H180921   0.194   1.851   7.159
26893WAT     H280922   0.305   1.883   7.274
26894WAT      O80923   2.485   9.440   2.458
26894WAT     H180924   2.503   9.363   2.520
26894WAT     H280925   2.386   9.445   2.440
26895WAT      O80926   2.035   0.256   3.601
26895WAT     H180927   2.097   0.296   3.668
26895WAT     H280928   2.006   0.165   3.631
26896WAT      O80929   1.223   3.161   6.875
26896WAT     H180930   1.212   3.068   6.908
26896WAT     H280931   1.133   3.200   6.857
26897WAT      O80932   0.957   8.692   3.866
26897WAT     H180933   1.012   8.767   3.903
26897WAT     H280934   0.989   8.670   3.773
26898WAT      O80935   0.495   0.260   0.428
26898WAT     H180936   0.561   0.300   0.364
26898WAT     H280937   0.473   0.167   0.400
26899WAT      O80938   6.250   9.656   7.010
26899WAT     H180939   6.241   9.559   7.031
26899WAT     H280940   6.323   9.669   6.943
26900WAT      O80941   8.074   6.097   1.350
26900WAT     H180942   8.162   6.060   1.378
26900WAT     H280943   8.000   6.046   1.394
26901WAT      O80944   4.192   4.617   1.107
26901WAT     H180945   4.231   4.529   1.133
26901WAT     H280946   4.264   4.687   1.107
26902WAT      O80947   0.455   3.347   5.381
26902WAT     H180948   0.519   3.360   5.306
26902WAT     H280949   0.482   3.266   5.434
26903WAT      O80950   9.595   4.518   6.081
26903WAT     H180951   9.661   4.543   6.152
26903WAT     H280952   9.608   4.422   6.055
26904WAT      O80953   2.446   1.742   6.784
26904WAT     H180954   2.536   1.784   6.800
26904WAT     H280955   2.456   1.642   6.784
26905WAT      O80956   3.875   6.128   5.745
26905WAT     H180957   3.916   6.194   5.682
26905WAT     H280958   3.942   6.058   5.770
26906WAT      O80959   5.926   0.315   3.455
26906WAT     H180960   6.015   0.350   3.483
26906WAT     H280961   5.859   0.330   3.528
26907WAT      O80962   5.034   0.415   1.668
26907WAT     H180963   4.999   0.362   1.745
26907WAT     H280964   5.069   0.503   1.701
26908WAT      O80965   4.755   7.140   2.881
26908WAT     H180966   4.693   7.087   2.823
26908WAT     H280967   4.826   7.079   2.917
26909WAT      O80968   3.414   8.120   1.869
26909WAT     H180969   3.444   8.215   1.878
26909WAT     H280970   3.493   8.062   1.854
26910WAT      O80971   2.909   2.831   4.492
26910WAT     H180972   2.985   2.782   4.450
26910WAT     H280973   2.927   2.930   4.489
26911WAT      O80974   4.474   5.094   8.109
26911WAT     H180975   4.490   5.138   8.021
26911WAT     H280976   4.490   4.995   8.100
26912WAT      O80977   5.233   4.900   1.947
26912WAT     H180978   5.213   4.914   2.044
26912WAT     H280979   5.329   4.922   1.929
26913WAT      O80980   3.238   3.026   5.704
26913WAT     H180981   3.243   2.992   5.798
26913WAT     H280982   3.184   2.963   5.649
26914WAT      O80983   5.191   7.133   0.159
26914WAT     H180984   5.229   7.050   0.119
26914WAT     H280985   5.096   7.116   0.185
26915WAT      O80986   2.722   3.639   0.682
26915WAT     H180987   2.793   3.613   0.748
26915WAT     H280988   2.647   3.683   0.730
26916WAT      O80989   5.665   2.082   0.353
26916WAT     H180990   5.639   2.040   0.267
26916WAT     H280991   5.644   2.020   0.429
26917WAT      O80992   3.043   5.896   2.071
26917WAT     H180993   3.112   5.919   2.139
26917WAT     H280994   3.074   5.818   2.017
26918WAT      O80995   5.044   4.994   9.003
26918WAT     H180996   4.987   5.071   8.974
26918WAT     H280997   5.046   4.990   9.103
26919WAT      O80998   5.618   2.955   6.835
26919WAT     H180999   5.625   2.973   6.737
26919WAT     H281000   5.709   2.958   6.876
26920WAT      O81001   0.643   8.599   9.397
26920WAT     H181002   0.736   8.562   9.398
26920WAT     H281003   0.578   8.524   9.386
26921WAT      O81004   3.729   9.731   2.062
26921WAT     H181005   3.680   9.683   1.989
26921WAT     H281006   3.711   9.829   2.055
26922WAT      O81007   2.948   3.887   9.346
26922WAT     H181008   2.912   3.795   9.336
26922WAT     H281009   3.007   3.891   9.427
26923WAT      O81010   1.190   8.829   8.911
26923WAT     H181011   1.180   8.924   8.880
26923WAT     H281012   1.190   8.767   8.833
26924WAT      O81013   6.089   4.611   0.050
26924WAT     H181014   6.074   4.629  -0.047
26924WAT     H281015   6.010   4.644   0.103
26925WAT      O81016   6.635   7.682   4.994
26925WAT     H181017   6.725   7.712   4.962
26925WAT     H281018   6.635   7.583   5.005
26926WAT      O81019   6.766   4.132   2.224
26926WAT     H181020   6.726   4.044   2.250
26926WAT     H281021   6.814   4.171   2.303
26927WAT      O81022   6.988   4.407   6.710
26927WAT     H181023   6.950   4.495   6.740
26927WAT     H281024   7.084   4.401   6.739
26928WAT      O81025   6.465   5.358   0.246
26928WAT     H181026   6.481   5.345   0.148
26928WAT     H281027   6.549   5.390   0.290
26929WAT      O81028   2.227   8.539   3.783
26929WAT     H181029   2.142   8.510   3.738
26929WAT     H281030   2.206   8.580   3.871
26930WAT      O81031   2.121   3.496   4.103
26930WAT     H181032   2.040   3.508   4.161
26930WAT     H281033   2.094   3.499   4.007
26931WAT      O81034   5.315   0.261   9.762
26931WAT     H181035   5.228   0.228   9.798
26931WAT     H281036   5.298   0.328   9.689
26932WAT      O81037   2.092   8.900   5.029
26932WAT     H181038   2.032   8.979   5.041
26932WAT     H281039   2.182   8.920   5.068
26933WAT      O81040   2.121   3.837   0.130
26933WAT     H181041   2.205   3.834   0.076
26933WAT     H281042   2.068   3.755   0.113
26934WAT      O81043   8.023   8.334   3.599
26934WAT     H181044   8.009   8.433   3.607
26934WAT     H281045   8.082   8.302   3.673
26935WAT      O81046   5.560   9.584   9.229
26935WAT     H181047   5.479   9.538   9.266
26935WAT     H281048   5.634   9.581   9.296
26936WAT      O81049   4.325   9.332   8.310
26936WAT     H181050   4.403   9.273   8.332
26936WAT     H281051   4.241   9.291   8.347
26937WAT      O81052   1.052   0.595   8.419
26937WAT     H181053   1.050   0.507   8.468
26937WAT     H281054   0.961   0.616   8.384
26938WAT      O81055   3.935   4.278   6.427
26938WAT     H181056   4.007   4.322   6.482
26938WAT     H281057   3.924   4.183   6.458
26939WAT      O81058   5.552   3.438   0.466
26939WAT     H181059   5.587   3.369   0.402
26939WAT     H281060   5.522   3.519   0.414
26940WAT      O81061   7.374   4.537   2.352
26940WAT     H181062   7.320   4.521   2.269
26940WAT     H281063   7.445   4.467   2.359
26941WAT      O81064   8.374   4.146   0.494
26941WAT     H181065   8.307   4.148   0.420
26941WAT     H281066   8.385   4.238   0.531
26942WAT      O81067   1.064   5.347   0.494
26942WAT     H181068   1.126   5.357   0.571
26942WAT     H281069   1.012   5.262   0.503
26943WAT      O81070   0.531   6.461   2.498
26943WAT     H181071   0.617   6.444   2.451
26943WAT     H281072   0.504   6.380   2.550
26944WAT      O81073   0.682   4.099   0.235
26944WAT     H181074   0.672   4.149   0.320
26944WAT     H281075   0.630   4.145   0.162
26945WAT      O81076   8.667   8.712   1.680
26945WAT     H181077   8.613   8.738   1.760
26945WAT     H281078   8.607   8.688   1.605
26946WAT      O81079   8.401   3.252   9.350
26946WAT     H181080   8.438   3.182   9.288
26946WAT     H281081   8.477   3.306   9.386
26947WAT      O81082   8.569   7.385   5.660
26947WAT     H181083   8.656   7.391   5.611
26947WAT     H281084   8.494   7.377   5.595
26948WAT      O81085   5.419   0.392   6.715
26948WAT     H181086   5.463   0.466   6.665
26948WAT     H281087   5.388   0.425   6.804
26949WAT      O81088   9.619   2.567   6.168
26949WAT     H181089   9.670   2.620   6.236
26949WAT     H281090   9.557   2.628   6.119
26950WAT      O81091   6.360   6.271   0.386
26950WAT     H181092   6.443   6.254   0.439
26950WAT     H281093   6.297   6.327   0.441
26951WAT      O81094   3.413   0.379   8.068
26951WAT     H181095   3.426   0.478   8.070
26951WAT     H281096   3.327   0.358   8.021
26952WAT      O81097   8.708   2.966   0.313
26952WAT     H181098   8.654   2.965   0.229
26952WAT     H281099   8.689   3.050   0.364
26953WAT      O81100   0.488   4.933   3.584
26953WAT     H181101   0.506   4.948   3.681
26953WAT     H281102   0.572   4.951   3.532
26954WAT      O81103   9.137   3.721   4.033
26954WAT     H181104   9.179   3.784   4.099
26954WAT     H281105   9.076   3.772   3.972
26955WAT      O81106   8.775   6.973   8.311
26955WAT     H181107   8.734   6.919   8.385
26955WAT     H281108   8.717   7.052   8.292
26956WAT      O81109   5.116   4.027   1.641
26956WAT     H181110   5.042   4.072   1.690
26956WAT     H281111   5.189   4.093   1.624
26957WAT      O81112   5.273   3.035   3.212
26957WAT     H181113   5.246   2.990   3.127
26957WAT     H281114   5.197   3.034   3.276
26958WAT      O81115   1.854   6.769   0.503
26958WAT     H181116   1.909   6.782   0.586
26958WAT     H281117   1.781   6.838   0.501
26959WAT      O81118   3.974   6.847   1.126
26959WAT     H181119   3.973   6.760   1.076
26959WAT     H281120   4.010   6.831   1.218
26960WAT      O81121   4.874   0.188   8.773
26960WAT     H181122   4.953   0.132   8.751
26960WAT     H281123   4.827   0.150   8.853
26961WAT      O81124   2.197   8.412   5.805
26961WAT     H181125   2.182   8.332   5.746
26961WAT     H281126   2.177   8.495   5.754
26962WAT      O81127   1.174   0.536   1.408
26962WAT     H181128   1.153   0.564   1.315
26962WAT     H281129   1.185   0.617   1.466
26963WAT      O81130   4.978   6.315   3.279
26963WAT     H181131   5.014   6.223   3.261
26963WAT     H281132   4.882   6.308   3.307
26964WAT      O81133   6.538   8.861   2.349
26964WAT     H181134   6.449   8.818   2.334
26964WAT     H281135   6.544   8.892   2.444
26965WAT      O81136   1.994   8.161   8.783
26965WAT     H181137   1.979   8.151   8.684
26965WAT     H281138   2.025   8.253   8.803
26966WAT      O81139   1.112   8.048   7.853
26966WAT     H181140   1.185   7.989   7.820
26966WAT     H281141   1.147   8.141   7.869
26967WAT      O81142   4.556   9.258   2.550
26967WAT     H181143   4.517   9.168   2.530
26967WAT     H281144   4.616   9.285   2.475
26968WAT      O81145   7.097   0.162   7.139
26968WAT     H181146   7.029   0.230   7.167
26968WAT     H281147   7.165   0.152   7.212
26969WAT      O81148   2.926   4.016   0.611
26969WAT     H181149   2.835   4.051   0.635
26969WAT     H281150   2.936   4.016   0.511
26970WAT      O81151   9.652   2.127   6.789
26970WAT     H181152   9.564   2.163   6.821
26970WAT     H281153   9.698   2.079   6.863
26971WAT      O81154   9.499   6.268   7.283
26971WAT     H181155   9.490   6.261   7.184
26971WAT     H281156   9.420   6.224   7.327
26972WAT      O81157   6.810   5.788   1.546
26972WAT     H181158   6.833   5.698   1.510
26972WAT     H281159   6.768   5.843   1.473
26973WAT      O81160   0.305   3.415   8.544
26973WAT     H181161   0.284   3.405   8.641
26973WAT     H281162   0.294   3.327   8.498
26974WAT      O81163   9.152   5.783   8.925
26974WAT     H181164   9.080   5.786   8.994
26974WAT     H281165   9.241   5.777   8.970
26975WAT      O81166   6.796   4.525   3.361
26975WAT     H181167   6.740   4.563   3.435
26975WAT     H281168   6.747   4.534   3.274
26976WAT      O81169   6.472   6.226   1.406
26976WAT     H181170   6.518   6.313   1.387
26976WAT     H281171   6.407   6.239   1.481
26977WAT      O81172   9.764   6.782   1.604
26977WAT     H181173   9.860   6.809   1.610
26977WAT     H281174   9.706   6.859   1.630
26978WAT      O81175   8.654   2.184   8.858
26978WAT     H181176   8.734   2.129   8.836
26978WAT     H281177   8.637   2.249   8.783
26979WAT      O81178   1.937   4.430   1.878
26979WAT     H181179   1.988   4.430   1.792
26979WAT     H281180   1.993   4.470   1.950
26980WAT      O81181   3.743   3.022   2.858
26980WAT     H181182   3.792   2.936   2.853
26980WAT     H281183   3.737   3.063   2.767
26981WAT      O81184   4.861   3.302   9.070
26981WAT     H181185   4.815   3.391   9.067
26981WAT     H281186   4.812   3.241   9.132
26982WAT      O81187   5.529   9.277   8.608
26982WAT     H181188   5.431   9.278   8.626
26982WAT     H281189   5.579   9.308   8.689
26983WAT      O81190   2.091   0.546   9.639
26983WAT     H181191   2.083   0.575   9.734
26983WAT     H281192   2.038   0.462   9.625
26984WAT      O81193   8.066   0.196   5.603
26984WAT     H181194   8.097   0.230   5.691
26984WAT     H281195   8.063   0.097   5.604
26985WAT      O81196   4.453   3.822   8.383
26985WAT     H181197   4.525   3.847   8.318
26985WAT     H281198   4.364   3.848   8.346
26986WAT      O81199   7.218   6.416   3.650
26986WAT     H181200   7.251   6.507   3.626
26986WAT     H281201   7.231   6.355   3.572
26987WAT      O81202   2.194   8.027   4.537
26987WAT     H181203   2.165   8.121   4.523
26987WAT     H281204   2.292   8.020   4.523
26988WAT      O81205   5.387   2.635   7.423
26988WAT     H181206   5.425   2.550   7.386
26988WAT     H281207   5.299   2.617   7.466
26989WAT      O81208   6.526   5.448   4.140
26989WAT     H181209   6.453   5.387   4.173
26989WAT     H281210   6.582   5.477   4.217
26990WAT      O81211   7.999   8.812   3.246
26990WAT     H181212   8.092   8.780   3.229
26990WAT     H281213   7.967   8.864   3.167
26991WAT      O81214   7.601   8.278   9.202
26991WAT     H181215   7.575   8.246   9.294
26991WAT     H281216   7.574   8.373   9.191
26992WAT      O81217   5.024   4.271   1.937
26992WAT     H181218   4.949   4.336   1.950
26992WAT     H281219   4.997   4.203   1.868
26993WAT      O81220   6.393   7.770   1.091
26993WAT     H181221   6.433   7.828   1.162
26993WAT     H281222   6.429   7.797   1.002
26994WAT      O81223   8.755   5.483   5.230
26994WAT     H181224   8.763   5.579   5.202
26994WAT     H281225   8.816   5.465   5.306
26995WAT      O81226   4.728   4.528   0.027
26995WAT     H181227   4.637   4.489   0.012
26995WAT     H281228   4.760   4.573  -0.056
26996WAT      O81229   3.809   7.580   3.225
26996WAT     H181230   3.860   7.618   3.148
26996WAT     H281231   3.871   7.564   3.302
26997WAT      O81232   6.688   9.473   9.065
26997WAT     H181233   6.620   9.451   8.996
26997WAT     H281234   6.713   9.390   9.115
26998WAT      O81235   2.733   1.479   2.380
26998WAT     H181236   2.774   1.519   2.298
26998WAT     H281237   2.797   1.487   2.456
26999WAT      O81238   4.242   5.207   7.229
26999WAT     H181239   4.254   5.161   7.317
26999WAT     H281240   4.280   5.299   7.234
27000WAT      O81241   5.611   9.682   0.698
27000WAT     H181242   5.573   9.741   0.769
27000WAT     H281243   5.577   9.710   0.608
27001WAT      O81244   1.375   4.660   5.407
27001WAT     H181245   1.332   4.604   5.336
27001WAT     H281246   1.309   4.677   5.481
27002WAT      O81247   9.708   4.187   2.911
27002WAT     H181248   9.671   4.135   2.834
27002WAT     H281249   9.636   4.202   2.979
27003WAT      O81250   4.660   9.123   2.778
27003WAT     H181251   4.641   9.151   2.872
27003WAT     H281252   4.620   9.189   2.715
27004WAT      O81253   4.645   0.960   8.390
27004WAT     H181254   4.633   0.957   8.291
27004WAT     H281255   4.568   1.007   8.432
27005WAT      O81256   2.338   5.097   1.767
27005WAT     H181257   2.417   5.051   1.808
27005WAT     H281258   2.323   5.185   1.812
27006WAT      O81259   0.261   3.979   2.287
27006WAT     H181260   0.283   3.979   2.190
27006WAT     H281261   0.203   3.901   2.309
27007WAT      O81262   9.475   0.164   0.916
27007WAT     H181263   9.385   0.163   0.872
27007WAT     H281264   9.543   0.200   0.852
27008WAT      O81265   2.023   3.215   6.536
27008WAT     H181266   2.014   3.120   6.565
27008WAT     H281267   1.944   3.268   6.566
27009WAT      O81268   5.562   2.764   7.587
27009WAT     H181269   5.510   2.715   7.517
27009WAT     H281270   5.528   2.738   7.678
27010WAT      O81271   9.410   1.731   5.790
27010WAT     H181272   9.386   1.778   5.875
27010WAT     H281273   9.386   1.789   5.712
27011WAT      O81274   0.534   4.480   9.308
27011WAT     H181275   0.634   4.474   9.312
27011WAT     H281276   0.502   4.549   9.373
27012WAT      O81277   9.155   6.691   0.987
27012WAT     H181278   9.121   6.754   1.057
27012WAT     H281279   9.202   6.743   0.916
27013WAT      O81280   8.351   4.605   1.836
27013WAT     H181281   8.306   4.693   1.850
27013WAT     H281282   8.437   4.619   1.787
27014WAT      O81283   1.651   7.597   8.235
27014WAT     H181284   1.707   7.618   8.156
27014WAT     H281285   1.705   7.609   8.319
27015WAT      O81286   2.153   7.791   6.211
27015WAT     H181287   2.178   7.887   6.203
27015WAT     H281288   2.077   7.781   6.275
27016WAT      O81289   9.810   6.147   1.354
27016WAT     H181290   9.783   6.193   1.270
27016WAT     H281291   9.733   6.094   1.390
27017WAT      O81292   1.427   0.705   6.966
27017WAT     H181293   1.468   0.707   7.057
27017WAT     H281294   1.432   0.796   6.925
27018WAT      O81295   2.438   5.458   8.192
27018WAT     H181296   2.358   5.471   8.134
27018WAT     H281297   2.495   5.540   8.190
27019WAT      O81298   8.076   7.761   7.533
27019WAT     H181299   8.112   7.669   7.540
27019WAT     H281300   7.991   7.768   7.586
27020WAT      O81301   8.793   1.692   1.579
27020WAT     H181302   8.751   1.644   1.656
27020WAT     H281303   8.771   1.645   1.494
27021WAT      O81304   4.384   3.256   0.445
27021WAT     H181305   4.346   3.314   0.374
27021WAT     H281306   4.438   3.312   0.508
27022WAT      O81307   9.195   6.060   9.874
27022WAT     H181308   9.101   6.041   9.843
27022WAT     H281309   9.213   6.158   9.868
27023WAT      O81310   6.624   0.622   9.897
27023WAT     H181311   6.712   0.576   9.907
27023WAT     H281312   6.591   0.612   9.803
27024WAT      O81313   1.628   3.022   8.540
27024WAT     H181314   1.553   3.059   8.486
27024WAT     H281315   1.592   2.960   8.610
27025WAT      O81316   0.560   7.400   1.525
27025WAT     H181317   0.564   7.495   1.556
27025WAT     H281318   0.557   7.397   1.426
27026WAT      O81319   5.250   6.034   1.810
27026WAT     H181320   5.315   5.998   1.744
27026WAT     H281321   5.216   6.123   1.779
27027WAT      O81322   5.939   6.529   1.143
27027WAT     H181323   5.850   6.575   1.135
27027WAT     H281324   6.009   6.595   1.170
27028WAT      O81325   5.409   8.415   7.722
27028WAT     H181326   5.358   8.440   7.640
27028WAT     H281327   5.356   8.441   7.803
27029WAT      O81328   4.419   5.380   7.090
27029WAT     H181329   4.428   5.283   7.069
27029WAT     H281330   4.345   5.419   7.036
27030WAT      O81331   5.489   4.112   9.098
27030WAT     H181332   5.476   4.120   8.999
27030WAT     H281333   5.447   4.191   9.143
27031WAT      O81334   3.039   1.983   6.444
27031WAT     H181335   3.090   1.899   6.456
27031WAT     H281336   3.099   2.062   6.457
27032WAT      O81337   9.573   7.863   4.834
27032WAT     H181338   9.565   7.779   4.889
27032WAT     H281339   9.600   7.939   4.893
27033WAT      O81340   9.879   8.220   1.831
27033WAT     H181341   9.960   8.184   1.877
27033WAT     H281342   9.903   8.303   1.781
27034WAT      O81343   6.016   8.899   6.409
27034WAT     H181344   6.026   8.849   6.323
27034WAT     H281345   5.963   8.982   6.394
27035WAT      O81346   1.496   5.341   9.145
27035WAT     H181347   1.422   5.331   9.079
27035WAT     H281348   1.477   5.419   9.205
27036WAT      O81349   8.472   2.802   0.892
27036WAT     H181350   8.484   2.848   0.804
27036WAT     H281351   8.393   2.741   0.887
27037WAT      O81352   9.685   7.925   9.331
27037WAT     H181353   9.729   7.848   9.285
27037WAT     H281354   9.705   7.921   9.429
27038WAT      O81355   1.387   6.628   0.852
27038WAT     H181356   1.344   6.610   0.940
27038WAT     H281357   1.358   6.719   0.819
27039WAT      O81358   0.985   0.903   8.218
27039WAT     H181359   1.026   0.971   8.157
27039WAT     H281360   0.963   0.946   8.306
27040WAT      O81361   5.463   4.526   4.960
27040WAT     H181362   5.395   4.523   4.887
27040WAT     H281363   5.555   4.529   4.920
27041WAT      O81364   6.048   5.917   6.738
27041WAT     H181365   6.010   6.001   6.775
27041WAT     H281366   6.098   5.869   6.810
27042WAT      O81367   1.021   0.546   7.091
27042WAT     H181368   1.074   0.616   7.043
27042WAT     H281369   0.981   0.483   7.024
27043WAT      O81370   0.269   9.487   1.770
27043WAT     H181371   0.246   9.401   1.725
27043WAT     H281372   0.359   9.478   1.814
27044WAT      O81373   2.028   5.361   1.903
27044WAT     H181374   1.973   5.280   1.881
27044WAT     H281375   1.990   5.441   1.854
27045WAT      O81376   2.715   6.860   6.922
27045WAT     H181377   2.737   6.853   6.824
27045WAT     H281378   2.783   6.918   6.967
27046WAT      O81379   6.180   4.883   2.116
27046WAT     H181380   6.266   4.921   2.083
27046WAT     H281381   6.106   4.911   2.055
27047WAT      O81382   7.865   4.931   2.028
27047WAT     H181383   7.847   5.026   2.002
27047WAT     H281384   7.955   4.925   2.070
27048WAT      O81385   1.149   0.780   2.348
27048WAT     H181386   1.062   0.782   2.300
27048WAT     H281387   1.223   0.762   2.283
27049WAT      O81388   5.410   8.037   9.769
27049WAT     H181389   5.467   8.107   9.726
27049WAT     H281390   5.464   7.985   9.835
27050WAT      O81391   3.038   7.599   2.712
27050WAT     H181392   3.010   7.526   2.650
27050WAT     H281393   3.012   7.576   2.806
27051WAT      O81394   7.559   4.958   2.329
27051WAT     H181395   7.614   5.041   2.322
27051WAT     H281396   7.506   4.945   2.245
27052WAT      O81397   3.723   2.354   5.746
27052WAT     H181398   3.815   2.392   5.756
27052WAT     H281399   3.661   2.424   5.712
27053WAT      O81400   5.577   9.212   5.595
27053WAT     H181401   5.548   9.302   5.627
27053WAT     H281402   5.674   9.199   5.617
27054WAT      O81403   8.060   3.829   4.969
27054WAT     H181404   8.153   3.805   4.997
27054WAT     H281405   8.046   3.801   4.874
27055WAT      O81406   1.411   9.770   6.353
27055WAT     H181407   1.381   9.738   6.443
27055WAT     H281408   1.509   9.751   6.342
27056WAT      O81409   0.793   9.176   5.393
27056WAT     H181410   0.796   9.076   5.406
27056WAT     H281411   0.809   9.197   5.297
27057WAT      O81412   6.813   4.975   7.121
27057WAT     H181413   6.778   4.882   7.134
27057WAT     H281414   6.806   5.026   7.207
27058WAT      O81415   5.008   8.281   8.927
27058WAT     H181416   5.022   8.317   8.835
27058WAT     H281417   5.095   8.243   8.961
27059WAT      O81418   2.404   6.261   4.747
27059WAT     H181419   2.344   6.181   4.739
27059WAT     H281420   2.402   6.295   4.841
27060WAT      O81421   0.822   2.196   4.548
27060WAT     H181422   0.830   2.139   4.466
27060WAT     H281423   0.817   2.292   4.522
27061WAT      O81424   3.428   2.794   5.471
27061WAT     H181425   3.504   2.843   5.429
27061WAT     H281426   3.435   2.802   5.571
27062WAT      O81427   2.305   9.586   3.545
27062WAT     H181428   2.306   9.487   3.552
27062WAT     H281429   2.383   9.617   3.491
27063WAT      O81430   0.943   0.954   3.350
27063WAT     H181431   0.946   1.007   3.266
27063WAT     H281432   0.872   0.884   3.343
27064WAT      O81433   6.641   9.691   8.916
27064WAT     H181434   6.573   9.656   8.851
27064WAT     H281435   6.681   9.614   8.967
27065WAT      O81436   7.543   8.894   1.974
27065WAT     H181437   7.531   8.874   2.071
27065WAT     H281438   7.481   8.837   1.920
27066WAT      O81439   3.263   3.190   6.533
27066WAT     H181440   3.335   3.140   6.581
27066WAT     H281441   3.305   3.257   6.471
27067WAT      O81442   5.948   5.722   4.120
27067WAT     H181443   5.922   5.781   4.044
27067WAT     H281444   6.044   5.696   4.111
27068WAT      O81445   7.084   2.325   4.344
27068WAT     H181446   7.131   2.339   4.257
27068WAT     H281447   7.038   2.236   4.343
27069WAT      O81448   6.871   3.338   3.927
27069WAT     H181449   6.913   3.415   3.975
27069WAT     H281450   6.815   3.372   3.852
27070WAT      O81451   1.793   3.599   1.651
27070WAT     H181452   1.748   3.578   1.565
27070WAT     H281453   1.747   3.676   1.695
27071WAT      O81454   0.873   0.388   2.984
27071WAT     H181455   0.959   0.436   3.002
27071WAT     H281456   0.875   0.348   2.893
27072WAT      O81457   5.243   4.532   5.984
27072WAT     H181458   5.215   4.443   5.950
27072WAT     H281459   5.169   4.572   6.038
27073WAT      O81460   1.990   5.411   9.393
27073WAT     H181461   1.960   5.327   9.348
27073WAT     H281462   1.975   5.403   9.492
27074WAT      O81463   9.697   1.449   6.420
27074WAT     H181464   9.686   1.411   6.328
27074WAT     H281465   9.759   1.528   6.416
27075WAT      O81466   0.202   9.841   6.102
27075WAT     H181467   0.255   9.840   6.187
27075WAT     H281468   0.110   9.806   6.120
27076WAT      O81469   0.432   9.141   3.404
27076WAT     H181470   0.485   9.191   3.472
27076WAT     H281471   0.494   9.094   3.341
27077WAT      O81472   5.662   1.537   1.597
27077WAT     H181473   5.693   1.546   1.692
27077WAT     H281474   5.700   1.454   1.557
27078WAT      O81475   7.419   6.133   8.375
27078WAT     H181476   7.498   6.134   8.437
27078WAT     H281477   7.390   6.038   8.361
27079WAT      O81478   7.269   3.726   0.703
27079WAT     H181479   7.339   3.696   0.767
27079WAT     H281480   7.295   3.813   0.662
27080WAT      O81481   4.722   0.220   0.653
27080WAT     H181482   4.758   0.162   0.727
27080WAT     H281483   4.642   0.176   0.613
27081WAT      O81484   4.412   9.388   4.554
27081WAT     H181485   4.393   9.483   4.532
27081WAT     H281486   4.353   9.358   4.629
27082WAT      O81487   7.684   1.834   0.516
27082WAT     H181488   7.701   1.745   0.473
27082WAT     H281489   7.701   1.827   0.614
27083WAT      O81490   1.046   0.905   9.402
27083WAT     H181491   0.995   0.821   9.420
27083WAT     H281492   1.086   0.901   9.311
27084WAT      O81493   7.920   9.655   0.330
27084WAT     H181494   7.887   9.747   0.307
27084WAT     H281495   7.852   9.609   0.387
27085WAT      O81496   3.298   4.355   3.960
27085WAT     H181497   3.299   4.334   3.862
27085WAT     H281498   3.358   4.292   4.008
27086WAT      O81499   2.652   1.734   8.920
27086WAT     H181500   2.593   1.809   8.892
27086WAT     H281501   2.601   1.648   8.916
27087WAT      O81502   2.179   1.131   8.236
27087WAT     H181503   2.089   1.174   8.248
27087WAT     H281504   2.249   1.190   8.275
27088WAT      O81505   1.543   0.272   7.696
27088WAT     H181506   1.616   0.211   7.666
27088WAT     H281507   1.583   0.359   7.727
27089WAT      O81508   0.733   7.700   8.341
27089WAT     H181509   0.672   7.719   8.418
27089WAT     H281510   0.828   7.701   8.371
27090WAT      O81511   3.296   5.722   7.482
27090WAT     H181512   3.236   5.756   7.409
27090WAT     H281513   3.378   5.683   7.441
27091WAT      O81514   1.464   4.114   0.026
27091WAT     H181515   1.497   4.173   0.098
27091WAT     H281516   1.427   4.169  -0.049
27092WAT      O81517   5.121   9.598   7.596
27092WAT     H181518   5.051   9.541   7.554
27092WAT     H281519   5.173   9.545   7.662
27093WAT      O81520   4.473   7.880   5.472
27093WAT     H181521   4.476   7.918   5.564
27093WAT     H281522   4.386   7.831   5.460
27094WAT      O81523   7.046   9.554   7.510
27094WAT     H181524   7.014   9.617   7.439
27094WAT     H281525   7.011   9.462   7.492
27095WAT      O81526   9.494   9.668   8.261
27095WAT     H181527   9.499   9.730   8.339
27095WAT     H281528   9.427   9.596   8.280
27096WAT      O81529   9.108   8.218   2.354
27096WAT     H181530   9.043   8.142   2.357
27096WAT     H281531   9.200   8.183   2.337
27097WAT      O81532   1.257   2.417   4.258
27097WAT     H181533   1.169   2.393   4.300
27097WAT     H281534   1.242   2.454   4.167
27098WAT      O81535   4.884   5.320   8.670
27098WAT     H181536   4.980   5.293   8.671
27098WAT     H281537   4.867   5.383   8.594
27099WAT      O81538   9.562   6.641   6.622
27099WAT     H181539   9.522   6.723   6.662
27099WAT     H281540   9.659   6.657   6.602
27100WAT      O81541   4.976   9.133   5.495
27100WAT     H181542   4.954   9.084   5.411
27100WAT     H281543   5.044   9.082   5.547
27101WAT      O81544   8.533   1.271   1.143
27101WAT     H181545   8.536   1.206   1.067
27101WAT     H281546   8.596   1.347   1.125
27102WAT      O81547   2.907   3.545   6.846
27102WAT     H181548   2.918   3.460   6.898
27102WAT     H281549   2.907   3.525   6.748
27103WAT      O81550   2.106   2.295   2.385
27103WAT     H181551   2.052   2.213   2.370
27103WAT     H281552   2.101   2.322   2.481
27104WAT      O81553   0.475   1.701   1.188
27104WAT     H181554   0.406   1.757   1.143
27104WAT     H281555   0.507   1.747   1.271
27105WAT      O81556   2.298   2.069   6.197
27105WAT     H181557   2.396   2.086   6.190
27105WAT     H281558   2.278   2.027   6.286
27106WAT      O81559   8.954   3.942   8.819
27106WAT     H181560   8.988   3.862   8.869
27106WAT     H281561   8.992   4.025   8.859
27107WAT      O81562   7.653   7.615   1.526
27107WAT     H181563   7.610   7.525   1.525
27107WAT     H281564   7.753   7.604   1.522
27108WAT      O81565   9.085   6.150   1.390
27108WAT     H181566   9.023   6.088   1.341
27108WAT     H281567   9.061   6.245   1.369
27109WAT      O81568   3.252   7.290   3.818
27109WAT     H181569   3.310   7.208   3.824
27109WAT     H281570   3.202   7.288   3.732
27110WAT      O81571   8.127   6.470   9.064
27110WAT     H181572   8.053   6.483   9.131
27110WAT     H281573   8.142   6.556   9.015
27111WAT      O81574   7.480   6.023   5.363
27111WAT     H181575   7.454   6.020   5.266
27111WAT     H281576   7.431   5.951   5.412
27112WAT      O81577   1.623   6.181   3.338
27112WAT     H181578   1.699   6.121   3.362
27112WAT     H281579   1.619   6.258   3.402
27113WAT      O81580   4.386   1.335   1.871
27113WAT     H181581   4.399   1.248   1.918
27113WAT     H281582   4.306   1.382   1.908
27114WAT      O81583   3.783   6.350   7.586
27114WAT     H181584   3.784   6.263   7.635
27114WAT     H281585   3.777   6.334   7.488
27115WAT      O81586   8.366   2.937   7.534
27115WAT     H181587   8.446   2.935   7.594
27115WAT     H281588   8.283   2.949   7.588
27116WAT      O81589   5.434   3.855   9.416
27116WAT     H181590   5.431   3.909   9.500
27116WAT     H281591   5.420   3.759   9.438
27117WAT      O81592   0.250   5.307   8.463
27117WAT     H181593   0.202   5.391   8.489
27117WAT     H281594   0.187   5.230   8.468
27118WAT      O81595   9.738   1.134   0.506
27118WAT     H181596   9.767   1.066   0.574
27118WAT     H281597   9.745   1.225   0.546
27119WAT      O81598   8.455   8.918   4.134
27119WAT     H181599   8.424   8.824   4.148
27119WAT     H281600   8.425   8.974   4.211
27120WAT      O81601   4.704   8.242   6.706
27120WAT     H181602   4.637   8.184   6.752
27120WAT     H281603   4.678   8.254   6.610
27121WAT      O81604   6.488   7.441   8.535
27121WAT     H181605   6.538   7.516   8.577
27121WAT     H281606   6.414   7.413   8.595
27122WAT      O81607   4.547   7.760   5.823
27122WAT     H181608   4.564   7.759   5.921
27122WAT     H281609   4.525   7.854   5.795
27123WAT      O81610   1.903   9.262   3.438
27123WAT     H181611   1.995   9.264   3.477
27123WAT     H281612   1.836   9.244   3.510
27124WAT      O81613   6.742   3.658   3.300
27124WAT     H181614   6.783   3.727   3.240
27124WAT     H281615   6.814   3.610   3.350
27125WAT      O81616   7.737   0.032   8.866
27125WAT     H181617   7.741   0.120   8.819
27125WAT     H281618   7.697  -0.036   8.805
27126WAT      O81619   2.963   1.941   8.708
27126WAT     H181620   2.958   1.867   8.775
27126WAT     H281621   3.056   1.944   8.669
27127WAT      O81622   9.429   0.946   2.458
27127WAT     H181623   9.494   0.966   2.531
27127WAT     H281624   9.478   0.909   2.379
27128WAT      O81625   9.426   0.513   7.268
27128WAT     H181626   9.379   0.457   7.200
27128WAT     H281627   9.388   0.606   7.266
27129WAT      O81628   6.540   5.956   1.388
27129WAT     H181629   6.515   6.053   1.376
27129WAT     H281630   6.618   5.935   1.329
27130WAT      O81631   7.218   8.943   4.203
27130WAT     H181632   7.254   8.850   4.211
27130WAT     H281633   7.290   9.004   4.169
27131WAT      O81634   4.083   4.109   4.860
27131WAT     H181635   4.016   4.076   4.927
27131WAT     H281636   4.124   4.194   4.893
27132WAT      O81637   1.177   1.967   0.608
27132WAT     H181638   1.108   1.967   0.680
27132WAT     H281639   1.245   1.896   0.628
27133WAT      O81640   2.262   6.556   3.700
27133WAT     H181641   2.239   6.463   3.671
27133WAT     H281642   2.303   6.606   3.622
27134WAT      O81643   6.177   4.714   7.867
27134WAT     H181644   6.131   4.625   7.865
27134WAT     H281645   6.231   4.726   7.784
27135WAT      O81646   5.275   6.562   5.642
27135WAT     H181647   5.305   6.537   5.734
27135WAT     H281648   5.197   6.625   5.649
27136WAT      O81649   5.446   5.347   9.476
27136WAT     H181650   5.469   5.443   9.489
27136WAT     H281651   5.486   5.292   9.550
27137WAT      O81652   0.191   1.826   2.164
27137WAT     H181653   0.260   1.796   2.230
27137WAT     H281654   0.127   1.889   2.208
27138WAT      O81655   6.989   1.912   5.492
27138WAT     H181656   6.916   1.964   5.536
27138WAT     H281657   6.978   1.815   5.513
27139WAT      O81658   2.198   3.572   4.825
27139WAT     H181659   2.146   3.643   4.777
27139WAT     H281660   2.296   3.588   4.813
27140WAT      O81661   0.942   6.895   4.153
27140WAT     H181662   0.856   6.910   4.202
27140WAT     H281663   0.938   6.807   4.105
27141WAT      O81664   0.294   5.604   7.091
27141WAT     H181665   0.299   5.703   7.083
27141WAT     H281666   0.386   5.566   7.092
27142WAT      O81667   2.322   4.731   1.491
27142WAT     H181668   2.250   4.769   1.549
27142WAT     H281669   2.336   4.790   1.412
27143WAT      O81670   8.176   9.630   0.416
27143WAT     H181671   8.082   9.644   0.386
27143WAT     H281672   8.219   9.718   0.434
27144WAT      O81673   6.974   6.927   7.479
27144WAT     H181674   6.973   6.913   7.380
27144WAT     H281675   6.882   6.946   7.512
27145WAT      O81676   7.294   9.430   2.913
27145WAT     H181677   7.210   9.413   2.964
27145WAT     H281678   7.370   9.442   2.977
27146WAT      O81679   6.855   3.860   3.170
27146WAT     H181680   6.796   3.878   3.091
27146WAT     H281681   6.946   3.898   3.153
27147WAT      O81682   1.212   8.398   6.100
27147WAT     H181683   1.285   8.465   6.116
27147WAT     H281684   1.210   8.375   6.002
27148WAT      O81685   1.645   2.682   4.280
27148WAT     H181686   1.547   2.664   4.271
27148WAT     H281687   1.690   2.601   4.317
27149WAT      O81688   5.096   6.745   2.557
27149WAT     H181689   5.016   6.707   2.510
27149WAT     H281690   5.098   6.711   2.651
27150WAT      O81691   4.238   8.165   2.425
27150WAT     H181692   4.169   8.149   2.496
27150WAT     H281693   4.224   8.255   2.384
27151WAT      O81694   0.242   6.301   1.934
27151WAT     H181695   0.149   6.268   1.954
27151WAT     H281696   0.268   6.271   1.842
27152WAT      O81697   1.771   0.943   6.009
27152WAT     H181698   1.860   0.907   6.037
27152WAT     H281699   1.767   0.947   5.909
27153WAT      O81700   7.175   7.272   2.091
27153WAT     H181701   7.104   7.307   2.152
27153WAT     H281702   7.232   7.206   2.141
27154WAT      O81703   3.092   0.928   2.703
27154WAT     H181704   3.017   0.981   2.742
27154WAT     H281705   3.179   0.960   2.740
27155WAT      O81706   0.085   0.433   2.251
27155WAT     H181707   0.133   0.345   2.260
27155WAT     H281708   0.147   0.507   2.278
27156WAT      O81709   9.075   4.581   5.598
27156WAT     H181710   8.996   4.642   5.594
27156WAT     H281711   9.047   4.488   5.575
27157WAT      O81712   9.656   1.556   5.809
27157WAT     H181713   9.593   1.634   5.807
27157WAT     H281714   9.604   1.473   5.830
27158WAT      O81715   4.515   4.083   1.844
27158WAT     H181716   4.510   4.167   1.789
27158WAT     H281717   4.428   4.069   1.890
27159WAT      O81718   6.906   0.920   9.639
27159WAT     H181719   7.001   0.892   9.625
27159WAT     H281720   6.889   0.934   9.737
27160WAT      O81721   5.778   6.793   0.869
27160WAT     H181722   5.796   6.698   0.847
27160WAT     H281723   5.701   6.827   0.815
27161WAT      O81724   4.217   6.516   9.474
27161WAT     H181725   4.288   6.487   9.410
27161WAT     H281726   4.175   6.600   9.440
27162WAT      O81727   5.363   2.134   5.227
27162WAT     H181728   5.299   2.159   5.155
27162WAT     H281729   5.437   2.079   5.188
27163WAT      O81730   4.438   6.901   7.259
27163WAT     H181731   4.463   6.811   7.294
27163WAT     H281732   4.338   6.911   7.261
27164WAT      O81733   3.257   2.663   7.827
27164WAT     H181734   3.243   2.628   7.919
27164WAT     H281735   3.171   2.698   7.790
27165WAT      O81736   3.224   8.998   8.823
27165WAT     H181737   3.289   9.063   8.783
27165WAT     H281738   3.131   9.026   8.801
27166WAT      O81739   6.912   1.064   7.847
27166WAT     H181740   6.857   1.013   7.913
27166WAT     H281741   7.000   1.087   7.887
27167WAT      O81742   5.703   6.065   8.943
27167WAT     H181743   5.701   5.967   8.922
27167WAT     H281744   5.699   6.117   8.857
27168WAT      O81745   3.511   0.339   9.649
27168WAT     H181746   3.598   0.370   9.689
27168WAT     H281747   3.439   0.345   9.718
27169WAT      O81748   1.083   2.258   6.933
27169WAT     H181749   1.152   2.251   6.861
27169WAT     H281750   1.108   2.200   7.010
27170WAT      O81751   0.734   4.424   2.035
27170WAT     H181752   0.698   4.367   1.961
27170WAT     H281753   0.677   4.505   2.046
27171WAT      O81754   1.174   0.735   8.939
27171WAT     H181755   1.087   0.688   8.925
27171WAT     H281756   1.160   0.816   8.996
27172WAT      O81757   2.900   4.159   9.467
27172WAT     H181758   2.946   4.242   9.436
27172WAT     H281759   2.932   4.081   9.413
27173WAT      O81760   0.816   9.048   7.583
27173WAT     H181761   0.763   9.020   7.662
27173WAT     H281762   0.756   9.056   7.503
27174WAT      O81763   4.317   5.448   1.680
27174WAT     H181764   4.368   5.473   1.597
27174WAT     H281765   4.346   5.358   1.711
27175WAT      O81766   1.919   8.430   3.219
27175WAT     H181767   1.949   8.352   3.273
27175WAT     H281768   1.986   8.447   3.146
27176WAT      O81769   5.290   1.532   5.393
27176WAT     H181770   5.356   1.472   5.439
27176WAT     H281771   5.338   1.609   5.352
27177WAT      O81772   0.848   0.483   1.867
27177WAT     H181773   0.908   0.459   1.790
27177WAT     H281774   0.769   0.423   1.868
27178WAT      O81775   3.921   1.499   5.689
27178WAT     H181776   3.919   1.580   5.630
27178WAT     H281777   3.829   1.479   5.722
27179WAT      O81778   9.228   8.803   8.645
27179WAT     H181779   9.238   8.710   8.611
27179WAT     H281780   9.318   8.842   8.665
27180WAT      O81781   2.911   0.708   8.182
27180WAT     H181782   2.954   0.758   8.257
27180WAT     H281783   2.876   0.774   8.114
27181WAT      O81784   7.080   1.139   0.819
27181WAT     H181785   7.035   1.148   0.908
27181WAT     H281786   7.177   1.163   0.829
27182WAT      O81787   6.105   3.582   8.871
27182WAT     H181788   6.068   3.502   8.919
27182WAT     H281789   6.159   3.637   8.935
27183WAT      O81790   3.217   5.277   6.068
27183WAT     H181791   3.248   5.195   6.022
27183WAT     H281792   3.121   5.294   6.044
27184WAT      O81793   3.571   9.536   3.816
27184WAT     H181794   3.514   9.455   3.803
27184WAT     H281795   3.561   9.596   3.737
27185WAT      O81796   3.045   4.794   3.492
27185WAT     H181797   2.952   4.806   3.526
27185WAT     H281798   3.042   4.745   3.405
27186WAT      O81799   4.710   6.997   3.181
27186WAT     H181800   4.710   6.908   3.227
27186WAT     H281801   4.622   7.013   3.137
27187WAT      O81802   8.788   6.200   9.505
27187WAT     H181803   8.724   6.275   9.525
27187WAT     H281804   8.778   6.173   9.409
27188WAT      O81805   9.425   5.674   7.688
27188WAT     H181806   9.334   5.712   7.702
27188WAT     H281807   9.430   5.632   7.598
27189WAT      O81808   5.861   0.063   0.432
27189WAT     H181809   5.792   0.131   0.409
27189WAT     H281810   5.850   0.034   0.527
27190WAT      O81811   3.134   7.814   5.752
27190WAT     H181812   3.126   7.717   5.726
27190WAT     H281813   3.087   7.870   5.684
27191WAT      O81814   8.875   9.037   8.465
27191WAT     H181815   8.852   8.940   8.460
27191WAT     H281816   8.947   9.051   8.533
27192WAT      O81817   4.610   3.623   4.587
27192WAT     H181818   4.575   3.697   4.529
27192WAT     H281819   4.590   3.535   4.544
27193WAT      O81820   1.929   6.873   8.664
27193WAT     H181821   1.895   6.876   8.758
27193WAT     H281822   1.864   6.825   8.606
27194WAT      O81823   3.504   1.137   7.514
27194WAT     H181824   3.475   1.046   7.545
27194WAT     H281825   3.530   1.192   7.592
27195WAT      O81826   6.699   8.703   2.226
27195WAT     H181827   6.650   8.775   2.277
27195WAT     H281828   6.777   8.744   2.178
27196WAT      O81829   3.827   7.989   5.201
27196WAT     H181830   3.732   7.961   5.207
27196WAT     H281831   3.886   7.915   5.232
27197WAT      O81832   3.262   2.969   2.139
27197WAT     H181833   3.163   2.982   2.140
27197WAT     H281834   3.286   2.889   2.083
27198WAT      O81835   0.150   7.741   9.174
27198WAT     H181836   0.244   7.769   9.153
27198WAT     H281837   0.151   7.666   9.240
27199WAT      O81838   6.194   0.142   0.714
27199WAT     H181839   6.124   0.184   0.656
27199WAT     H281840   6.256   0.087   0.658
27200WAT      O81841   1.713   9.843   3.793
27200WAT     H181842   1.659   9.898   3.856
27200WAT     H281843   1.721   9.750   3.829
27201WAT      O81844   7.604   0.365   2.200
27201WAT     H181845   7.621   0.378   2.102
27201WAT     H281846   7.691   0.347   2.247
27202WAT      O81847   9.396   8.317   5.216
27202WAT     H181848   9.307   8.282   5.246
27202WAT     H281849   9.424   8.393   5.274
27203WAT      O81850   7.736   7.113   0.798
27203WAT     H181851   7.739   7.187   0.731
27203WAT     H281852   7.801   7.132   0.872
27204WAT      O81853   3.660   0.491   2.486
27204WAT     H181854   3.702   0.413   2.532
27204WAT     H281855   3.565   0.500   2.516
27205WAT      O81856   7.565   6.631   5.980
27205WAT     H181857   7.527   6.585   6.061
27205WAT     H281858   7.622   6.707   6.009
27206WAT      O81859   0.241   1.530   4.141
27206WAT     H181860   0.219   1.567   4.051
27206WAT     H281861   0.250   1.431   4.135
27207WAT      O81862   6.546   3.630   9.733
27207WAT     H181863   6.491   3.613   9.815
27207WAT     H281864   6.526   3.560   9.664
27208WAT      O81865   0.256   0.287   1.576
27208WAT     H181866   0.244   0.380   1.611
27208WAT     H281867   0.337   0.284   1.518
27209WAT      O81868   7.371   7.428   9.799
27209WAT     H181869   7.303   7.473   9.741
27209WAT     H281870   7.336   7.423   9.893
27210WAT      O81871   5.724   0.414   2.248
27210WAT     H181872   5.666   0.424   2.167
27210WAT     H281873   5.674   0.443   2.329
27211WAT      O81874   9.051   1.490   7.655
27211WAT     H181875   8.954   1.505   7.676
27211WAT     H281876   9.065   1.499   7.557
27212WAT      O81877   7.828   4.563   2.372
27212WAT     H181878   7.765   4.628   2.414
27212WAT     H281879   7.780   4.477   2.353
27213WAT      O81880   4.988   4.591   4.013
27213WAT     H181881   4.951   4.683   4.005
27213WAT     H281882   5.085   4.596   4.037
27214WAT      O81883   5.555   9.295   8.028
27214WAT     H181884   5.638   9.348   8.008
27214WAT     H281885   5.555   9.270   8.125
27215WAT      O81886   7.217   2.886   4.044
27215WAT     H181887   7.279   2.861   4.119
27215WAT     H281888   7.130   2.918   4.082
27216WAT      O81889   5.814   3.121   1.255
27216WAT     H181890   5.788   3.072   1.339
27216WAT     H281891   5.767   3.209   1.253
27217WAT      O81892   5.210   3.600   8.716
27217WAT     H181893   5.279   3.575   8.784
27217WAT     H281894   5.255   3.633   8.633
27218WAT      O81895   3.914   0.449   4.340
27218WAT     H181896   3.958   0.406   4.261
27218WAT     H281897   3.975   0.444   4.419
27219WAT      O81898   7.550   8.285   3.326
27219WAT     H181899   7.624   8.220   3.346
27219WAT     H281900   7.463   8.236   3.321
27220WAT      O81901   6.667   4.150   5.358
27220WAT     H181902   6.625   4.151   5.449
27220WAT     H281903   6.731   4.074   5.352
27221WAT      O81904   5.424   5.014   6.349
27221WAT     H181905   5.376   4.968   6.274
27221WAT     H281906   5.471   4.945   6.404
27222WAT      O81907   2.654   1.321   9.681
27222WAT     H181908   2.627   1.336   9.586
27222WAT     H281909   2.659   1.408   9.729
27223WAT      O81910   5.391   5.351   0.920
27223WAT     H181911   5.387   5.271   0.860
27223WAT     H281912   5.398   5.433   0.865
27224WAT      O81913   5.463   5.398   2.847
27224WAT     H181914   5.492   5.403   2.942
27224WAT     H281915   5.448   5.490   2.811
27225WAT      O81916   5.854   1.394   4.881
27225WAT     H181917   5.918   1.319   4.897
27225WAT     H281918   5.889   1.453   4.809
27226WAT      O81919   8.857   4.584   0.918
27226WAT     H181920   8.764   4.616   0.935
27226WAT     H281921   8.921   4.643   0.968
27227WAT      O81922   1.317   7.825   0.635
27227WAT     H181923   1.298   7.787   0.544
27227WAT     H281924   1.415   7.821   0.653
27228WAT      O81925   5.095   2.905   4.761
27228WAT     H181926   5.194   2.906   4.775
27228WAT     H281927   5.075   2.865   4.672
27229WAT      O81928   4.332   9.410   3.227
27229WAT     H181929   4.318   9.319   3.266
27229WAT     H281930   4.411   9.453   3.270
27230WAT      O81931   8.537   1.802   4.115
27230WAT     H181932   8.523   1.824   4.018
27230WAT     H281933   8.625   1.757   4.127
27231WAT      O81934   9.651   1.143   1.710
27231WAT     H181935   9.722   1.091   1.755
27231WAT     H281936   9.670   1.241   1.719
27232WAT      O81937   3.399   4.950   6.582
27232WAT     H181938   3.488   4.981   6.617
27232WAT     H281939   3.327   4.975   6.647
27233WAT      O81940   7.582   5.125   5.920
27233WAT     H181941   7.559   5.145   5.825
27233WAT     H281942   7.567   5.207   5.975
27234WAT      O81943   2.910   5.610   2.122
27234WAT     H181944   3.004   5.577   2.133
27234WAT     H281945   2.877   5.586   2.031
27235WAT      O81946   4.912   7.880   1.879
27235WAT     H181947   4.925   7.946   1.805
27235WAT     H281948   4.849   7.808   1.849
27236WAT      O81949   0.763   6.556   1.959
27236WAT     H181950   0.694   6.554   2.031
27236WAT     H281951   0.826   6.480   1.972
27237WAT      O81952   7.159   6.907   2.697
27237WAT     H181953   7.242   6.852   2.690
27237WAT     H281954   7.147   6.938   2.791
27238WAT      O81955   8.134   6.222   8.152
27238WAT     H181956   8.152   6.190   8.245
27238WAT     H281957   8.099   6.316   8.155
27239WAT      O81958   9.232   8.345   9.570
27239WAT     H181959   9.139   8.366   9.599
27239WAT     H281960   9.248   8.384   9.479
27240WAT      O81961   2.254   5.251   7.530
27240WAT     H181962   2.242   5.340   7.575
27240WAT     H281963   2.254   5.179   7.600
27241WAT      O81964   9.297   2.314   4.572
27241WAT     H181965   9.391   2.308   4.606
27241WAT     H281966   9.253   2.396   4.610
27242WAT      O81967   7.137   2.920   4.589
27242WAT     H181968   7.040   2.902   4.605
27242WAT     H281969   7.191   2.876   4.661
27243WAT      O81970   9.842   9.601   3.732
27243WAT     H181971   9.861   9.699   3.728
27243WAT     H281972   9.885   9.556   3.654
27244WAT      O81973   6.111   0.655   0.480
27244WAT     H181974   6.139   0.750   0.463
27244WAT     H281975   6.172   0.614   0.548
27245WAT      O81976   3.270   8.910   7.331
27245WAT     H181977   3.217   8.966   7.396
27245WAT     H281978   3.298   8.966   7.253
27246WAT      O81979   6.255   6.101   1.944
27246WAT     H181980   6.305   6.015   1.937
27246WAT     H281981   6.315   6.172   1.979
27247WAT      O81982   2.638   6.142   5.851
27247WAT     H181983   2.722   6.169   5.803
27247WAT     H281984   2.570   6.214   5.841
27248WAT      O81985   7.185   5.352   4.910
27248WAT     H181986   7.215   5.349   5.005
27248WAT     H281987   7.094   5.393   4.905
27249WAT      O81988   3.273   8.849   9.058
27249WAT     H181989   3.222   8.893   8.984
27249WAT     H281990   3.254   8.897   9.144
27250WAT      O81991   6.096   6.076   8.712
27250WAT     H181992   6.040   6.010   8.762
27250WAT     H281993   6.189   6.040   8.702
27251WAT      O81994   7.035   2.943   2.626
27251WAT     H181995   7.053   3.021   2.687
27251WAT     H281996   6.994   2.976   2.541
27252WAT      O81997   4.802   8.047   6.034
27252WAT     H181998   4.878   8.037   5.970
27252WAT     H281999   4.746   7.963   6.033
27253WAT      O82000   3.551   9.062   3.329
27253WAT     H182001   3.560   9.043   3.426
27253WAT     H282002   3.465   9.022   3.295
27254WAT      O82003   1.785   8.761   2.511
27254WAT     H182004   1.746   8.849   2.536
27254WAT     H282005   1.731   8.719   2.439
27255WAT      O82006   6.006   0.970   4.487
27255WAT     H182007   5.912   0.983   4.454
27255WAT     H282008   6.070   0.984   4.412
27256WAT      O82009   0.155   0.042   2.943
27256WAT     H182010   0.216  -0.015   2.999
27256WAT     H282011   0.084   0.081   3.002
27257WAT      O82012   2.292   1.948   5.250
27257WAT     H182013   2.327   1.997   5.329
27257WAT     H282014   2.194   1.965   5.241
27258WAT      O82015   3.169   8.342   8.772
27258WAT     H182016   3.251   8.396   8.755
27258WAT     H282017   3.194   8.257   8.819
27259WAT      O82018   6.286   9.701   8.980
27259WAT     H182019   6.331   9.656   9.057
27259WAT     H282020   6.349   9.765   8.937
27260WAT      O82021   6.453   9.088   4.871
27260WAT     H182022   6.428   9.007   4.818
27260WAT     H282023   6.493   9.061   4.958
27261WAT      O82024   4.586   9.048   2.124
27261WAT     H182025   4.613   9.123   2.184
27261WAT     H282026   4.583   9.079   2.029
27262WAT      O82027   6.227   7.860   4.077
27262WAT     H182028   6.136   7.898   4.096
27262WAT     H282029   6.261   7.815   4.160
27263WAT      O82030   8.996   1.315   8.516
27263WAT     H182031   9.091   1.312   8.484
27263WAT     H282032   8.942   1.248   8.466
27264WAT      O82033   4.072   6.522   8.858
27264WAT     H182034   3.995   6.506   8.796
27264WAT     H282035   4.092   6.620   8.862
27265WAT      O82036   4.542   0.471   4.808
27265WAT     H182037   4.476   0.546   4.815
27265WAT     H282038   4.629   0.499   4.848
27266WAT      O82039   0.025   1.746   1.974
27266WAT     H182040   0.084   1.763   2.052
27266WAT     H282041  -0.017   1.832   1.945
27267WAT      O82042   3.265   3.855   3.794
27267WAT     H182043   3.178   3.836   3.840
27267WAT     H282044   3.250   3.859   3.696
27268WAT      O82045   6.438   6.794   0.145
27268WAT     H182046   6.409   6.887   0.122
27268WAT     H282047   6.537   6.787   0.139
27269WAT      O82048   9.565   4.946   7.018
27269WAT     H182049   9.635   5.018   7.011
27269WAT     H282050   9.577   4.896   7.104
27270WAT      O82051   6.684   4.396   4.963
27270WAT     H182052   6.675   4.403   5.063
27270WAT     H282053   6.597   4.419   4.920
27271WAT      O82054   8.909   4.014   9.816
27271WAT     H182055   8.959   4.064   9.746
27271WAT     H282056   8.811   4.027   9.803
27272WAT      O82057   3.462   5.311   5.822
27272WAT     H182058   3.409   5.376   5.767
27272WAT     H282059   3.412   5.225   5.829
27273WAT      O82060   3.141   5.600   9.554
27273WAT     H182061   3.119   5.532   9.624
27273WAT     H282062   3.174   5.554   9.472
27274WAT      O82063   9.698   3.876   1.242
27274WAT     H182064   9.706   3.791   1.295
27274WAT     H282065   9.756   3.946   1.282
27275WAT      O82066   6.984   9.222   6.004
27275WAT     H182067   6.975   9.312   6.048
27275WAT     H282068   7.024   9.234   5.913
27276WAT      O82069   3.286   7.361   8.780
27276WAT     H182070   3.249   7.432   8.839
27276WAT     H282071   3.214   7.326   8.720
27277WAT      O82072   7.041   6.847   5.074
27277WAT     H182073   7.103   6.837   4.996
27277WAT     H282074   6.985   6.764   5.083
27278WAT      O82075   7.634   8.355   7.386
27278WAT     H182076   7.539   8.374   7.361
27278WAT     H282077   7.694   8.422   7.344
27279WAT      O82078   9.194   7.513   0.132
27279WAT     H182079   9.174   7.432   0.187
27279WAT     H282080   9.155   7.503   0.041
27280WAT      O82081   7.961   2.233   4.093
27280WAT     H182082   7.915   2.239   4.005
27280WAT     H282083   7.990   2.139   4.110
27281WAT      O82084   2.433   4.972   5.902
27281WAT     H182085   2.417   4.880   5.938
27281WAT     H282086   2.488   5.025   5.967
27282WAT      O82087   9.701   7.371   3.330
27282WAT     H182088   9.601   7.375   3.325
27282WAT     H282089   9.729   7.356   3.425
27283WAT      O82090   6.251   1.493   8.396
27283WAT     H182091   6.313   1.440   8.453
27283WAT     H282092   6.223   1.576   8.444
27284WAT      O82093   3.884   5.456   2.501
27284WAT     H182094   3.940   5.519   2.555
27284WAT     H282095   3.943   5.385   2.462
27285WAT      O82096   6.041   4.492   8.421
27285WAT     H182097   5.968   4.535   8.369
27285WAT     H282098   6.007   4.407   8.462
27286WAT      O82099   9.316   4.306   7.718
27286WAT     H182100   9.288   4.395   7.754
27286WAT     H282101   9.387   4.267   7.777
27287WAT      O82102   5.737   4.193   8.091
27287WAT     H182103   5.777   4.102   8.107
27287WAT     H282104   5.796   4.245   8.029
27288WAT      O82105   5.680   9.522   8.279
27288WAT     H182106   5.665   9.565   8.190
27288WAT     H282107   5.679   9.422   8.268
27289WAT      O82108   1.838   7.162   4.457
27289WAT     H182109   1.936   7.165   4.475
27289WAT     H282110   1.794   7.096   4.517
27290WAT      O82111   5.587   3.397   2.112
27290WAT     H182112   5.603   3.360   2.020
27290WAT     H282113   5.571   3.496   2.107
27291WAT      O82114   3.973   1.089   0.201
27291WAT     H182115   4.025   1.101   0.286
27291WAT     H282116   4.035   1.094   0.123
27292WAT      O82117   4.042   9.474   8.821
27292WAT     H182118   4.133   9.437   8.808
27292WAT     H282119   3.986   9.408   8.871
27293WAT      O82120   4.553   7.264   7.602
27293WAT     H182121   4.510   7.352   7.580
27293WAT     H282122   4.584   7.265   7.697
27294WAT      O82123   2.475   2.688   5.401
27294WAT     H182124   2.558   2.684   5.456
27294WAT     H282125   2.394   2.691   5.460
27295WAT      O82126   9.470   9.651   8.725
27295WAT     H182127   9.565   9.681   8.720
27295WAT     H282128   9.427   9.660   8.636
27296WAT      O82129   1.932   2.069   2.349
27296WAT     H182130   1.916   1.973   2.329
27296WAT     H282131   1.896   2.126   2.275
27297WAT      O82132   9.744   4.817   9.355
27297WAT     H182133   9.678   4.864   9.296
27297WAT     H282134   9.696   4.750   9.412
27298WAT      O82135   3.660   7.138   5.766
27298WAT     H182136   3.746   7.175   5.803
27298WAT     H282137   3.661   7.144   5.667
27299WAT      O82138   8.971   0.895   6.610
27299WAT     H182139   8.991   0.928   6.518
27299WAT     H282140   8.873   0.873   6.616
27300WAT      O82141   2.046   1.044   0.723
27300WAT     H182142   2.137   1.074   0.695
27300WAT     H282143   2.006   1.112   0.785
27301WAT      O82144   5.832   5.097   0.406
27301WAT     H182145   5.811   5.042   0.325
27301WAT     H282146   5.852   5.036   0.483
27302WAT      O82147   0.753   9.445   3.945
27302WAT     H182148   0.727   9.426   4.040
27302WAT     H282149   0.750   9.360   3.892
27303WAT      O82150   0.060   8.735   0.198
27303WAT     H182151   0.144   8.778   0.232
27303WAT     H282152  -0.002   8.717   0.275
27304WAT      O82153   0.382   6.563   1.942
27304WAT     H182154   0.419   6.535   2.031
27304WAT     H282155   0.315   6.495   1.911
27305WAT      O82156   5.821   8.467   1.708
27305WAT     H182157   5.790   8.413   1.630
27305WAT     H282158   5.809   8.564   1.688
27306WAT      O82159   9.340   1.515   1.887
27306WAT     H182160   9.357   1.606   1.926
27306WAT     H282161   9.266   1.471   1.937
27307WAT      O82162   4.909   9.401   4.815
27307WAT     H182163   4.856   9.321   4.784
27307WAT     H282164   4.846   9.474   4.841
27308WAT      O82165   1.625   1.882   6.111
27308WAT     H182166   1.546   1.905   6.168
27308WAT     H282167   1.654   1.963   6.060
27309WAT      O82168   2.510   2.173   4.562
27309WAT     H182169   2.568   2.253   4.544
27309WAT     H282170   2.562   2.090   4.546
27310WAT      O82171   0.344   7.361   2.607
27310WAT     H182172   0.298   7.450   2.598
27310WAT     H282173   0.340   7.330   2.702
27311WAT      O82174   9.637   0.625   1.352
27311WAT     H182175   9.661   0.698   1.287
27311WAT     H282176   9.565   0.568   1.314
27312WAT      O82177   5.727   2.575   3.137
27312WAT     H182178   5.776   2.492   3.113
27312WAT     H282179   5.753   2.603   3.230
27313WAT      O82180   3.063   2.165   3.695
27313WAT     H182181   3.107   2.227   3.629
27313WAT     H282182   3.120   2.083   3.705
27314WAT      O82183   1.633   1.681   6.841
27314WAT     H182184   1.728   1.649   6.843
27314WAT     H282185   1.629   1.776   6.871
27315WAT      O82186   4.520   2.885   7.797
27315WAT     H182187   4.604   2.919   7.755
27315WAT     H282188   4.447   2.953   7.787
27316WAT      O82189   4.089   4.385   6.607
27316WAT     H182190   4.113   4.315   6.675
27316WAT     H282191   4.173   4.419   6.565
27317WAT      O82192   9.349   0.137   9.081
27317WAT     H182193   9.341   0.037   9.075
27317WAT     H282194   9.443   0.162   9.101
27318WAT      O82195   3.544   7.199   2.362
27318WAT     H182196   3.641   7.178   2.364
27318WAT     H282197   3.530   7.298   2.369
27319WAT      O82198   6.266   2.579   5.604
27319WAT     H182199   6.332   2.559   5.531
27319WAT     H282200   6.314   2.585   5.691
27320WAT      O82201   2.211   7.655   9.226
27320WAT     H182202   2.188   7.694   9.137
27320WAT     H282203   2.222   7.729   9.293
27321WAT      O82204   7.077   5.973   3.409
27321WAT     H182205   7.157   5.914   3.407
27321WAT     H282206   7.004   5.935   3.352
27322WAT      O82207   2.273   6.321   7.282
27322WAT     H182208   2.339   6.394   7.302
27322WAT     H282209   2.204   6.355   7.219
27323WAT      O82210   9.520   2.889   7.558
27323WAT     H182211   9.530   2.983   7.591
27323WAT     H282212   9.442   2.846   7.604
27324WAT      O82213   1.961   3.866   8.670
27324WAT     H182214   1.931   3.956   8.636
27324WAT     H282215   2.018   3.822   8.601
27325WAT      O82216   0.911   5.721   9.661
27325WAT     H182217   0.836   5.786   9.677
27325WAT     H282218   0.876   5.628   9.666
27326WAT      O82219   1.969   5.513   7.728
27326WAT     H182220   1.960   5.574   7.806
27326WAT     H282221   2.025   5.557   7.658
27327WAT      O82222   6.278   1.918   5.316
27327WAT     H182223   6.287   1.943   5.220
27327WAT     H282224   6.273   2.002   5.372
27328WAT      O82225   6.867   3.816   1.942
27328WAT     H182226   6.887   3.904   1.985
27328WAT     H282227   6.785   3.825   1.885
27329WAT      O82228   0.153   1.262   8.943
27329WAT     H182229   0.234   1.291   8.994
27329WAT     H282230   0.073   1.309   8.979
27330WAT      O82231   8.756   7.202   8.004
27330WAT     H182232   8.721   7.291   7.974
27330WAT     H282233   8.812   7.214   8.086
27331WAT      O82234   3.172   6.864   6.346
27331WAT     H182235   3.224   6.889   6.264
27331WAT     H282236   3.095   6.807   6.320
27332WAT      O82237   1.340   2.724   6.975
27332WAT     H182238   1.439   2.714   6.965
27332WAT     H282239   1.295   2.691   6.892
27333WAT      O82240   1.609   2.934   1.214
27333WAT     H182241   1.546   2.984   1.155
27333WAT     H282242   1.701   2.938   1.175
27334WAT      O82243   1.519   1.867   2.484
27334WAT     H182244   1.607   1.823   2.502
27334WAT     H282245   1.534   1.964   2.464
27335WAT      O82246   2.207   3.763   9.100
27335WAT     H182247   2.177   3.675   9.065
27335WAT     H282248   2.279   3.799   9.040
27336WAT      O82249   1.995   7.765   0.604
27336WAT     H182250   1.959   7.846   0.556
27336WAT     H282251   2.032   7.701   0.537
27337WAT      O82252   5.850   0.801   8.513
27337WAT     H182253   5.787   0.729   8.542
27337WAT     H282254   5.944   0.767   8.517
27338WAT      O82255   3.854   3.587   9.797
27338WAT     H182256   3.813   3.631   9.718
27338WAT     H282257   3.785   3.532   9.845
27339WAT      O82258   0.299   6.566   5.533
27339WAT     H182259   0.399   6.574   5.531
27339WAT     H282260   0.258   6.651   5.501
27340WAT      O82261   2.686   7.118   8.258
27340WAT     H182262   2.784   7.136   8.259
27340WAT     H282263   2.667   7.039   8.201
27341WAT      O82264   0.107   7.135   5.302
27341WAT     H182265   0.152   7.048   5.318
27341WAT     H282266   0.023   7.120   5.249
27342WAT      O82267   9.387   4.703   8.481
27342WAT     H182268   9.308   4.759   8.507
27342WAT     H282269   9.414   4.725   8.387
27343WAT      O82270   2.702   9.646   6.693
27343WAT     H182271   2.801   9.660   6.700
27343WAT     H282272   2.664   9.630   6.784
27344WAT      O82273   6.783   5.704   9.125
27344WAT     H182274   6.767   5.630   9.189
27344WAT     H282275   6.869   5.689   9.076
27345WAT      O82276   1.331   7.383   3.797
27345WAT     H182277   1.245   7.386   3.848
27345WAT     H282278   1.405   7.420   3.854
27346WAT      O82279   9.634   9.430   5.311
27346WAT     H182280   9.620   9.466   5.403
27346WAT     H282281   9.640   9.330   5.314
27347WAT      O82282   3.806   6.526   6.747
27347WAT     H182283   3.874   6.533   6.674
27347WAT     H282284   3.747   6.447   6.731
27348WAT      O82285   9.073   8.173   4.723
27348WAT     H182286   9.058   8.178   4.822
27348WAT     H282287   9.082   8.077   4.695
27349WAT      O82288   5.177   7.032   6.126
27349WAT     H182289   5.209   7.099   6.193
27349WAT     H282290   5.090   7.062   6.088
27350WAT      O82291   1.610   0.484   2.285
27350WAT     H182292   1.674   0.476   2.361
27350WAT     H282293   1.640   0.557   2.224
27351WAT      O82294   7.477   4.656   8.815
27351WAT     H182295   7.561   4.709   8.806
27351WAT     H282296   7.481   4.600   8.897
27352WAT      O82297   6.572   9.007   2.609
27352WAT     H182298   6.579   9.105   2.594
27352WAT     H282299   6.662   8.968   2.627
27353WAT      O82300   0.949   9.718   6.340
27353WAT     H182301   0.921   9.748   6.432
27353WAT     H282302   1.023   9.776   6.308
27354WAT      O82303   1.884   9.683   8.799
27354WAT     H182304   1.926   9.753   8.741
27354WAT     H282305   1.944   9.603   8.804
27355WAT      O82306   7.365   4.914   8.143
27355WAT     H182307   7.292   4.875   8.200
27355WAT     H282308   7.340   5.006   8.115
27356WAT      O82309   6.103   3.750   7.460
27356WAT     H182310   6.127   3.754   7.557
27356WAT     H282311   6.110   3.841   7.420
27357WAT      O82312   6.459   3.897   5.438
27357WAT     H182313   6.400   3.817   5.442
27357WAT     H282314   6.436   3.959   5.513
27358WAT      O82315   0.546   6.368   9.539
27358WAT     H182316   0.463   6.397   9.586
27358WAT     H282317   0.597   6.448   9.509
27359WAT      O82318   4.152   1.612   2.852
27359WAT     H182319   4.182   1.554   2.928
27359WAT     H282320   4.213   1.598   2.774
27360WAT      O82321   5.834   8.463   1.026
27360WAT     H182322   5.892   8.434   1.102
27360WAT     H282323   5.890   8.509   0.957
27361WAT      O82324   7.575   3.528   0.425
27361WAT     H182325   7.548   3.527   0.328
27361WAT     H282326   7.668   3.492   0.434
27362WAT      O82327   2.578   4.907   6.782
27362WAT     H182328   2.507   4.868   6.723
27362WAT     H282329   2.536   4.968   6.849
27363WAT      O82330   1.207   9.713   4.196
27363WAT     H182331   1.166   9.684   4.283
27363WAT     H282332   1.301   9.741   4.211
27364WAT      O82333   7.001   3.196   4.787
27364WAT     H182334   6.964   3.126   4.848
27364WAT     H282335   7.100   3.204   4.801
27365WAT      O82336   7.422   5.921   1.451
27365WAT     H182337   7.481   5.877   1.518
27365WAT     H282338   7.409   6.017   1.477
27366WAT      O82339   0.378   7.614   7.541
27366WAT     H182340   0.472   7.585   7.523
27366WAT     H282341   0.337   7.553   7.609
27367WAT      O82342   8.898   9.113   3.187
27367WAT     H182343   8.919   9.210   3.187
27367WAT     H282344   8.925   9.072   3.099
27368WAT      O82345   8.953   6.091   6.355
27368WAT     H182346   8.999   6.139   6.430
27368WAT     H282347   8.878   6.036   6.393
27369WAT      O82348   1.811   6.894   1.335
27369WAT     H182349   1.755   6.961   1.384
27369WAT     H282350   1.838   6.932   1.247
27370WAT      O82351   7.895   0.450   4.717
27370WAT     H182352   7.796   0.458   4.725
27370WAT     H282353   7.938   0.538   4.735
27371WAT      O82354   3.872   2.891   7.540
27371WAT     H182355   3.934   2.922   7.468
27371WAT     H282356   3.815   2.968   7.570
27372WAT      O82357   4.762   0.432   8.436
27372WAT     H182358   4.675   0.387   8.453
27372WAT     H282359   4.808   0.451   8.524
27373WAT      O82360   5.815   3.729   2.630
27373WAT     H182361   5.899   3.738   2.577
27373WAT     H282362   5.797   3.813   2.680
27374WAT      O82363   6.078   1.364   0.260
27374WAT     H182364   6.071   1.375   0.161
27374WAT     H282365   5.998   1.315   0.294
27375WAT      O82366   8.251   5.050   9.495
27375WAT     H182367   8.213   5.138   9.522
27375WAT     H282368   8.303   5.011   9.571
27376WAT      O82369   3.510   8.722   6.424
27376WAT     H182370   3.592   8.683   6.383
27376WAT     H282371   3.505   8.820   6.403
27377WAT      O82372   4.304   6.405   0.754
27377WAT     H182373   4.400   6.385   0.738
27377WAT     H282374   4.278   6.370   0.844
27378WAT      O82375   8.994   1.109   8.864
27378WAT     H182376   9.087   1.078   8.882
27378WAT     H282377   8.970   1.183   8.927
27379WAT      O82378   4.293   3.821   0.045
27379WAT     H182379   4.336   3.807   0.134
27379WAT     H282380   4.336   3.761  -0.023
27380WAT      O82381   1.247   3.658   3.633
27380WAT     H182382   1.191   3.737   3.658
27380WAT     H282383   1.193   3.594   3.578
27381WAT      O82384   4.664   9.484   3.838
27381WAT     H182385   4.709   9.571   3.817
27381WAT     H282386   4.732   9.417   3.867
27382WAT      O82387   6.021   0.041   5.395
27382WAT     H182388   6.059   0.133   5.392
27382WAT     H282389   6.090  -0.025   5.363
27383WAT      O82390   7.942   1.800   4.579
27383WAT     H182391   7.940   1.886   4.630
27383WAT     H282392   7.937   1.723   4.643
27384WAT      O82393   9.727   1.715   0.848
27384WAT     H182394   9.695   1.778   0.776
27384WAT     H282395   9.823   1.693   0.832
27385WAT      O82396   3.469   3.896   8.579
27385WAT     H182397   3.406   3.946   8.521
27385WAT     H282398   3.558   3.888   8.533
27386WAT      O82399   4.101   0.473   4.975
27386WAT     H182400   4.163   0.477   5.053
27386WAT     H282401   4.092   0.565   4.936
27387WAT      O82402   8.069   8.510   8.483
27387WAT     H182403   8.149   8.477   8.534
27387WAT     H282404   8.082   8.607   8.460
27388WAT      O82405   9.112   8.741   9.008
27388WAT     H182406   9.069   8.788   8.931
27388WAT     H282407   9.209   8.768   9.014
27389WAT      O82408   7.290   9.036   9.184
27389WAT     H182409   7.339   9.004   9.103
27389WAT     H282410   7.344   9.016   9.266
27390WAT      O82411   0.425   9.047   8.110
27390WAT     H182412   0.514   9.017   8.143
27390WAT     H282413   0.394   8.987   8.037
27391WAT      O82414   6.779   5.942   9.734
27391WAT     H182415   6.839   6.005   9.785
27391WAT     H282416   6.832   5.863   9.704
27392WAT      O82417   3.275   0.723   3.380
27392WAT     H182418   3.356   0.717   3.322
27392WAT     H282419   3.215   0.796   3.346
27393WAT      O82420   7.467   5.420   1.222
27393WAT     H182421   7.500   5.327   1.212
27393WAT     H282422   7.539   5.484   1.196
27394WAT      O82423   0.491   4.329   5.775
27394WAT     H182424   0.410   4.288   5.816
27394WAT     H282425   0.562   4.259   5.764
27395WAT      O82426   8.810   4.140   2.697
27395WAT     H182427   8.816   4.066   2.630
27395WAT     H282428   8.716   4.172   2.703
27396WAT      O82429   4.442   1.010   7.515
27396WAT     H182430   4.533   1.047   7.495
27396WAT     H282431   4.401   1.062   7.590
27397WAT      O82432   8.752   4.569   0.128
27397WAT     H182433   8.800   4.556   0.041
27397WAT     H282434   8.724   4.480   0.164
27398WAT      O82435   7.968   8.612   3.584
27398WAT     H182436   7.927   8.637   3.496
27398WAT     H282437   7.955   8.686   3.650
27399WAT      O82438   2.453   8.291   8.680
27399WAT     H182439   2.381   8.250   8.737
27399WAT     H282440   2.434   8.389   8.667
27400WAT      O82441   3.156   0.037   5.667
27400WAT     H182442   3.057   0.028   5.673
27400WAT     H282443   3.194  -0.043   5.621
27401WAT      O82444   5.793   0.218   5.509
27401WAT     H182445   5.874   0.194   5.563
27401WAT     H282446   5.799   0.174   5.419
27402WAT      O82447   0.583   2.043   4.599
27402WAT     H182448   0.523   2.123   4.595
27402WAT     H282449   0.678   2.074   4.604
27403WAT      O82450   6.860   0.730   1.931
27403WAT     H182451   6.780   0.777   1.893
27403WAT     H282452   6.885   0.770   2.019
27404WAT      O82453   1.428   9.275   3.850
27404WAT     H182454   1.344   9.236   3.889
27404WAT     H282455   1.414   9.293   3.753
27405WAT      O82456   8.929   8.312   8.778
27405WAT     H182457   8.870   8.269   8.710
27405WAT     H282458   8.983   8.242   8.825
27406WAT      O82459   3.254   4.598   7.727
27406WAT     H182460   3.325   4.656   7.768
27406WAT     H282461   3.239   4.519   7.786
27407WAT      O82462   0.962   8.088   9.445
27407WAT     H182463   0.995   8.179   9.472
27407WAT     H282464   0.924   8.042   9.525
27408WAT      O82465   0.682   6.748   2.337
27408WAT     H182466   0.637   6.836   2.344
27408WAT     H282467   0.781   6.761   2.338
27409WAT      O82468   3.240   0.193   9.262
27409WAT     H182469   3.156   0.139   9.258
27409WAT     H282470   3.280   0.185   9.353
27410WAT      O82471   2.721   0.147   7.871
27410WAT     H182472   2.659   0.102   7.936
27410WAT     H282473   2.815   0.134   7.901
27411WAT      O82474   1.468   7.582   5.393
27411WAT     H182475   1.415   7.511   5.347
27411WAT     H282476   1.533   7.540   5.456
27412WAT      O82477   3.585   5.782   1.626
27412WAT     H182478   3.573   5.880   1.637
27412WAT     H282479   3.674   5.764   1.584
27413WAT      O82480   2.549   8.662   6.092
27413WAT     H182481   2.605   8.686   6.172
27413WAT     H282482   2.492   8.740   6.067
27414WAT      O82483   0.676   7.274   5.894
27414WAT     H182484   0.609   7.215   5.849
27414WAT     H282485   0.768   7.250   5.864
27415WAT      O82486   3.815   6.077   8.491
27415WAT     H182487   3.905   6.037   8.473
27415WAT     H282488   3.751   6.047   8.420
27416WAT      O82489   3.106   5.785   7.292
27416WAT     H182490   3.121   5.698   7.245
27416WAT     H282491   3.154   5.858   7.242
27417WAT      O82492   0.762   5.479   4.193
27417WAT     H182493   0.744   5.526   4.279
27417WAT     H282494   0.838   5.415   4.205
27418WAT      O82495   7.696   6.693   7.313
27418WAT     H182496   7.619   6.756   7.323
27418WAT     H282497   7.735   6.702   7.221
27419WAT      O82498   8.055   4.648   9.788
27419WAT     H182499   8.123   4.648   9.715
27419WAT     H282500   8.045   4.741   9.825
27420WAT      O82501   1.488   2.461   2.333
27420WAT     H182502   1.403   2.420   2.366
27420WAT     H282503   1.497   2.553   2.369
27421WAT      O82504   7.814   8.785   8.619
27421WAT     H182505   7.819   8.782   8.519
27421WAT     H282506   7.807   8.692   8.655
27422WAT      O82507   0.854   9.132   0.569
27422WAT     H182508   0.904   9.137   0.656
27422WAT     H282509   0.808   9.220   0.552
27423WAT      O82510   4.988   0.283   4.243
27423WAT     H182511   4.956   0.192   4.270
27423WAT     H282512   4.993   0.342   4.323
27424WAT      O82513   5.014   1.790   0.139
27424WAT     H182514   4.957   1.724   0.189
27424WAT     H282515   5.110   1.762   0.145
27425WAT      O82516   0.653   1.563   1.046
27425WAT     H182517   0.584   1.599   1.109
27425WAT     H282518   0.619   1.478   1.006
27426WAT      O82519   3.763   3.057   4.262
27426WAT     H182520   3.696   3.124   4.228
27426WAT     H282521   3.854   3.083   4.231
27427WAT      O82522   2.224   0.701   2.713
27427WAT     H182523   2.181   0.766   2.650
27427WAT     H282524   2.218   0.736   2.806
27428WAT      O82525   2.532   1.562   7.540
27428WAT     H182526   2.619   1.513   7.540
27428WAT     H282527   2.459   1.500   7.510
27429WAT      O82528   2.329   8.411   6.143
27429WAT     H182529   2.347   8.503   6.109
27429WAT     H282530   2.349   8.344   6.071
27430WAT      O82531   3.078   6.282   3.607
27430WAT     H182532   3.119   6.242   3.525
27430WAT     H282533   3.013   6.217   3.647
27431WAT      O82534   1.502   7.215   8.784
27431WAT     H182535   1.503   7.118   8.756
27431WAT     H282536   1.418   7.258   8.751
27432WAT      O82537   2.564   2.510   1.025
27432WAT     H182538   2.514   2.523   1.111
27432WAT     H282539   2.596   2.415   1.019
27433WAT      O82540   1.843   8.683   9.627
27433WAT     H182541   1.744   8.672   9.612
27433WAT     H282542   1.876   8.610   9.688
27434WAT      O82543   0.053   8.504   7.967
27434WAT     H182544   0.151   8.516   7.952
27434WAT     H282545   0.010   8.594   7.982
27435WAT      O82546   7.797   0.191   5.768
27435WAT     H182547   7.845   0.200   5.855
27435WAT     H282548   7.728   0.119   5.775
27436WAT      O82549   9.667   6.418   3.816
27436WAT     H182550   9.602   6.349   3.784
27436WAT     H282551   9.760   6.385   3.801
27437WAT      O82552   4.794   4.531   2.252
27437WAT     H182553   4.866   4.600   2.247
27437WAT     H282554   4.767   4.517   2.348
27438WAT      O82555   3.834   6.807   2.016
27438WAT     H182556   3.775   6.869   2.068
27438WAT     H282557   3.918   6.790   2.067
27439WAT      O82558   0.753   6.056   6.775
27439WAT     H182559   0.678   6.076   6.712
27439WAT     H282560   0.839   6.091   6.737
27440WAT      O82561   8.381   6.271   5.425
27440WAT     H182562   8.299   6.328   5.417
27440WAT     H282563   8.416   6.274   5.518
27441WAT      O82564   2.846   1.591   6.039
27441WAT     H182565   2.850   1.622   5.944
27441WAT     H282566   2.933   1.612   6.085
27442WAT      O82567   1.777   4.346   5.128
27442WAT     H182568   1.862   4.295   5.113
27442WAT     H282569   1.711   4.288   5.174
27443WAT      O82570   8.276   1.694   1.516
27443WAT     H182571   8.267   1.684   1.616
27443WAT     H282572   8.207   1.638   1.471
27444WAT      O82573   0.448   7.391   4.294
27444WAT     H182574   0.401   7.326   4.353
27444WAT     H282575   0.387   7.468   4.274
27445WAT      O82576   3.660   1.851   8.805
27445WAT     H182577   3.619   1.938   8.829
27445WAT     H282578   3.738   1.867   8.743
27446WAT      O82579   2.463   9.822   2.539
27446WAT     H182580   2.387   9.760   2.554
27446WAT     H282581   2.443   9.910   2.582
27447WAT      O82582   8.023   7.703   2.505
27447WAT     H182583   8.035   7.745   2.415
27447WAT     H282584   7.935   7.657   2.509
27448WAT      O82585   3.484   8.576   3.395
27448WAT     H182586   3.573   8.574   3.441
27448WAT     H282587   3.412   8.581   3.464
27449WAT      O82588   6.745   1.455   2.000
27449WAT     H182589   6.757   1.357   1.982
27449WAT     H282590   6.695   1.467   2.085
27450WAT      O82591   8.122   6.075   6.146
27450WAT     H182592   8.172   5.988   6.138
27450WAT     H282593   8.153   6.124   6.227
27451WAT      O82594   4.528   8.218   5.298
27451WAT     H182595   4.457   8.184   5.359
27451WAT     H282596   4.514   8.316   5.282
27452WAT      O82597   7.259   0.564   8.504
27452WAT     H182598   7.250   0.651   8.456
27452WAT     H282599   7.169   0.534   8.534
27453WAT      O82600   9.388   1.098   4.248
27453WAT     H182601   9.445   1.043   4.188
27453WAT     H282602   9.367   1.046   4.331
27454WAT      O82603   7.735   9.840   8.388
27454WAT     H182604   7.809   9.802   8.444
27454WAT     H282605   7.667   9.883   8.448
27455WAT      O82606   0.358   8.048   9.091
27455WAT     H182607   0.360   8.055   8.991
27455WAT     H282608   0.381   7.954   9.118
27456WAT      O82609   5.649   0.871   3.519
27456WAT     H182610   5.716   0.800   3.543
27456WAT     H282611   5.660   0.948   3.582
27457WAT      O82612   6.271   5.361   2.472
27457WAT     H182613   6.342   5.347   2.403
27457WAT     H282614   6.312   5.394   2.557
27458WAT      O82615   3.820   6.357   4.862
27458WAT     H182616   3.882   6.413   4.808
27458WAT     H282617   3.814   6.265   4.822
27459WAT      O82618   3.408   1.503   7.022
27459WAT     H182619   3.394   1.563   6.943
27459WAT     H282620   3.335   1.518   7.089
27460WAT      O82621   7.158   1.829   9.454
27460WAT     H182622   7.072   1.877   9.438
27460WAT     H282623   7.216   1.884   9.515
27461WAT      O82624   7.654   2.919   1.759
27461WAT     H182625   7.734   2.866   1.731
27461WAT     H282626   7.659   2.939   1.857
27462WAT      O82627   7.185   3.802   4.822
27462WAT     H182628   7.093   3.781   4.856
27462WAT     H282629   7.241   3.837   4.898
27463WAT      O82630   6.312   7.159   4.221
27463WAT     H182631   6.236   7.100   4.248
27463WAT     H282632   6.334   7.221   4.297
27464WAT      O82633   3.828   2.705   3.361
27464WAT     H182634   3.769   2.762   3.418
27464WAT     H282635   3.778   2.676   3.280
27465WAT      O82636   9.777   3.829   0.473
27465WAT     H182637   9.772   3.895   0.548
27465WAT     H282638   9.830   3.750   0.502
27466WAT      O82639   2.916   7.037   7.004
27466WAT     H182640   2.920   7.045   7.103
27466WAT     H282641   3.009   7.032   6.967
27467WAT      O82642   0.953   2.944   8.362
27467WAT     H182643   0.897   3.027   8.372
27467WAT     H282644   0.910   2.883   8.296
27468WAT      O82645   3.989   2.440   8.304
27468WAT     H182646   3.938   2.502   8.363
27468WAT     H282647   4.079   2.423   8.344
27469WAT      O82648   3.978   1.906   0.165
27469WAT     H182649   3.940   1.844   0.234
27469WAT     H282650   3.925   1.991   0.164
27470WAT      O82651   2.295   9.323   4.592
27470WAT     H182652   2.243   9.288   4.670
27470WAT     H282653   2.236   9.381   4.536
27471WAT      O82654   9.285   3.971   1.516
27471WAT     H182655   9.244   4.030   1.586
27471WAT     H282656   9.212   3.928   1.462
27472WAT      O82657   2.498   8.948   7.481
27472WAT     H182658   2.456   9.012   7.416
27472WAT     H282659   2.429   8.882   7.511
27473WAT      O82660   1.883   5.535   9.718
27473WAT     H182661   1.976   5.560   9.690
27473WAT     H282662   1.851   5.600   9.787
27474WAT      O82663   6.429   3.807   9.240
27474WAT     H182664   6.380   3.771   9.320
27474WAT     H282665   6.464   3.899   9.261
27475WAT      O82666   1.223   8.348   7.577
27475WAT     H182667   1.204   8.443   7.553
27475WAT     H282668   1.250   8.298   7.495
27476WAT      O82669   5.804   4.581   0.650
27476WAT     H182670   5.769   4.642   0.578
27476WAT     H282671   5.893   4.545   0.623
27477WAT      O82672   9.419   2.926   4.429
27477WAT     H182673   9.486   2.998   4.448
27477WAT     H282674   9.411   2.915   4.330
27478WAT      O82675   2.016   8.062   4.732
27478WAT     H182676   2.009   7.974   4.779
27478WAT     H282677   2.088   8.057   4.662
27479WAT      O82678   5.495   3.129   0.781
27479WAT     H182679   5.573   3.119   0.719
27479WAT     H282680   5.417   3.078   0.743
27480WAT      O82681   8.527   8.751   1.918
27480WAT     H182682   8.474   8.814   1.861
27480WAT     H282683   8.464   8.687   1.963
27481WAT      O82684   1.382   8.341   6.977
27481WAT     H182685   1.417   8.349   6.884
27481WAT     H282686   1.300   8.397   6.987
27482WAT      O82687   3.610   1.141   2.551
27482WAT     H182688   3.555   1.059   2.568
27482WAT     H282689   3.550   1.214   2.518
27483WAT      O82690   3.354   4.365   3.674
27483WAT     H182691   3.370   4.339   3.579
27483WAT     H282692   3.433   4.414   3.709
27484WAT      O82693   2.084   6.703   2.805
27484WAT     H182694   2.016   6.688   2.877
27484WAT     H282695   2.171   6.729   2.846
27485WAT      O82696   8.042   6.838   4.494
27485WAT     H182697   8.048   6.769   4.423
27485WAT     H282698   8.036   6.929   4.453
27486WAT      O82699   1.939   7.760   1.913
27486WAT     H182700   1.888   7.684   1.955
27486WAT     H282701   1.974   7.819   1.986
27487WAT      O82702   6.164   7.206   8.975
27487WAT     H182703   6.196   7.257   9.055
27487WAT     H282704   6.243   7.176   8.921
27488WAT      O82705   0.635   8.072   3.850
27488WAT     H182706   0.611   8.117   3.764
27488WAT     H282707   0.587   8.117   3.926
27489WAT      O82708   2.736   8.900   1.139
27489WAT     H182709   2.764   8.808   1.113
27489WAT     H282710   2.812   8.964   1.126
27490WAT      O82711   2.575   5.799   4.822
27490WAT     H182712   2.488   5.759   4.793
27490WAT     H282713   2.600   5.762   4.912
27491WAT      O82714   1.535   1.887   9.253
27491WAT     H182715   1.557   1.837   9.337
27491WAT     H282716   1.469   1.835   9.199
27492WAT      O82717   4.734   9.069   9.081
27492WAT     H182718   4.692   9.080   9.170
27492WAT     H282719   4.817   9.125   9.075
27493WAT      O82720   3.205   6.593   4.990
27493WAT     H182721   3.282   6.634   4.941
27493WAT     H282722   3.125   6.653   4.982
27494WAT      O82723   5.279   9.286   5.726
27494WAT     H182724   5.270   9.385   5.722
27494WAT     H282725   5.272   9.247   5.634
27495WAT      O82726   0.334   4.352   6.389
27495WAT     H182727   0.246   4.391   6.415
27495WAT     H282728   0.320   4.266   6.340
27496WAT      O82729   0.786   1.878   1.271
27496WAT     H182730   0.778   1.851   1.175
27496WAT     H282731   0.837   1.965   1.277
27497WAT      O82732   8.381   6.540   8.065
27497WAT     H182733   8.350   6.634   8.077
27497WAT     H282734   8.376   6.515   7.968
27498WAT      O82735   8.722   0.643   7.705
27498WAT     H182736   8.699   0.558   7.657
27498WAT     H282737   8.642   0.674   7.757
27499WAT      O82738   7.381   6.615   5.290
27499WAT     H182739   7.400   6.539   5.228
27499WAT     H282740   7.450   6.617   5.362
27500WAT      O82741   8.281   3.137   5.913
27500WAT     H182742   8.297   3.042   5.940
27500WAT     H282743   8.207   3.141   5.846
27501WAT      O82744   9.577   9.065   5.683
27501WAT     H182745   9.577   9.155   5.727
27501WAT     H282746   9.556   8.995   5.752
27502WAT      O82747   6.173   1.723   9.514
27502WAT     H182748   6.253   1.772   9.479
27502WAT     H282749   6.179   1.627   9.487
27503WAT      O82750   8.363   8.096   8.600
27503WAT     H182751   8.445   8.043   8.622
27503WAT     H282752   8.289   8.034   8.574
27504WAT      O82753   0.345   8.895   7.017
27504WAT     H182754   0.410   8.969   7.029
27504WAT     H282755   0.327   8.851   7.105
27505WAT      O82756   8.986   4.332   9.888
27505WAT     H182757   9.059   4.394   9.860
27505WAT     H282758   8.910   4.339   9.822
27506WAT      O82759   5.210   4.634   1.381
27506WAT     H182760   5.177   4.561   1.441
27506WAT     H282761   5.301   4.610   1.347
27507WAT      O82762   2.667   0.738   0.037
27507WAT     H182763   2.714   0.668  -0.017
27507WAT     H282764   2.613   0.694   0.109
27508WAT      O82765   0.658   8.478   3.014
27508WAT     H182766   0.639   8.393   2.964
27508WAT     H282767   0.671   8.457   3.111
27509WAT      O82768   7.306   4.021   4.955
27509WAT     H182769   7.232   4.039   4.890
27509WAT     H282770   7.385   4.078   4.932
27510WAT      O82771   9.184   7.273   8.890
27510WAT     H182772   9.176   7.246   8.986
27510WAT     H282773   9.263   7.334   8.880
27511WAT      O82774   7.858   1.243   8.300
27511WAT     H182775   7.863   1.206   8.393
27511WAT     H282776   7.930   1.312   8.288
27512WAT      O82777   8.438   9.318   7.674
27512WAT     H182778   8.359   9.370   7.642
27512WAT     H282779   8.455   9.339   7.770
27513WAT      O82780   9.864   7.388   0.934
27513WAT     H182781   9.843   7.290   0.928
27513WAT     H282782   9.935   7.402   1.003
27514WAT      O82783   4.305   4.366   6.311
27514WAT     H182784   4.403   4.373   6.329
27514WAT     H282785   4.268   4.287   6.359
27515WAT      O82786   4.328   6.608   0.263
27515WAT     H182787   4.256   6.629   0.328
27515WAT     H282788   4.392   6.684   0.258
27516WAT      O82789   7.863   9.414   8.349
27516WAT     H182790   7.859   9.499   8.403
27516WAT     H282791   7.770   9.380   8.335
27517WAT      O82792   4.892   4.838   3.975
27517WAT     H182793   4.840   4.862   4.057
27517WAT     H282794   4.830   4.826   3.898
27518WAT      O82795   9.177   6.216   4.326
27518WAT     H182796   9.263   6.193   4.372
27518WAT     H282797   9.118   6.267   4.388
27519WAT      O82798   3.085   4.578   6.667
27519WAT     H182799   3.157   4.542   6.726
27519WAT     H282800   3.021   4.505   6.644
27520WAT      O82801   6.924   9.229   1.206
27520WAT     H182802   6.990   9.159   1.181
27520WAT     H282803   6.859   9.242   1.131
27521WAT      O82804   6.517   7.413   0.463
27521WAT     H182805   6.473   7.327   0.489
27521WAT     H282806   6.459   7.462   0.397
27522WAT      O82807   8.993   5.208   2.467
27522WAT     H182808   8.941   5.125   2.484
27522WAT     H282809   8.937   5.288   2.488
27523WAT      O82810   2.442   0.953   0.593
27523WAT     H182811   2.382   1.031   0.612
27523WAT     H282812   2.536   0.976   0.619
27524WAT      O82813   0.741   7.090   8.762
27524WAT     H182814   0.751   7.021   8.835
27524WAT     H282815   0.773   7.051   8.676
27525WAT      O82816   0.982   8.395   9.005
27525WAT     H182817   1.074   8.396   9.043
27525WAT     H282818   0.960   8.303   8.971
27526WAT      O82819   9.774   0.786   9.449
27526WAT     H182820   9.829   0.828   9.521
27526WAT     H282821   9.776   0.844   9.367
27527WAT      O82822   1.705   1.843   0.309
27527WAT     H182823   1.687   1.852   0.211
27527WAT     H282824   1.801   1.821   0.323
27528WAT      O82825   3.976   7.200   8.827
27528WAT     H182826   3.936   7.286   8.795
27528WAT     H282827   4.076   7.205   8.820
27529WAT      O82828   0.704   6.266   6.574
27529WAT     H182829   0.757   6.345   6.606
27529WAT     H282830   0.625   6.253   6.633
27530WAT      O82831   9.681   0.155   8.029
27530WAT     H182832   9.717   0.077   8.081
27530WAT     H282833   9.582   0.147   8.021
27531WAT      O82834   8.087   5.162   0.971
27531WAT     H182835   7.996   5.140   1.005
27531WAT     H282836   8.105   5.109   0.888
27532WAT      O82837   3.370   4.791   4.529
27532WAT     H182838   3.345   4.724   4.598
27532WAT     H282839   3.399   4.744   4.445
27533WAT      O82840   6.168   8.697   3.422
27533WAT     H182841   6.115   8.701   3.338
27533WAT     H282842   6.109   8.721   3.500
27534WAT      O82843   9.038   1.584   7.380
27534WAT     H182844   8.956   1.530   7.397
27534WAT     H282845   9.012   1.678   7.359
27535WAT      O82846   8.806   9.375   4.299
27535WAT     H182847   8.760   9.295   4.337
27535WAT     H282848   8.902   9.353   4.282
27536WAT      O82849   5.544   1.263   1.398
27536WAT     H182850   5.635   1.221   1.411
27536WAT     H282851   5.476   1.192   1.384
27537WAT      O82852   0.401   4.743   4.836
27537WAT     H182853   0.338   4.690   4.780
27537WAT     H282854   0.432   4.824   4.786
27538WAT      O82855   9.291   4.483   0.134
27538WAT     H182856   9.224   4.504   0.062
27538WAT     H282857   9.251   4.503   0.223
27539WAT      O82858   5.831   7.540   8.613
27539WAT     H182859   5.907   7.482   8.585
27539WAT     H282860   5.808   7.521   8.708
27540WAT      O82861   0.124   9.255   5.514
27540WAT     H182862   0.132   9.264   5.415
27540WAT     H282863   0.075   9.335   5.550
27541WAT      O82864   4.917   2.388   9.344
27541WAT     H182865   4.824   2.374   9.309
27541WAT     H282866   4.913   2.402   9.443
27542WAT      O82867   7.720   1.743   4.386
27542WAT     H182868   7.719   1.808   4.310
27542WAT     H282869   7.806   1.753   4.437
27543WAT      O82870   4.640   7.278   8.761
27543WAT     H182871   4.572   7.223   8.809
27543WAT     H282872   4.608   7.373   8.755
27544WAT      O82873   6.549   4.676   6.820
27544WAT     H182874   6.531   4.702   6.915
27544WAT     H282875   6.467   4.635   6.780
27545WAT      O82876   1.483   0.004   5.884
27545WAT     H182877   1.419   0.001   5.961
27545WAT     H282878   1.557  -0.061   5.899
27546WAT      O82879   6.966   8.677   7.122
27546WAT     H182880   6.878   8.648   7.161
27546WAT     H282881   6.950   8.739   7.046
27547WAT      O82882   0.896   8.391   1.069
27547WAT     H182883   0.872   8.376   1.164
27547WAT     H282884   0.840   8.331   1.010
27548WAT      O82885   4.079   3.130   8.760
27548WAT     H182886   4.009   3.123   8.689
27548WAT     H282887   4.111   3.039   8.784
27549WAT      O82888   9.690   3.444   2.300
27549WAT     H182889   9.724   3.387   2.224
27549WAT     H282890   9.641   3.523   2.263
27550WAT      O82891   6.532   7.562   3.148
27550WAT     H182892   6.625   7.596   3.161
27550WAT     H282893   6.466   7.629   3.182
27551WAT      O82894   8.901   7.756   4.661
27551WAT     H182895   8.922   7.712   4.748
27551WAT     H282896   8.808   7.790   4.662
27552WAT      O82897   5.861   2.646   5.621
27552WAT     H182898   5.841   2.649   5.524
27552WAT     H282899   5.779   2.667   5.673
27553WAT      O82900   3.773   3.152   0.621
27553WAT     H182901   3.745   3.076   0.680
27553WAT     H282902   3.717   3.151   0.538
27554WAT      O82903   3.887   5.961   6.561
27554WAT     H182904   3.814   5.917   6.613
27554WAT     H282905   3.847   6.016   6.488
27555WAT      O82906   3.123   4.160   1.710
27555WAT     H182907   3.172   4.112   1.783
27555WAT     H282908   3.146   4.257   1.714
27556WAT      O82909   8.866   5.602   8.945
27556WAT     H182910   8.940   5.563   9.001
27556WAT     H282911   8.891   5.597   8.849
27557WAT      O82912   0.323   7.405   1.988
27557WAT     H182913   0.404   7.386   1.932
27557WAT     H282914   0.247   7.428   1.927
27558WAT      O82915   3.476   8.649   4.693
27558WAT     H182916   3.439   8.636   4.785
27558WAT     H282917   3.460   8.744   4.664
27559WAT      O82918   7.886   9.322   9.814
27559WAT     H182919   7.843   9.251   9.760
27559WAT     H282920   7.816   9.380   9.856
27560WAT      O82921   0.052   5.965   7.797
27560WAT     H182922   0.103   6.008   7.871
27560WAT     H282923   0.010   6.036   7.740
27561WAT      O82924   5.999   1.727   1.386
27561WAT     H182925   5.934   1.698   1.315
27561WAT     H282926   6.073   1.660   1.393
27562WAT      O82927   9.319   1.358   4.449
27562WAT     H182928   9.405   1.369   4.499
27562WAT     H282929   9.324   1.410   4.363
27563WAT      O82930   8.267   4.966   1.104
27563WAT     H182931   8.213   5.037   1.058
27563WAT     H282932   8.216   4.930   1.182
27564WAT      O82933   0.022   6.329   8.132
27564WAT     H182934   0.072   6.270   8.069
27564WAT     H282935   0.041   6.425   8.110
27565WAT      O82936   4.785   6.177   8.229
27565WAT     H182937   4.858   6.236   8.194
27565WAT     H282938   4.727   6.230   8.292
27566WAT      O82939   9.288   7.130   3.115
27566WAT     H182940   9.255   7.066   3.045
27566WAT     H282941   9.369   7.091   3.160
27567WAT      O82942   9.527   4.399   4.078
27567WAT     H182943   9.448   4.341   4.061
27567WAT     H282944   9.511   4.456   4.159
27568WAT      O82945   4.548   6.417   9.054
27568WAT     H182946   4.631   6.450   9.098
27568WAT     H282947   4.553   6.317   9.044
27569WAT      O82948   5.909   0.741   7.026
27569WAT     H182949   5.820   0.735   7.073
27569WAT     H282950   5.929   0.837   7.006
27570WAT      O82951   9.040   2.632   6.050
27570WAT     H182952   9.022   2.605   6.145
27570WAT     H282953   8.965   2.689   6.017
27571WAT      O82954   6.006   3.372   3.578
27571WAT     H182955   5.924   3.427   3.561
27571WAT     H282956   6.079   3.431   3.611
27572WAT      O82957   4.237   8.500   5.776
27572WAT     H182958   4.203   8.528   5.686
27572WAT     H282959   4.337   8.505   5.777
27573WAT      O82960   2.010   8.639   5.978
27573WAT     H182961   2.036   8.608   5.886
27573WAT     H282962   1.925   8.690   5.973
27574WAT      O82963   4.182   4.349   0.468
27574WAT     H182964   4.114   4.361   0.540
27574WAT     H282965   4.173   4.257   0.430
27575WAT      O82966   3.113   5.415   2.064
27575WAT     H182967   3.198   5.460   2.091
27575WAT     H282968   3.126   5.367   1.978
27576WAT      O82969   6.905   7.902   9.346
27576WAT     H182970   6.993   7.948   9.342
27576WAT     H282971   6.888   7.855   9.259
27577WAT      O82972   7.744   2.767   9.444
27577WAT     H182973   7.767   2.741   9.538
27577WAT     H282974   7.701   2.858   9.444
27578WAT      O82975   8.752   9.524   4.042
27578WAT     H182976   8.754   9.441   3.986
27578WAT     H282977   8.763   9.501   4.138
27579WAT      O82978   0.938   1.975   0.035
27579WAT     H182979   0.926   1.900  -0.030
27579WAT     H282980   0.865   2.042   0.021
27580WAT      O82981   6.401   0.149   8.107
27580WAT     H182982   6.412   0.205   8.025
27580WAT     H282983   6.411   0.053   8.083
27581WAT      O82984   3.120   9.381   7.598
27581WAT     H182985   3.143   9.428   7.683
27581WAT     H282986   3.022   9.358   7.599
27582WAT      O82987   0.135   5.510   7.889
27582WAT     H182988   0.148   5.497   7.988
27582WAT     H282989   0.223   5.535   7.848
27583WAT      O82990   8.856   6.254   5.178
27583WAT     H182991   8.766   6.258   5.133
27583WAT     H282992   8.905   6.172   5.147
27584WAT      O82993   4.578   4.471   8.655
27584WAT     H182994   4.581   4.450   8.752
27584WAT     H282995   4.638   4.549   8.635
27585WAT      O82996   3.932   9.344   2.144
27585WAT     H182997   3.975   9.262   2.182
27585WAT     H282998   3.908   9.328   2.048
27586WAT      O82999   0.708   4.357   6.214
27586WAT     H183000   0.666   4.389   6.129
27586WAT     H283001   0.783   4.295   6.193
27587WAT      O83002   4.104   9.560   5.411
27587WAT     H183003   4.122   9.464   5.432
27587WAT     H283004   4.164   9.590   5.337
27588WAT      O83005   1.951   0.293   8.882
27588WAT     H183006   1.884   0.258   8.947
27588WAT     H283007   2.037   0.244   8.892
27589WAT      O83008   0.296   6.945   0.232
27589WAT     H183009   0.355   7.025   0.237
27589WAT     H283010   0.342   6.867   0.273
27590WAT      O83011   0.674   2.680   7.322
27590WAT     H183012   0.752   2.715   7.373
27590WAT     H283013   0.597   2.665   7.384
27591WAT      O83014   6.591   2.910   8.101
27591WAT     H183015   6.542   2.952   8.177
27591WAT     H283016   6.681   2.878   8.133
27592WAT      O83017   3.216   2.272   0.268
27592WAT     H183018   3.132   2.295   0.317
27592WAT     H283019   3.289   2.336   0.294
27593WAT      O83020   1.763   7.911   3.610
27593WAT     H183021   1.777   8.010   3.602
27593WAT     H283022   1.840   7.863   3.568
27594WAT      O83023   1.488   2.157   9.319
27594WAT     H183024   1.472   2.159   9.418
27594WAT     H283025   1.500   2.062   9.290
27595WAT      O83026   4.306   3.465   6.624
27595WAT     H183027   4.290   3.407   6.544
27595WAT     H283028   4.236   3.536   6.628
27596WAT      O83029   1.488   6.885   1.249
27596WAT     H183030   1.529   6.812   1.194
27596WAT     H283031   1.390   6.890   1.231
27597WAT      O83032   4.815   9.044   1.431
27597WAT     H183033   4.832   9.141   1.419
27597WAT     H283034   4.846   8.994   1.350
27598WAT      O83035   4.666   0.581   0.874
27598WAT     H183036   4.684   0.533   0.789
27598WAT     H283037   4.572   0.617   0.874
27599WAT      O83038   7.655   1.718   5.402
27599WAT     H183039   7.644   1.619   5.406
27599WAT     H283040   7.723   1.741   5.332
27600WAT      O83041   1.279   7.766   3.331
27600WAT     H183042   1.337   7.740   3.409
27600WAT     H283043   1.242   7.857   3.347
27601WAT      O83044   9.382   2.994   1.825
27601WAT     H183045   9.416   3.006   1.732
27601WAT     H283046   9.289   3.031   1.832
27602WAT      O83047   8.954   3.473   7.141
27602WAT     H183048   9.022   3.420   7.193
27602WAT     H283049   8.997   3.510   7.059
27603WAT      O83050   8.020   3.381   8.210
27603WAT     H183051   7.924   3.385   8.183
27603WAT     H283052   8.035   3.437   8.291
27604WAT      O83053   0.470   8.304   1.845
27604WAT     H183054   0.532   8.284   1.922
27604WAT     H283055   0.384   8.254   1.859
27605WAT      O83056   3.285   5.825   9.635
27605WAT     H183057   3.383   5.826   9.616
27605WAT     H283058   3.244   5.745   9.592
27606WAT      O83059   5.768   6.775   6.666
27606WAT     H183060   5.688   6.729   6.705
27606WAT     H283061   5.738   6.846   6.602
27607WAT      O83062   8.369   4.938   9.748
27607WAT     H183063   8.453   4.901   9.789
27607WAT     H283064   8.290   4.888   9.783
27608WAT      O83065   6.079   3.153   8.536
27608WAT     H183066   6.174   3.179   8.519
27608WAT     H283067   6.032   3.142   8.448
27609WAT      O83068   0.684   3.910   5.261
27609WAT     H183069   0.592   3.893   5.226
27609WAT     H283070   0.679   3.928   5.360
27610WAT      O83071   8.072   2.677   5.836
27610WAT     H183072   8.022   2.599   5.873
27610WAT     H283073   8.156   2.645   5.792
27611WAT      O83074   5.727   9.366   7.466
27611WAT     H183075   5.675   9.451   7.478
27611WAT     H283076   5.708   9.305   7.543
27612WAT      O83077   2.100   2.297   0.490
27612WAT     H183078   2.185   2.277   0.538
27612WAT     H283079   2.022   2.266   0.545
27613WAT      O83080   2.496   8.236   7.061
27613WAT     H183081   2.406   8.193   7.075
27613WAT     H283082   2.567   8.165   7.062
27614WAT      O83083   8.126   8.566   8.020
27614WAT     H183084   8.104   8.525   7.931
27614WAT     H283085   8.087   8.510   8.093
27615WAT      O83086   2.309   8.066   7.160
27615WAT     H183087   2.297   8.028   7.252
27615WAT     H283088   2.228   8.044   7.105
27616WAT      O83089   1.195   0.370   7.231
27616WAT     H183090   1.143   0.433   7.173
27616WAT     H283091   1.173   0.387   7.327
27617WAT      O83092   7.559   7.378   2.659
27617WAT     H183093   7.531   7.289   2.696
27617WAT     H283094   7.509   7.395   2.573
27618WAT      O83095   1.308   8.171   9.719
27618WAT     H183096   1.405   8.149   9.724
27618WAT     H283097   1.276   8.203   9.809
27619WAT      O83098   1.480   6.391   2.655
27619WAT     H183099   1.401   6.383   2.594
27619WAT     H283100   1.461   6.342   2.740
27620WAT      O83101   5.918   1.970   6.847
27620WAT     H183102   5.863   1.948   6.766
27620WAT     H283103   6.009   2.000   6.818
27621WAT      O83104   0.330   8.381   8.302
27621WAT     H183105   0.233   8.379   8.279
27621WAT     H283106   0.371   8.293   8.280
27622WAT      O83107   6.932   4.145   6.760
27622WAT     H183108   6.892   4.125   6.671
27622WAT     H283109   6.966   4.238   6.762
27623WAT      O83110   6.743   2.808   5.764
27623WAT     H183111   6.665   2.866   5.740
27623WAT     H283112   6.821   2.830   5.706
27624WAT      O83113   2.008   4.683   3.308
27624WAT     H183114   1.925   4.636   3.277
27624WAT     H283115   2.049   4.730   3.230
27625WAT      O83116   9.531   1.814   4.862
27625WAT     H183117   9.499   1.750   4.932
27625WAT     H283118   9.588   1.765   4.796
27626WAT      O83119   6.700   5.128   5.178
27626WAT     H183120   6.797   5.109   5.162
27626WAT     H283121   6.690   5.211   5.233
27627WAT      O83122   7.696   2.289   6.154
27627WAT     H183123   7.658   2.251   6.069
27627WAT     H283124   7.745   2.217   6.203
27628WAT      O83125   2.250   7.558   2.724
27628WAT     H183126   2.199   7.479   2.759
27628WAT     H283127   2.190   7.613   2.665
27629WAT      O83128   4.386   7.097   5.582
27629WAT     H183129   4.414   7.193   5.573
27629WAT     H283130   4.299   7.083   5.534
27630WAT      O83131   5.671   8.510   2.913
27630WAT     H183132   5.661   8.540   2.818
27630WAT     H283133   5.755   8.548   2.951
27631WAT      O83134   9.400   1.861   6.257
27631WAT     H183135   9.384   1.874   6.159
27631WAT     H283136   9.391   1.950   6.304
27632WAT      O83137   7.633   9.553   6.538
27632WAT     H183138   7.724   9.515   6.519
27632WAT     H283139   7.563   9.487   6.512
27633WAT      O83140   5.665   9.659   5.170
27633WAT     H183141   5.627   9.735   5.118
27633WAT     H283142   5.651   9.574   5.120
27634WAT      O83143   2.785   6.914   0.945
27634WAT     H183144   2.719   6.847   0.982
27634WAT     H283145   2.740   7.003   0.936
27635WAT      O83146   1.399   9.769   1.779
27635WAT     H183147   1.423   9.820   1.862
27635WAT     H283148   1.302   9.748   1.780
27636WAT      O83149   5.248   2.549   6.392
27636WAT     H183150   5.158   2.585   6.416
27636WAT     H283151   5.304   2.543   6.474
27637WAT      O83152   1.066   2.623   8.525
27637WAT     H183153   1.052   2.676   8.609
27637WAT     H283154   1.156   2.644   8.488
27638WAT      O83155   7.707   6.375   9.254
27638WAT     H183156   7.804   6.374   9.230
27638WAT     H283157   7.690   6.450   9.318
27639WAT      O83158   7.692   2.664   5.477
27639WAT     H183159   7.762   2.706   5.535
27639WAT     H283160   7.687   2.713   5.390
27640WAT      O83161   8.033   9.217   7.155
27640WAT     H183162   8.064   9.157   7.228
27640WAT     H283163   8.025   9.310   7.190
27641WAT      O83164   1.858   4.081   2.429
27641WAT     H183165   1.939   4.049   2.380
27641WAT     H283166   1.887   4.137   2.507
27642WAT      O83167   2.974   9.727   1.767
27642WAT     H183168   2.904   9.751   1.699
27642WAT     H283169   2.931   9.685   1.846
27643WAT      O83170   7.934   4.178   2.441
27643WAT     H183171   7.950   4.179   2.342
27643WAT     H283172   7.835   4.176   2.458
27644WAT      O83173   7.388   9.254   5.295
27644WAT     H183174   7.361   9.342   5.332
27644WAT     H283175   7.482   9.258   5.262
27645WAT      O83176   9.241   1.184   5.020
27645WAT     H183177   9.194   1.096   5.009
27645WAT     H283178   9.330   1.170   5.063
27646WAT      O83179   5.798   7.116   3.247
27646WAT     H183180   5.893   7.120   3.217
27646WAT     H283181   5.738   7.148   3.174
27647WAT      O83182   2.509   8.685   2.343
27647WAT     H183183   2.580   8.643   2.399
27647WAT     H283184   2.470   8.616   2.281
27648WAT      O83185   4.911   3.032   2.113
27648WAT     H183186   4.828   2.977   2.100
27648WAT     H283187   4.984   2.974   2.148
27649WAT      O83188   8.313   6.261   1.105
27649WAT     H183189   8.261   6.178   1.089
27649WAT     H283190   8.395   6.239   1.158
27650WAT      O83191   0.268   3.538   4.055
27650WAT     H183192   0.183   3.568   4.011
27650WAT     H283193   0.321   3.484   3.991
27651WAT      O83194   5.171   1.615   0.394
27651WAT     H183195   5.083   1.658   0.414
27651WAT     H283196   5.162   1.515   0.403
27652WAT      O83197   5.053   6.495   0.685
27652WAT     H183198   5.118   6.495   0.761
27652WAT     H283199   5.084   6.432   0.614
27653WAT      O83200   7.241   0.810   5.112
27653WAT     H183201   7.147   0.802   5.143
27653WAT     H283202   7.297   0.848   5.185
27654WAT      O83203   9.409   2.203   5.330
27654WAT     H183204   9.388   2.161   5.418
27654WAT     H283205   9.333   2.189   5.267
27655WAT      O83206   6.280   7.780   0.417
27655WAT     H183207   6.373   7.761   0.447
27655WAT     H283208   6.277   7.786   0.317
27656WAT      O83209   9.680   0.706   0.564
27656WAT     H183210   9.649   0.788   0.517
27656WAT     H283211   9.608   0.636   0.562
27657WAT      O83212   5.325   7.735   4.153
27657WAT     H183213   5.398   7.789   4.111
27657WAT     H283214   5.271   7.691   4.081
27658WAT      O83215   0.670   5.214   3.780
27658WAT     H183216   0.669   5.267   3.696
27658WAT     H283217   0.641   5.272   3.856
27659WAT      O83218   5.316   9.265   5.000
27659WAT     H183219   5.305   9.358   5.036
27659WAT     H283220   5.255   9.252   4.923
27660WAT      O83221   9.168   8.369   2.944
27660WAT     H183222   9.224   8.452   2.945
27660WAT     H283223   9.159   8.336   2.850
27661WAT      O83224   9.652   1.008   2.631
27661WAT     H183225   9.728   1.070   2.614
27661WAT     H283226   9.594   1.044   2.704
27662WAT      O83227   6.652   0.220   0.846
27662WAT     H183228   6.729   0.175   0.891
27662WAT     H283229   6.645   0.189   0.751
27663WAT      O83230   9.719   6.204   4.676
27663WAT     H183231   9.679   6.162   4.757
27663WAT     H283232   9.797   6.261   4.703
27664WAT      O83233   3.989   8.946   7.401
27664WAT     H183234   4.073   8.994   7.377
27664WAT     H283235   3.942   8.995   7.475
27665WAT      O83236   3.234   7.559   3.861
27665WAT     H183237   3.157   7.566   3.924
27665WAT     H283238   3.258   7.462   3.849
27666WAT      O83239   6.453   7.609   0.786
27666WAT     H183240   6.369   7.555   0.787
27666WAT     H283241   6.513   7.578   0.859
27667WAT      O83242   8.611   2.379   7.347
27667WAT     H183243   8.569   2.443   7.411
27667WAT     H283244   8.625   2.424   7.259
27668WAT      O83245   9.485   0.487   5.327
27668WAT     H183246   9.443   0.456   5.242
27668WAT     H283247   9.540   0.568   5.309
27669WAT      O83248   5.382   3.314   5.678
27669WAT     H183249   5.375   3.275   5.587
27669WAT     H283250   5.427   3.249   5.739
27670WAT      O83251   1.915   9.493   9.102
27670WAT     H183252   1.982   9.504   9.028
27670WAT     H283253   1.961   9.504   9.190
27671WAT      O83254   3.632   1.674   1.644
27671WAT     H183255   3.689   1.723   1.577
27671WAT     H283256   3.568   1.738   1.685
27672WAT      O83257   7.634   6.262   4.932
27672WAT     H183258   7.669   6.223   5.017
27672WAT     H283259   7.672   6.353   4.919
27673WAT      O83260   6.026   9.773   3.396
27673WAT     H183261   6.019   9.705   3.469
27673WAT     H283262   6.029   9.727   3.308
27674WAT      O83263   2.942   4.231   3.326
27674WAT     H183264   2.998   4.193   3.399
27674WAT     H283265   2.997   4.241   3.243
27675WAT      O83266   8.844   0.240   7.311
27675WAT     H183267   8.784   0.169   7.272
27675WAT     H283268   8.798   0.328   7.307
27676WAT      O83269   9.200   6.267   2.835
27676WAT     H183270   9.289   6.281   2.879
27676WAT     H283271   9.146   6.204   2.891
27677WAT      O83272   8.587   8.637   0.884
27677WAT     H183273   8.487   8.638   0.883
27677WAT     H283274   8.621   8.729   0.864
27678WAT      O83275   8.177   0.708   8.628
27678WAT     H183276   8.163   0.649   8.707
27678WAT     H283277   8.200   0.653   8.548
27679WAT      O83278   8.252   8.028   3.255
27679WAT     H183279   8.257   7.929   3.249
27679WAT     H283280   8.246   8.055   3.352
27680WAT      O83281   1.659   7.027   6.046
27680WAT     H183282   1.570   7.018   6.001
27680WAT     H283283   1.660   7.110   6.102
27681WAT      O83284   8.481   3.591   4.875
27681WAT     H183285   8.509   3.496   4.869
27681WAT     H283286   8.401   3.599   4.935
27682WAT      O83287   3.761   8.405   6.183
27682WAT     H183288   3.760   8.482   6.247
27682WAT     H283289   3.708   8.429   6.101
27683WAT      O83290   7.315   4.460   5.378
27683WAT     H183291   7.247   4.408   5.324
27683WAT     H283292   7.286   4.463   5.473
27684WAT      O83293   7.834   9.386   6.461
27684WAT     H183294   7.796   9.302   6.500
27684WAT     H283295   7.933   9.386   6.471
27685WAT      O83296   7.865   3.765   5.335
27685WAT     H183297   7.823   3.848   5.298
27685WAT     H283298   7.856   3.766   5.435
27686WAT      O83299   9.127   3.227   8.222
27686WAT     H183300   9.056   3.258   8.159
27686WAT     H283301   9.217   3.247   8.184
27687WAT      O83302   8.829   6.673   7.915
27687WAT     H183303   8.737   6.650   7.883
27687WAT     H283304   8.848   6.769   7.894
27688WAT      O83305   4.083   5.581   2.891
27688WAT     H183306   4.085   5.567   2.792
27688WAT     H283307   4.013   5.522   2.932
27689WAT      O83308   9.045   3.429   2.603
27689WAT     H183309   8.972   3.377   2.647
27689WAT     H283310   9.116   3.450   2.670
27690WAT      O83311   8.213   4.737   9.571
27690WAT     H183312   8.253   4.828   9.566
27690WAT     H283313   8.133   4.733   9.510
27691WAT      O83314   5.441   9.265   4.214
27691WAT     H183315   5.440   9.200   4.138
27691WAT     H283316   5.419   9.357   4.179
27692WAT      O83317   2.194   8.427   9.478
27692WAT     H183318   2.289   8.422   9.446
27692WAT     H283319   2.181   8.365   9.555
27693WAT      O83320   0.789   8.721   3.307
27693WAT     H183321   0.834   8.632   3.313
27693WAT     H283322   0.779   8.759   3.399
27694WAT      O83323   1.479   7.970   0.903
27694WAT     H183324   1.387   7.943   0.929
27694WAT     H283325   1.542   7.893   0.919
27695WAT      O83326   2.217   1.206   4.334
27695WAT     H183327   2.123   1.200   4.366
27695WAT     H283328   2.227   1.287   4.275
27696WAT      O83329   9.594   3.367   1.128
27696WAT     H183330   9.515   3.342   1.184
27696WAT     H283331   9.589   3.322   1.039
27697WAT      O83332   8.534   6.231   4.778
27697WAT     H183333   8.463   6.270   4.836
27697WAT     H283334   8.563   6.143   4.814
27698WAT      O83335   1.651   2.576   5.340
27698WAT     H183336   1.606   2.663   5.325
27698WAT     H283337   1.749   2.584   5.319
27699WAT      O83338   6.136   4.146   6.190
27699WAT     H183339   6.080   4.079   6.141
27699WAT     H283340   6.101   4.238   6.173
27700WAT      O83341   0.562   1.598   3.793
27700WAT     H183342   0.643   1.656   3.780
27700WAT     H283343   0.490   1.628   3.730
27701WAT      O83344   7.469   0.278   5.286
27701WAT     H183345   7.409   0.358   5.297
27701WAT     H283346   7.430   0.217   5.217
27702WAT      O83347   3.415   8.261   0.296
27702WAT     H183348   3.418   8.246   0.395
27702WAT     H283349   3.487   8.208   0.252
27703WAT      O83350   0.359   7.951   2.303
27703WAT     H183351   0.374   7.914   2.395
27703WAT     H283352   0.425   7.911   2.239
27704WAT      O83353   5.552   0.277   3.283
27704WAT     H183354   5.486   0.331   3.232
27704WAT     H283355   5.558   0.185   3.243
27705WAT      O83356   0.912   2.485   7.274
27705WAT     H183357   0.820   2.511   7.245
27705WAT     H283358   0.972   2.482   7.195
27706WAT      O83359   2.048   0.703   3.901
27706WAT     H183360   2.078   0.641   3.974
27706WAT     H283361   2.037   0.795   3.938
27707WAT      O83362   4.562   7.004   4.426
27707WAT     H183363   4.474   7.051   4.424
27707WAT     H283364   4.546   6.905   4.420
27708WAT      O83365   9.263   6.043   9.400
27708WAT     H183366   9.324   6.000   9.466
27708WAT     H283367   9.213   5.973   9.349
27709WAT      O83368   3.709   3.231   0.359
27709WAT     H183369   3.656   3.211   0.277
27709WAT     H283370   3.786   3.290   0.335
27710WAT      O83371   7.137   7.660   0.070
27710WAT     H183372   7.184   7.697   0.151
27710WAT     H283373   7.096   7.735   0.018
27711WAT      O83374   2.191   1.402   0.823
27711WAT     H183375   2.103   1.355   0.822
27711WAT     H283376   2.230   1.403   0.731
27712WAT      O83377   6.127   0.760   9.349
27712WAT     H183378   6.203   0.825   9.352
27712WAT     H283379   6.121   0.713   9.438
27713WAT      O83380   9.469   5.012   5.992
27713WAT     H183381   9.436   4.994   6.085
27713WAT     H283382   9.554   5.064   5.996
27714WAT      O83383   1.176   7.481   1.499
27714WAT     H183384   1.254   7.535   1.529
27714WAT     H283385   1.097   7.501   1.557
27715WAT      O83386   3.178   0.062   8.664
27715WAT     H183387   3.178  -0.026   8.616
27715WAT     H283388   3.104   0.120   8.629
27716WAT      O83389   5.917   0.396   1.865
27716WAT     H183390   5.830   0.420   1.909
27716WAT     H283391   5.990   0.398   1.933
27717WAT      O83392   6.233   5.927   4.247
27717WAT     H183393   6.324   5.966   4.260
27717WAT     H283394   6.185   5.924   4.334
27718WAT      O83395   1.321   6.436   1.298
27718WAT     H183396   1.380   6.364   1.261
27718WAT     H283397   1.304   6.419   1.395
27719WAT      O83398   7.240   5.089   0.377
27719WAT     H183399   7.276   5.102   0.469
27719WAT     H283400   7.315   5.095   0.311
27720WAT      O83401   4.400   2.259   3.497
27720WAT     H183402   4.319   2.316   3.482
27720WAT     H283403   4.473   2.288   3.434
27721WAT      O83404   2.756   2.828   5.508
27721WAT     H183405   2.824   2.881   5.458
27721WAT     H283406   2.733   2.874   5.593
27722WAT      O83407   5.059   6.620   3.433
27722WAT     H183408   5.027   6.700   3.484
27722WAT     H283409   5.010   6.539   3.464
27723WAT      O83410   0.866   2.413   9.606
27723WAT     H183411   0.893   2.339   9.544
27723WAT     H283412   0.909   2.399   9.695
27724WAT      O83413   2.357   7.344   5.764
27724WAT     H183414   2.318   7.266   5.813
27724WAT     H283415   2.420   7.311   5.693
27725WAT      O83416   2.199   9.169   8.103
27725WAT     H183417   2.199   9.071   8.122
27725WAT     H283418   2.258   9.188   8.025
27726WAT      O83419   5.913   7.662   0.507
27726WAT     H183420   5.967   7.582   0.533
27726WAT     H283421   5.962   7.745   0.536
27727WAT      O83422   3.899   7.215   3.350
27727WAT     H183423   3.928   7.228   3.255
27727WAT     H283424   3.802   7.236   3.358
27728WAT      O83425   3.308   7.839   2.041
27728WAT     H183426   3.318   7.910   2.110
27728WAT     H283427   3.366   7.861   1.962
27729WAT      O83428   6.272   0.008   1.399
27729WAT     H183429   6.311   0.100   1.405
27729WAT     H283430   6.239  -0.008   1.306
27730WAT      O83431   6.857   5.176   1.857
27730WAT     H183432   6.952   5.180   1.887
27730WAT     H283433   6.812   5.264   1.877
27731WAT      O83434   1.676   0.888   5.129
27731WAT     H183435   1.611   0.835   5.075
27731WAT     H283436   1.762   0.837   5.138
27732WAT      O83437   4.300   3.526   3.098
27732WAT     H183438   4.330   3.608   3.147
27732WAT     H283439   4.379   3.473   3.071
27733WAT      O83440   6.573   8.749   1.452
27733WAT     H183441   6.478   8.778   1.449
27733WAT     H283442   6.608   8.736   1.359
27734WAT      O83443   7.258   4.298   8.007
27734WAT     H183444   7.203   4.381   8.002
27734WAT     H283445   7.210   4.228   8.060
27735WAT      O83446   7.357   1.368   1.560
27735WAT     H183447   7.265   1.337   1.537
27735WAT     H283448   7.392   1.313   1.636
27736WAT      O83449   6.973   4.281   0.281
27736WAT     H183450   6.895   4.333   0.249
27736WAT     H283451   6.960   4.184   0.258
27737WAT      O83452   8.139   2.930   7.386
27737WAT     H183453   8.072   2.857   7.372
27737WAT     H283454   8.218   2.892   7.434
27738WAT      O83455   1.538   8.465   5.892
27738WAT     H183456   1.627   8.419   5.898
27738WAT     H283457   1.548   8.547   5.836
27739WAT      O83458   6.592   5.886   4.824
27739WAT     H183459   6.685   5.891   4.862
27739WAT     H283460   6.526   5.895   4.898
27740WAT      O83461   9.792   1.510   8.005
27740WAT     H183462   9.856   1.459   7.947
27740WAT     H283463   9.842   1.548   8.084
27741WAT      O83464   6.085   0.221   8.137
27741WAT     H183465   6.170   0.273   8.145
27741WAT     H283466   6.080   0.179   8.047
27742WAT      O83467   2.305   7.916   2.564
27742WAT     H183468   2.350   7.962   2.640
27742WAT     H283469   2.257   7.835   2.597
27743WAT      O83470   7.673   8.532   2.687
27743WAT     H183471   7.704   8.559   2.596
27743WAT     H283472   7.682   8.609   2.750
27744WAT      O83473   0.522   0.992   6.614
27744WAT     H183474   0.446   0.928   6.625
27744WAT     H283475   0.495   1.082   6.648
27745WAT      O83476   7.967   4.481   6.693
27745WAT     H183477   7.996   4.512   6.783
27745WAT     H283478   7.962   4.381   6.692
27746WAT      O83479   1.560   9.376   2.317
27746WAT     H183480   1.571   9.472   2.291
27746WAT     H283481   1.466   9.361   2.347
27747WAT      O83482   2.546   9.028   6.272
27747WAT     H183483   2.489   8.966   6.325
27747WAT     H283484   2.578   8.981   6.189
27748WAT      O83485   3.583   7.328   6.900
27748WAT     H183486   3.675   7.338   6.939
27748WAT     H283487   3.583   7.254   6.832
27749WAT      O83488   3.776   5.699   7.834
27749WAT     H183489   3.774   5.643   7.917
27749WAT     H283490   3.693   5.682   7.781
27750WAT      O83491   7.065   9.679   1.633
27750WAT     H183492   7.106   9.591   1.607
27750WAT     H283493   7.081   9.695   1.731
27751WAT      O83494   5.519   5.895   2.945
27751WAT     H183495   5.446   5.948   2.989
27751WAT     H283496   5.584   5.863   3.015
27752WAT      O83497   7.772   8.275   3.764
27752WAT     H183498   7.777   8.328   3.849
27752WAT     H283499   7.831   8.318   3.695
27753WAT      O83500   7.192   4.982   0.924
27753WAT     H183501   7.184   5.074   0.963
27753WAT     H283502   7.258   4.929   0.977
27754WAT      O83503   8.026   0.256   8.909
27754WAT     H183504   8.063   0.275   8.818
27754WAT     H283505   7.930   0.284   8.912
27755WAT      O83506   2.969   2.256   3.042
27755WAT     H183507   3.008   2.176   3.088
27755WAT     H283508   2.927   2.317   3.109
27756WAT      O83509   0.702   8.415   8.205
27756WAT     H183510   0.724   8.408   8.302
27756WAT     H283511   0.635   8.345   8.181
27757WAT      O83512   0.009   0.687   8.518
27757WAT     H183513   0.059   0.746   8.453
27757WAT     H283514   0.075   0.641   8.578
27758WAT      O83515   0.950   8.633   9.617
27758WAT     H183516   1.018   8.592   9.678
27758WAT     H283517   0.859   8.621   9.656
27759WAT      O83518   4.540   5.408   4.012
27759WAT     H183519   4.527   5.329   4.071
27759WAT     H283520   4.525   5.381   3.916
27760WAT      O83521   5.878   2.430   2.764
27760WAT     H183522   5.783   2.453   2.744
27760WAT     H283523   5.938   2.497   2.721
27761WAT      O83524   8.269   5.556   6.247
27761WAT     H183525   8.346   5.562   6.311
27761WAT     H283526   8.298   5.508   6.164
27762WAT      O83527   8.093   1.177   6.154
27762WAT     H183528   8.150   1.252   6.119
27762WAT     H283529   8.072   1.115   6.079
27763WAT      O83530   6.482   8.460   2.600
27763WAT     H183531   6.500   8.539   2.659
27763WAT     H283532   6.448   8.384   2.656
27764WAT      O83533   2.360   5.010   3.975
27764WAT     H183534   2.352   5.014   4.075
27764WAT     H283535   2.282   5.057   3.933
27765WAT      O83536   7.879   6.663   1.403
27765WAT     H183537   7.852   6.710   1.487
27765WAT     H283538   7.923   6.728   1.341
27766WAT      O83539   4.041   3.784   4.937
27766WAT     H183540   4.123   3.784   4.879
27766WAT     H283541   3.960   3.768   4.881
27767WAT      O83542   6.779   8.216   4.671
27767WAT     H183543   6.710   8.247   4.605
27767WAT     H283544   6.847   8.287   4.684
27768WAT      O83545   4.282   9.357   4.039
27768WAT     H183546   4.222   9.437   4.026
27768WAT     H283547   4.346   9.375   4.114
27769WAT      O83548   6.863   9.259   4.780
27769WAT     H183549   6.797   9.212   4.721
27769WAT     H283550   6.954   9.253   4.738
27770WAT      O83551   5.874   5.150   7.140
27770WAT     H183552   5.819   5.121   7.062
27770WAT     H283553   5.814   5.182   7.214
27771WAT      O83554   8.404   8.789   6.652
27771WAT     H183555   8.464   8.712   6.632
27771WAT     H283556   8.309   8.759   6.645
27772WAT      O83557   8.944   2.829   1.097
27772WAT     H183558   9.017   2.842   1.030
27772WAT     H283559   8.872   2.771   1.058
27773WAT      O83560   3.592   9.836   4.222
27773WAT     H183561   3.502   9.877   4.207
27773WAT     H283562   3.656   9.871   4.153
27774WAT      O83563   7.417   3.329   3.101
27774WAT     H183564   7.448   3.252   3.158
27774WAT     H283565   7.460   3.413   3.134
27775WAT      O83566   7.908   4.388   4.775
27775WAT     H183567   7.822   4.438   4.777
27775WAT     H283568   7.940   4.380   4.681
27776WAT      O83569   4.171   3.057   0.479
27776WAT     H183570   4.106   3.129   0.502
27776WAT     H283571   4.264   3.095   0.476
27777WAT      O83572   2.374   3.808   8.685
27777WAT     H183573   2.410   3.809   8.779
27777WAT     H283574   2.325   3.893   8.668
27778WAT      O83575   3.432   5.172   3.640
27778WAT     H183576   3.513   5.228   3.654
27778WAT     H283577   3.459   5.077   3.624
27779WAT      O83578   3.928   9.466   9.402
27779WAT     H183579   3.845   9.438   9.355
27779WAT     H283580   3.927   9.565   9.415
27780WAT      O83581   4.278   1.395   8.577
27780WAT     H183582   4.230   1.358   8.498
27780WAT     H283583   4.358   1.447   8.546
27781WAT      O83584   7.727   1.925   0.772
27781WAT     H183585   7.824   1.915   0.749
27781WAT     H283586   7.701   2.021   0.763
27782WAT      O83587   4.344   1.547   6.903
27782WAT     H183588   4.430   1.498   6.890
27782WAT     H283589   4.329   1.561   7.001
27783WAT      O83590   3.886   4.181   1.948
27783WAT     H183591   3.885   4.236   1.864
27783WAT     H283592   3.868   4.240   2.027
27784WAT      O83593   0.822   1.917   7.620
27784WAT     H183594   0.783   1.827   7.639
27784WAT     H283595   0.816   1.974   7.702
27785WAT      O83596   8.900   3.493   6.843
27785WAT     H183597   8.913   3.459   6.749
27785WAT     H283598   8.830   3.439   6.889
27786WAT      O83599   2.411   2.727   8.384
27786WAT     H183600   2.462   2.754   8.303
27786WAT     H283601   2.329   2.784   8.393
27787WAT      O83602   5.560   4.261   4.948
27787WAT     H183603   5.626   4.336   4.945
27787WAT     H283604   5.478   4.291   4.996
27788WAT      O83605   6.969   3.265   8.687
27788WAT     H183606   6.910   3.245   8.608
27788WAT     H283607   6.971   3.363   8.704
27789WAT      O83608   4.021   8.456   6.354
27789WAT     H183609   4.111   8.495   6.372
27789WAT     H283610   3.951   8.515   6.392
27790WAT      O83611   0.362   8.879   4.085
27790WAT     H183612   0.293   8.947   4.059
27790WAT     H283613   0.435   8.878   4.017
27791WAT      O83614   4.634   2.593   7.178
27791WAT     H183615   4.707   2.569   7.241
27791WAT     H283616   4.652   2.684   7.139
27792WAT      O83617   1.517   4.281   5.225
27792WAT     H183618   1.514   4.373   5.186
27792WAT     H283619   1.491   4.214   5.156
27793WAT      O83620   9.119   3.720   4.602
27793WAT     H183621   9.086   3.814   4.603
27793WAT     H283622   9.218   3.719   4.613
27794WAT      O83623   7.071   7.304   5.911
27794WAT     H183624   7.126   7.226   5.880
27794WAT     H283625   6.984   7.305   5.861
27795WAT      O83626   6.281   4.742   3.507
27795WAT     H183627   6.183   4.722   3.515
27795WAT     H283628   6.303   4.759   3.411
27796WAT      O83629   1.900   1.479   9.162
27796WAT     H183630   1.956   1.554   9.126
27796WAT     H283631   1.932   1.456   9.254
27797WAT      O83632   4.269   8.621   8.706
27797WAT     H183633   4.243   8.554   8.776
27797WAT     H283634   4.346   8.675   8.740
27798WAT      O83635   2.998   3.823   8.371
27798WAT     H183636   3.042   3.790   8.455
27798WAT     H283637   3.037   3.911   8.345
27799WAT      O83638   7.335   4.039   7.536
27799WAT     H183639   7.257   3.984   7.568
27799WAT     H283640   7.302   4.112   7.476
27800WAT      O83641   4.461   1.836   6.957
27800WAT     H183642   4.440   1.750   7.004
27800WAT     H283643   4.505   1.899   7.021
27801WAT      O83644   7.348   5.771   5.413
27801WAT     H183645   7.261   5.800   5.453
27801WAT     H283646   7.341   5.676   5.383
27802WAT      O83647   6.058   8.452   1.519
27802WAT     H183648   6.147   8.406   1.512
27802WAT     H283649   6.070   8.540   1.564
27803WAT      O83650   1.906   1.210   5.600
27803WAT     H183651   1.961   1.290   5.577
27803WAT     H283652   1.834   1.198   5.533
27804WAT      O83653   9.743   4.931   3.236
27804WAT     H183654   9.771   5.027   3.225
27804WAT     H283655   9.645   4.928   3.258
27805WAT      O83656   3.241   4.526   4.144
27805WAT     H183657   3.251   4.470   4.061
27805WAT     H283658   3.197   4.471   4.215
27806WAT      O83659   3.535   0.288   3.918
27806WAT     H183660   3.558   0.197   3.950
27806WAT     H283661   3.521   0.286   3.819
27807WAT      O83662   6.904   8.753   2.058
27807WAT     H183663   6.902   8.817   1.981
27807WAT     H283664   6.999   8.741   2.088
27808WAT      O83665   7.046   8.901   2.537
27808WAT     H183666   6.966   8.922   2.593
27808WAT     H283667   7.094   8.822   2.576
27809WAT      O83668   5.997   2.070   0.625
27809WAT     H183669   5.989   1.971   0.635
27809WAT     H283670   6.049   2.090   0.542
27810WAT      O83671   2.632   8.247   3.608
27810WAT     H183672   2.725   8.244   3.574
27810WAT     H283673   2.628   8.303   3.690
27811WAT      O83674   6.536   1.497   7.277
27811WAT     H183675   6.559   1.593   7.293
27811WAT     H283676   6.576   1.467   7.191
27812WAT      O83677   5.014   4.024   4.085
27812WAT     H183678   5.044   4.108   4.039
27812WAT     H283679   4.984   3.958   4.017
27813WAT      O83680   4.772   9.835   9.215
27813WAT     H183681   4.819   9.762   9.264
27813WAT     H283682   4.812   9.924   9.240
27814WAT      O83683   1.016   3.370   5.158
27814WAT     H183684   0.998   3.408   5.067
27814WAT     H283685   1.084   3.297   5.150
27815WAT      O83686   3.814   3.487   7.789
27815WAT     H183687   3.769   3.542   7.718
27815WAT     H283688   3.766   3.400   7.799
27816WAT      O83689   8.424   2.049   1.487
27816WAT     H183690   8.437   2.051   1.586
27816WAT     H283691   8.471   2.127   1.446
27817WAT      O83692   1.856   5.091   4.471
27817WAT     H183693   1.808   5.101   4.558
27817WAT     H283694   1.794   5.114   4.396
27818WAT      O83695   7.498   2.934   0.554
27818WAT     H183696   7.561   3.005   0.523
27818WAT     H283697   7.427   2.920   0.484
27819WAT      O83698   6.596   3.424   0.567
27819WAT     H183699   6.565   3.516   0.544
27819WAT     H283700   6.619   3.375   0.483
27820WAT      O83701   8.339   1.025   4.196
27820WAT     H183702   8.348   1.119   4.229
27820WAT     H283703   8.278   1.023   4.118
27821WAT      O83704   5.803   4.062   5.543
27821WAT     H183705   5.722   4.115   5.568
27821WAT     H283706   5.776   3.984   5.486
27822WAT      O83707   3.700   5.063   5.516
27822WAT     H183708   3.605   5.055   5.486
27822WAT     H283709   3.716   4.998   5.591
27823WAT      O83710   4.202   4.694   8.499
27823WAT     H183711   4.236   4.775   8.547
27823WAT     H283712   4.189   4.717   8.402
27824WAT      O83713   1.062   4.877   4.096
27824WAT     H183714   1.074   4.781   4.072
27824WAT     H283715   0.969   4.893   4.128
27825WAT      O83716   0.089   6.031   8.239
27825WAT     H183717   0.031   6.094   8.188
27825WAT     H283718   0.112   5.952   8.181
27826WAT      O83719   5.996   3.032   8.920
27826WAT     H183720   5.913   3.087   8.916
27826WAT     H283721   5.974   2.940   8.952
27827WAT      O83722   1.907   3.724   8.259
27827WAT     H183723   1.967   3.756   8.333
27827WAT     H283724   1.922   3.627   8.244
27828WAT      O83725   7.539   6.965   6.515
27828WAT     H183726   7.451   6.924   6.537
27828WAT     H283727   7.600   6.957   6.595
27829WAT      O83728   7.566   8.620   3.738
27829WAT     H183729   7.586   8.587   3.645
27829WAT     H283730   7.468   8.639   3.746
27830WAT      O83731   1.266   7.302   5.495
27830WAT     H183732   1.224   7.244   5.565
27830WAT     H283733   1.347   7.346   5.533
27831WAT      O83734   7.485   7.205   3.904
27831WAT     H183735   7.404   7.242   3.859
27831WAT     H283736   7.539   7.279   3.943
27832WAT      O83737   1.505   4.057   2.130
27832WAT     H183738   1.526   4.147   2.093
27832WAT     H283739   1.438   4.067   2.204
27833WAT      O83740   9.222   8.998   3.018
27833WAT     H183741   9.126   9.003   2.990
27833WAT     H283742   9.276   9.061   2.962
27834WAT      O83743   2.768   4.867   3.569
27834WAT     H183744   2.670   4.862   3.591
27834WAT     H283745   2.807   4.949   3.610
27835WAT      O83746   1.896   0.332   9.370
27835WAT     H183747   1.818   0.388   9.344
27835WAT     H283748   1.904   0.331   9.470
27836WAT      O83749   1.606   1.502   4.915
27836WAT     H183750   1.700   1.484   4.943
27836WAT     H283751   1.566   1.573   4.974
27837WAT      O83752   2.267   9.673   6.861
27837WAT     H183753   2.246   9.579   6.833
27837WAT     H283754   2.232   9.737   6.793
27838WAT      O83755   4.925   4.146   2.460
27838WAT     H183756   4.855   4.214   2.483
27838WAT     H283757   4.991   4.186   2.397
27839WAT      O83758   0.265   9.168   4.837
27839WAT     H183759   0.200   9.106   4.793
27839WAT     H283760   0.215   9.249   4.870
27840WAT      O83761   2.851   1.737   1.945
27840WAT     H183762   2.775   1.779   1.995
27840WAT     H283763   2.937   1.764   1.989
27841WAT      O83764   7.558   2.415   4.770
27841WAT     H183765   7.530   2.484   4.703
27841WAT     H283766   7.654   2.390   4.755
27842WAT      O83767   0.508   8.771   4.269
27842WAT     H183768   0.563   8.694   4.236
27842WAT     H283769   0.442   8.797   4.198
27843WAT      O83770   7.827   5.234   6.240
27843WAT     H183771   7.735   5.228   6.278
27843WAT     H283772   7.831   5.183   6.154
27844WAT      O83773   2.033   9.263   7.112
27844WAT     H183774   2.095   9.227   7.182
27844WAT     H283775   2.086   9.301   7.036
27845WAT      O83776   7.138   7.496   9.541
27845WAT     H183777   7.063   7.539   9.490
27845WAT     H283778   7.202   7.567   9.572
27846WAT      O83779   0.867   4.556   4.972
27846WAT     H183780   0.868   4.598   5.063
27846WAT     H283781   0.934   4.482   4.969
27847WAT      O83782   2.632   5.712   1.112
27847WAT     H183783   2.603   5.727   1.207
27847WAT     H283784   2.693   5.786   1.084
27848WAT      O83785   2.264   1.447   8.907
27848WAT     H183786   2.271   1.404   8.817
27848WAT     H283787   2.204   1.392   8.966
27849WAT      O83788   0.187   1.448   2.734
27849WAT     H183789   0.107   1.419   2.683
27849WAT     H283790   0.209   1.381   2.804
27850WAT      O83791   2.996   4.562   8.903
27850WAT     H183792   2.920   4.499   8.916
27850WAT     H283793   2.962   4.655   8.892
27851WAT      O83794   3.180   8.227   2.174
27851WAT     H183795   3.154   8.187   2.086
27851WAT     H283796   3.125   8.188   2.247
27852WAT      O83797   1.979   4.518   4.829
27852WAT     H183798   1.879   4.528   4.829
27852WAT     H283799   2.012   4.524   4.735
27853WAT      O83800   0.559   7.739   8.551
27853WAT     H183801   0.511   7.651   8.540
27853WAT     H283802   0.634   7.727   8.617
27854WAT      O83803   8.080   4.345   4.019
27854WAT     H183804   8.141   4.390   3.953
27854WAT     H283805   8.045   4.413   4.083
27855WAT      O83806   5.115   0.765   0.118
27855WAT     H183807   5.037   0.817   0.082
27855WAT     H283808   5.200   0.808   0.089
27856WAT      O83809   6.308   0.058   9.639
27856WAT     H183810   6.367   0.050   9.719
27856WAT     H283811   6.338   0.134   9.582
27857WAT      O83812   3.862   0.467   5.111
27857WAT     H183813   3.903   0.521   5.185
27857WAT     H283814   3.930   0.448   5.041
27858WAT      O83815   3.554   5.311   2.926
27858WAT     H183816   3.482   5.294   2.859
27858WAT     H283817   3.638   5.264   2.897
27859WAT      O83818   9.240   2.258   0.188
27859WAT     H183819   9.230   2.175   0.243
27859WAT     H283820   9.294   2.238   0.106
27860WAT      O83821   1.891   4.227   6.032
27860WAT     H183822   1.798   4.190   6.033
27860WAT     H283823   1.902   4.286   5.952
27861WAT      O83824   9.406   0.402   8.402
27861WAT     H183825   9.383   0.310   8.434
27861WAT     H283826   9.488   0.398   8.345
27862WAT      O83827   7.553   7.373   4.463
27862WAT     H183828   7.456   7.396   4.459
27862WAT     H283829   7.585   7.382   4.558
27863WAT      O83830   7.155   3.442   3.745
27863WAT     H183831   7.209   3.417   3.825
27863WAT     H283832   7.156   3.367   3.679
27864WAT      O83833   8.787   5.895   7.411
27864WAT     H183834   8.690   5.874   7.405
27864WAT     H283835   8.836   5.816   7.448
27865WAT      O83836   0.960   9.637   4.104
27865WAT     H183837   0.938   9.564   4.169
27865WAT     H283838   1.057   9.659   4.110
27866WAT      O83839   1.123   1.734   2.136
27866WAT     H183840   1.152   1.642   2.161
27866WAT     H283841   1.166   1.760   2.049
27867WAT      O83842   2.284   2.305   2.026
27867WAT     H183843   2.213   2.239   2.000
27867WAT     H283844   2.326   2.277   2.113
27868WAT      O83845   0.894   8.985   6.678
27868WAT     H183846   0.972   8.975   6.616
27868WAT     H283847   0.810   8.955   6.632
27869WAT      O83848   4.908   9.651   3.509
27869WAT     H183849   4.922   9.565   3.558
27869WAT     H283850   4.927   9.637   3.411
27870WAT      O83851   2.255   8.539   1.289
27870WAT     H183852   2.293   8.533   1.381
27870WAT     H283853   2.309   8.603   1.235
27871WAT      O83854   5.665   3.551   9.305
27871WAT     H183855   5.660   3.605   9.389
27871WAT     H283856   5.662   3.612   9.225
27872WAT      O83857   7.118   9.040   6.640
27872WAT     H183858   7.076   9.032   6.730
27872WAT     H283859   7.210   9.000   6.642
27873WAT      O83860   9.427   1.846   1.450
27873WAT     H183861   9.374   1.836   1.366
27873WAT     H283862   9.524   1.857   1.427
27874WAT      O83863   3.844   7.831   8.147
27874WAT     H183864   3.859   7.842   8.245
27874WAT     H283865   3.834   7.734   8.126
27875WAT      O83866   3.822   3.676   6.930
27875WAT     H183867   3.760   3.617   6.878
27875WAT     H283868   3.774   3.758   6.959
27876WAT      O83869   3.876   4.167   7.304
27876WAT     H183870   3.815   4.164   7.383
27876WAT     H283871   3.902   4.262   7.286
27877WAT      O83872   2.222   1.499   4.746
27877WAT     H183873   2.243   1.403   4.725
27877WAT     H283874   2.175   1.504   4.834
27878WAT      O83875   4.404   2.426   6.452
27878WAT     H183876   4.329   2.420   6.519
27878WAT     H283877   4.431   2.521   6.440
27879WAT      O83878   6.486   6.690   0.737
27879WAT     H183879   6.522   6.654   0.823
27879WAT     H283880   6.403   6.744   0.756
27880WAT      O83881   4.384   1.466   6.597
27880WAT     H183882   4.472   1.421   6.584
27880WAT     H283883   4.325   1.449   6.518
27881WAT      O83884   7.712   4.383   8.915
27881WAT     H183885   7.626   4.424   8.944
27881WAT     H283886   7.775   4.378   8.993
27882WAT      O83887   3.973   2.878   5.498
27882WAT     H183888   4.023   2.907   5.579
27882WAT     H283889   3.934   2.787   5.513
27883WAT      O83890   2.966   8.026   1.723
27883WAT     H183891   2.889   8.081   1.692
27883WAT     H283892   3.037   8.086   1.760
27884WAT      O83893   3.781   7.646   2.573
27884WAT     H183894   3.832   7.714   2.625
27884WAT     H283895   3.684   7.669   2.574
27885WAT      O83896   8.562   8.572   7.910
27885WAT     H183897   8.519   8.541   7.825
27885WAT     H283898   8.495   8.624   7.964
27886WAT      O83899   3.921   4.755   9.786
27886WAT     H183900   3.865   4.673   9.799
27886WAT     H283901   3.979   4.768   9.867
27887WAT      O83902   2.466   1.087   3.550
27887WAT     H183903   2.481   0.992   3.524
27887WAT     H283904   2.549   1.125   3.591
27888WAT      O83905   2.521   7.861   8.796
27888WAT     H183906   2.438   7.891   8.749
27888WAT     H283907   2.496   7.801   8.872
27889WAT      O83908   1.936   0.520   9.102
27889WAT     H183909   1.902   0.456   9.034
27889WAT     H283910   2.028   0.494   9.131
27890WAT      O83911   5.141   5.120   3.764
27890WAT     H183912   5.168   5.206   3.808
27890WAT     H283913   5.143   5.047   3.832
27891WAT      O83914   8.281   4.322   5.404
27891WAT     H183915   8.290   4.247   5.470
27891WAT     H283916   8.370   4.365   5.390
27892WAT      O83917   7.671   8.539   2.103
27892WAT     H183918   7.729   8.601   2.050
27892WAT     H283919   7.643   8.463   2.045
27893WAT      O83920   0.928   1.492   4.504
27893WAT     H183921   0.870   1.555   4.452
27893WAT     H283922   1.012   1.538   4.531
27894WAT      O83923   8.273   3.557   9.102
27894WAT     H183924   8.231   3.473   9.135
27894WAT     H283925   8.238   3.577   9.010
27895WAT      O83926   1.024   0.961   2.005
27895WAT     H183927   1.080   1.019   2.063
27895WAT     H283928   0.963   1.017   1.949
27896WAT      O83929   2.833   7.941   1.998
27896WAT     H183930   2.929   7.919   1.984
27896WAT     H283931   2.796   7.986   1.916
27897WAT      O83932   8.377   4.446   3.463
27897WAT     H183933   8.277   4.453   3.469
27897WAT     H283934   8.402   4.400   3.378
27898WAT      O83935   3.630   6.811   1.234
27898WAT     H183936   3.683   6.845   1.156
27898WAT     H283937   3.692   6.796   1.312
27899WAT      O83938   6.163   2.952   8.697
27899WAT     H183939   6.147   3.018   8.624
27899WAT     H283940   6.131   2.988   8.784
27900WAT      O83941   2.810   3.810   8.608
27900WAT     H183942   2.879   3.787   8.677
27900WAT     H283943   2.844   3.787   8.517
27901WAT      O83944   6.899   4.240   9.193
27901WAT     H183945   6.991   4.238   9.234
27901WAT     H283946   6.896   4.311   9.122
27902WAT      O83947   7.059   4.185   1.127
27902WAT     H183948   7.124   4.254   1.158
27902WAT     H283949   7.091   4.094   1.154
27903WAT      O83950   6.017   0.964   6.672
27903WAT     H183951   6.040   1.057   6.643
27903WAT     H283952   5.936   0.932   6.623
27904WAT      O83953   5.045   9.159   7.599
27904WAT     H183954   5.055   9.083   7.535
27904WAT     H283955   5.085   9.134   7.687
27905WAT      O83956   2.450   6.603   9.843
27905WAT     H183957   2.546   6.579   9.829
27905WAT     H283958   2.426   6.681   9.786
27906WAT      O83959   9.661   1.589   3.230
27906WAT     H183960   9.727   1.581   3.155
27906WAT     H283961   9.583   1.643   3.199
27907WAT      O83962   9.446   7.690   0.917
27907WAT     H183963   9.484   7.702   1.009
27907WAT     H283964   9.449   7.778   0.869
27908WAT      O83965   8.837   4.575   3.108
27908WAT     H183966   8.875   4.511   3.041
27908WAT     H283967   8.900   4.584   3.185
27909WAT      O83968   9.880   5.651   1.899
27909WAT     H183969   9.917   5.582   1.837
27909WAT     H283970   9.934   5.734   1.892
27910WAT      O83971   4.162   2.452   0.390
27910WAT     H183972   4.231   2.463   0.461
27910WAT     H283973   4.192   2.497   0.306
27911WAT      O83974   1.666   6.917   1.723
27911WAT     H183975   1.619   6.928   1.810
27911WAT     H283976   1.599   6.920   1.648
27912WAT      O83977   2.291   3.922   0.654
27912WAT     H183978   2.272   3.824   0.659
27912WAT     H283979   2.210   3.969   0.620
27913WAT      O83980   7.813   7.520   9.214
27913WAT     H183981   7.897   7.560   9.176
27913WAT     H283982   7.767   7.587   9.273
27914WAT      O83983   8.006   9.254   3.145
27914WAT     H183984   7.996   9.352   3.159
27914WAT     H283985   8.071   9.237   3.071
27915WAT      O83986   6.364   6.462   4.700
27915WAT     H183987   6.332   6.367   4.702
27915WAT     H283988   6.463   6.464   4.714
27916WAT      O83989   1.437   9.817   1.515
27916WAT     H183990   1.352   9.843   1.470
27916WAT     H283991   1.418   9.797   1.612
27917WAT      O83992   0.669   2.986   0.909
27917WAT     H183993   0.677   2.950   1.002
27917WAT     H283994   0.595   3.053   0.905
27918WAT      O83995   7.006   4.646   5.834
27918WAT     H183996   7.083   4.702   5.803
27918WAT     H283997   6.920   4.689   5.807
27919WAT      O83998   6.320   6.183   7.486
27919WAT     H183999   6.332   6.144   7.577
27919WAT     H284000   6.222   6.195   7.467
27920WAT      O84001   8.531   6.708   7.032
27920WAT     H184002   8.525   6.648   7.112
27920WAT     H284003   8.609   6.770   7.043
27921WAT      O84004   9.321   4.175   8.927
27921WAT     H184005   9.223   4.157   8.942
27921WAT     H284006   9.331   4.247   8.858
27922WAT      O84007   4.164   3.107   6.259
27922WAT     H184008   4.069   3.109   6.227
27922WAT     H284009   4.192   3.013   6.276
27923WAT      O84010   2.516   9.568   4.282
27923WAT     H184011   2.432   9.623   4.282
27923WAT     H284012   2.510   9.500   4.209
27924WAT      O84013   7.058   1.075   5.509
27924WAT     H184014   6.989   1.022   5.459
27924WAT     H284015   7.145   1.026   5.506
27925WAT      O84016   2.190   3.257   0.473
27925WAT     H184017   2.283   3.250   0.508
27925WAT     H284018   2.137   3.320   0.531
27926WAT      O84019   7.467   3.482   6.633
27926WAT     H184020   7.430   3.571   6.659
27926WAT     H284021   7.543   3.458   6.693
27927WAT      O84022   8.623   9.538   7.353
27927WAT     H184023   8.640   9.453   7.403
27927WAT     H284024   8.528   9.567   7.367
27928WAT      O84025   8.667   4.503   7.121
27928WAT     H184026   8.765   4.510   7.099
27928WAT     H284027   8.645   4.408   7.143
27929WAT      O84028   5.921   5.307   4.235
27929WAT     H184029   5.872   5.394   4.247
27929WAT     H284030   5.857   5.237   4.202
27930WAT      O84031   6.644   7.335   3.694
27930WAT     H184032   6.724   7.393   3.681
27930WAT     H284033   6.639   7.268   3.619
27931WAT      O84034   8.009   9.481   4.430
27931WAT     H184035   8.082   9.525   4.379
27931WAT     H284036   8.010   9.383   4.413
27932WAT      O84037   5.872   7.983   6.014
27932WAT     H184038   5.825   7.899   5.986
27932WAT     H284039   5.920   7.968   6.100
27933WAT      O84040   7.433   5.282   7.323
27933WAT     H184041   7.370   5.269   7.400
27933WAT     H284042   7.466   5.376   7.323
27934WAT      O84043   2.981   3.472   0.308
27934WAT     H184044   3.008   3.390   0.359
27934WAT     H284045   2.934   3.536   0.369
27935WAT      O84046   5.881   2.617   8.866
27935WAT     H184047   5.936   2.538   8.895
27935WAT     H284048   5.897   2.634   8.769
27936WAT      O84049   0.230   5.179   3.840
27936WAT     H184050   0.259   5.274   3.831
27936WAT     H284051   0.301   5.119   3.801
27937WAT      O84052   0.565   3.580   4.724
27937WAT     H184053   0.501   3.567   4.799
27937WAT     H284054   0.584   3.677   4.711
27938WAT      O84055   4.495   5.171   9.817
27938WAT     H184056   4.479   5.190   9.720
27938WAT     H284057   4.420   5.208   9.871
27939WAT      O84058   5.323   0.916   1.549
27939WAT     H184059   5.241   0.859   1.557
27939WAT     H284060   5.394   0.882   1.611
27940WAT      O84061   1.601   0.988   0.647
27940WAT     H184062   1.573   1.084   0.652
27940WAT     H284063   1.565   0.948   0.563
27941WAT      O84064   5.316   0.389   2.097
27941WAT     H184065   5.224   0.402   2.059
27941WAT     H284066   5.319   0.304   2.149
27942WAT      O84067   3.340   1.566   5.023
27942WAT     H184068   3.287   1.482   5.018
27942WAT     H284069   3.408   1.568   4.950
27943WAT      O84070   1.685   0.840   9.430
27943WAT     H184071   1.757   0.858   9.497
27943WAT     H284072   1.676   0.742   9.415
27944WAT      O84073   8.557   8.521   3.680
27944WAT     H184074   8.619   8.577   3.624
27944WAT     H284075   8.517   8.577   3.752
27945WAT      O84076   5.304   4.234   8.388
27945WAT     H184077   5.309   4.323   8.433
27945WAT     H284078   5.326   4.244   8.291
27946WAT      O84079   1.808   0.586   3.844
27946WAT     H184080   1.742   0.633   3.902
27946WAT     H284081   1.901   0.613   3.870
27947WAT      O84082   4.116   1.861   6.476
27947WAT     H184083   4.046   1.799   6.512
27947WAT     H284084   4.125   1.940   6.536
27948WAT      O84085   1.139   3.368   5.463
27948WAT     H184086   1.132   3.273   5.494
27948WAT     H284087   1.198   3.419   5.526
27949WAT      O84088   8.739   9.736   7.501
27949WAT     H184089   8.795   9.697   7.574
27949WAT     H284090   8.735   9.672   7.424
27950WAT      O84091   9.204   1.125   1.636
27950WAT     H184092   9.244   1.121   1.545
27950WAT     H284093   9.274   1.102   1.704
27951WAT      O84094   7.813   9.535   3.372
27951WAT     H184095   7.760   9.483   3.304
27951WAT     H284096   7.755   9.607   3.410
27952WAT      O84097   6.795   0.225   2.060
27952WAT     H184098   6.889   0.234   2.029
27952WAT     H284099   6.793   0.169   2.143
27953WAT      O84100   4.742   0.759   3.862
27953WAT     H184101   4.763   0.848   3.821
27953WAT     H284102   4.731   0.771   3.961
27954WAT      O84103   4.616   7.914   3.128
27954WAT     H184104   4.640   7.963   3.044
27954WAT     H284105   4.625   7.815   3.113
27955WAT      O84106   7.485   5.055   5.129
27955WAT     H184107   7.511   4.964   5.159
27955WAT     H284108   7.488   5.060   5.030
27956WAT      O84109   6.578   1.389   4.539
27956WAT     H184110   6.578   1.301   4.586
27956WAT     H284111   6.574   1.374   4.440
27957WAT      O84112   7.361   2.218   8.545
27957WAT     H184113   7.292   2.290   8.542
27957WAT     H284114   7.410   2.223   8.632
27958WAT      O84115   0.391   4.229   3.776
27958WAT     H184116   0.445   4.193   3.700
27958WAT     H284117   0.384   4.328   3.769
27959WAT      O84118   2.679   6.342   8.071
27959WAT     H184119   2.672   6.243   8.080
27959WAT     H284120   2.587   6.382   8.072
27960WAT      O84121   4.083   0.200   0.425
27960WAT     H184122   4.125   0.288   0.406
27960WAT     H284123   4.115   0.133   0.357
27961WAT      O84124   5.993   0.602   4.732
27961WAT     H184125   5.992   0.700   4.713
27961WAT     H284126   6.018   0.586   4.827
27962WAT      O84127   4.141   2.173   6.341
27962WAT     H184128   4.165   2.216   6.254
27962WAT     H284129   4.225   2.139   6.384
27963WAT      O84130   1.224   9.770   0.720
27963WAT     H184131   1.319   9.797   0.705
27963WAT     H284132   1.166   9.811   0.649
27964WAT      O84133   6.079   6.719   9.389
27964WAT     H184134   6.164   6.723   9.337
27964WAT     H284135   6.051   6.812   9.415
27965WAT      O84136   0.593   0.355   9.431
27965WAT     H184137   0.559   0.310   9.349
27965WAT     H284138   0.692   0.368   9.424
27966WAT      O84139   4.215   1.012   1.800
27966WAT     H184140   4.262   1.018   1.888
27966WAT     H284141   4.268   1.060   1.731
27967WAT      O84142   1.330   6.245   9.372
27967WAT     H184143   1.400   6.245   9.444
27967WAT     H284144   1.296   6.152   9.359
27968WAT      O84145   0.509   2.572   4.295
27968WAT     H184146   0.426   2.599   4.248
27968WAT     H284147   0.544   2.649   4.349
27969WAT      O84148   4.336   4.404   2.893
27969WAT     H184149   4.409   4.340   2.917
27969WAT     H284150   4.311   4.457   2.974
27970WAT      O84151   5.258   7.031   1.705
27970WAT     H184152   5.165   7.068   1.717
27970WAT     H284153   5.289   7.051   1.613
27971WAT      O84154   8.317   0.552   3.680
27971WAT     H184155   8.373   0.555   3.597
27971WAT     H284156   8.368   0.593   3.756
27972WAT      O84157   7.700   2.668   0.056
27972WAT     H184158   7.698   2.726   0.137
27972WAT     H284159   7.631   2.596   0.064
27973WAT      O84160   3.246   6.863   8.865
27973WAT     H184161   3.262   6.961   8.868
27973WAT     H284162   3.147   6.846   8.863
27974WAT      O84163   4.472   7.151   8.952
27974WAT     H184164   4.519   7.064   8.937
27974WAT     H284165   4.486   7.181   9.046
27975WAT      O84166   3.216   4.419   3.231
27975WAT     H184167   3.129   4.445   3.274
27975WAT     H284168   3.202   4.341   3.171
27976WAT      O84169   3.742   1.122   3.596
27976WAT     H184170   3.741   1.052   3.668
27976WAT     H284171   3.835   1.134   3.562
27977WAT      O84172   3.272   0.472   1.561
27977WAT     H184173   3.275   0.532   1.641
27977WAT     H284174   3.304   0.381   1.587
27978WAT      O84175   8.825   4.139   5.084
27978WAT     H184176   8.768   4.111   5.161
27978WAT     H284177   8.791   4.096   5.000
27979WAT      O84178   4.033   6.285   9.556
27979WAT     H184179   4.110   6.345   9.534
27979WAT     H284180   4.012   6.292   9.654
27980WAT      O84181   8.451   1.989   6.395
27980WAT     H184182   8.413   1.918   6.336
27980WAT     H284183   8.503   2.055   6.340
27981WAT      O84184   7.064   6.484   7.759
27981WAT     H184185   7.012   6.569   7.755
27981WAT     H284186   7.013   6.416   7.812
27982WAT      O84187   8.236   6.355   0.652
27982WAT     H184188   8.197   6.264   0.666
27982WAT     H284189   8.164   6.424   0.664
27983WAT      O84190   2.918   3.624   7.269
27983WAT     H184191   2.857   3.614   7.190
27983WAT     H284192   3.005   3.663   7.239
27984WAT      O84193   4.698   4.367   8.044
27984WAT     H184194   4.718   4.384   8.141
27984WAT     H284195   4.783   4.371   7.992
27985WAT      O84196   5.086   8.669   6.640
27985WAT     H184197   5.036   8.649   6.724
27985WAT     H284198   5.183   8.648   6.653
27986WAT      O84199   0.809   1.610   8.023
27986WAT     H184200   0.802   1.694   8.076
27986WAT     H284201   0.760   1.537   8.070
27987WAT      O84202   8.759   9.822   9.528
27987WAT     H184203   8.689   9.860   9.589
27987WAT     H284204   8.849   9.858   9.554
27988WAT      O84205   8.648   9.198   5.964
27988WAT     H184206   8.631   9.238   6.054
27988WAT     H284207   8.637   9.268   5.894
27989WAT      O84208   2.163   3.507   0.889
27989WAT     H184209   2.219   3.472   0.965
27989WAT     H284210   2.135   3.430   0.831
27990WAT      O84211   6.570   9.479   5.491
27990WAT     H184212   6.533   9.476   5.398
27990WAT     H284213   6.624   9.562   5.503
27991WAT      O84214   4.320   1.617   4.598
27991WAT     H184215   4.253   1.580   4.532
27991WAT     H284216   4.314   1.717   4.598
27992WAT      O84217   5.661   0.427   5.210
27992WAT     H184218   5.716   0.363   5.263
27992WAT     H284219   5.614   0.378   5.136
27993WAT      O84220   5.513   6.136   9.131
27993WAT     H184221   5.423   6.112   9.095
27993WAT     H284222   5.584   6.112   9.065
27994WAT      O84223   1.900   9.447   6.779
27994WAT     H184224   1.883   9.495   6.693
27994WAT     H284225   1.813   9.433   6.827
27995WAT      O84226   6.902   8.530   3.082
27995WAT     H184227   6.954   8.452   3.117
27995WAT     H284228   6.818   8.498   3.039
27996WAT      O84229   9.211   9.084   8.500
27996WAT     H184230   9.298   9.121   8.466
27996WAT     H284231   9.225   8.990   8.531
27997WAT      O84232   4.179   2.873   2.780
27997WAT     H184233   4.096   2.818   2.773
27997WAT     H284234   4.236   2.858   2.699
27998WAT      O84235   1.595   1.138   4.032
27998WAT     H184236   1.605   1.180   3.942
27998WAT     H284237   1.571   1.041   4.021
27999WAT      O84238   7.007   6.431   0.520
27999WAT     H184239   6.988   6.343   0.563
27999WAT     H284240   6.977   6.505   0.581
28000WAT      O84241   4.013   5.137   6.195
28000WAT     H184242   4.113   5.128   6.205
28000WAT     H284243   3.969   5.117   6.282
28001WAT      O84244   9.242   4.760   7.610
28001WAT     H184245   9.303   4.786   7.685
28001WAT     H284246   9.157   4.811   7.617
28002WAT      O84247   3.403   5.628   4.284
28002WAT     H184248   3.424   5.725   4.298
28002WAT     H284249   3.393   5.584   4.372
28003WAT      O84250   1.028   6.714   0.079
28003WAT     H184251   1.000   6.762   0.162
28003WAT     H284252   0.986   6.758  -0.001
28004WAT      O84253   6.385   2.054   0.332
28004WAT     H184254   6.467   2.079   0.383
28004WAT     H284255   6.350   1.966   0.364
28005WAT      O84256   5.765   9.451   0.649
28005WAT     H184257   5.863   9.468   0.659
28005WAT     H284258   5.714   9.523   0.696
28006WAT      O84259   2.849   2.752   8.103
28006WAT     H184260   2.822   2.660   8.134
28006WAT     H284261   2.918   2.788   8.165
28007WAT      O84262   6.463   9.306   6.860
28007WAT     H184263   6.438   9.386   6.806
28007WAT     H284264   6.392   9.287   6.927
28008WAT      O84265   7.575   7.894   0.257
28008WAT     H184266   7.624   7.890   0.344
28008WAT     H284267   7.480   7.864   0.271
28009WAT      O84268   9.218   0.352   0.502
28009WAT     H184269   9.211   0.324   0.406
28009WAT     H284270   9.281   0.291   0.550
28010WAT      O84271   0.519   6.325   8.035
28010WAT     H184272   0.458   6.336   7.957
28010WAT     H284273   0.595   6.388   8.027
28011WAT      O84274   2.750   9.417   5.497
28011WAT     H184275   2.775   9.437   5.402
28011WAT     H284276   2.687   9.487   5.531
28012WAT      O84277   4.171   6.575   7.069
28012WAT     H184278   4.179   6.512   7.146
28012WAT     H284279   4.119   6.532   6.996
28013WAT      O84280   6.208   1.094   5.439
28013WAT     H184281   6.145   1.128   5.508
28013WAT     H284282   6.163   1.022   5.385
28014WAT      O84283   0.634   7.939   5.487
28014WAT     H184284   0.662   8.002   5.414
28014WAT     H284285   0.612   7.850   5.446
28015WAT      O84286   7.579   5.391   2.597
28015WAT     H184287   7.642   5.337   2.543
28015WAT     H284288   7.497   5.337   2.617
28016WAT      O84289   9.297   0.190   6.395
28016WAT     H184290   9.278   0.122   6.325
28016WAT     H284291   9.372   0.158   6.454
28017WAT      O84292   1.896   1.576   6.773
28017WAT     H184293   1.916   1.615   6.683
28017WAT     H284294   1.980   1.563   6.824
28018WAT      O84295   5.369   6.208   3.080
28018WAT     H184296   5.343   6.226   2.985
28018WAT     H284297   5.314   6.266   3.140
28019WAT      O84298   9.057   2.606   0.174
28019WAT     H184299   9.018   2.691   0.208
28019WAT     H284300   9.020   2.529   0.227
28020WAT      O84301   3.027   4.612   9.576
28020WAT     H184302   2.945   4.611   9.519
28020WAT     H284303   3.109   4.609   9.518
28021WAT      O84304   8.193   7.145   4.669
28021WAT     H184305   8.172   7.152   4.571
28021WAT     H284306   8.203   7.237   4.707
28022WAT      O84307   5.677   0.694   5.220
28022WAT     H184308   5.739   0.716   5.145
28022WAT     H284309   5.676   0.596   5.236
28023WAT      O84310   9.045   7.114   9.399
28023WAT     H184311   8.964   7.103   9.456
28023WAT     H284312   9.126   7.084   9.449
28024WAT      O84313   4.011   5.065   2.974
28024WAT     H184314   4.001   4.966   2.979
28024WAT     H284315   4.057   5.099   3.056
28025WAT      O84316   4.265   9.273   6.356
28025WAT     H184317   4.167   9.282   6.374
28025WAT     H284318   4.286   9.179   6.330
28026WAT      O84319   7.146   9.223   7.745
28026WAT     H184320   7.125   9.254   7.652
28026WAT     H284321   7.103   9.135   7.762
28027WAT      O84322   5.786   6.974   1.210
28027WAT     H184323   5.864   6.978   1.147
28027WAT     H284324   5.758   6.878   1.222
28028WAT      O84325   2.916   6.171   2.336
28028WAT     H184326   2.902   6.074   2.320
28028WAT     H284327   2.991   6.184   2.401
28029WAT      O84328   4.770   7.103   2.426
28029WAT     H184329   4.748   7.007   2.405
28029WAT     H284330   4.863   7.123   2.396
28030WAT      O84331   3.196   1.556   0.903
28030WAT     H184332   3.119   1.499   0.930
28030WAT     H284333   3.255   1.505   0.840
28031WAT      O84334   9.814   6.510   7.076
28031WAT     H184335   9.827   6.413   7.057
28031WAT     H284336   9.811   6.524   7.175
28032WAT      O84337   7.843   5.155   4.819
28032WAT     H184338   7.824   5.253   4.827
28032WAT     H284339   7.908   5.140   4.745
28033WAT      O84340   2.473   1.169   9.845
28033WAT     H184341   2.555   1.195   9.793
28033WAT     H284342   2.496   1.092   9.905
28034WAT      O84343   2.697   9.841   1.639
28034WAT     H184344   2.740   9.901   1.571
28034WAT     H284345   2.647   9.768   1.592
28035WAT      O84346   3.608   2.019   5.279
28035WAT     H184347   3.586   1.949   5.211
28035WAT     H284348   3.650   2.097   5.233
28036WAT      O84349   8.356   3.282   7.113
28036WAT     H184350   8.275   3.251   7.163
28036WAT     H284351   8.379   3.216   7.041
28037WAT      O84352   2.549   0.021   7.495
28037WAT     H184353   2.646   0.000   7.485
28037WAT     H284354   2.535   0.083   7.571
28038WAT      O84355   5.742   6.413   3.116
28038WAT     H184356   5.829   6.427   3.164
28038WAT     H284357   5.686   6.495   3.124
28039WAT      O84358   8.349   3.246   5.020
28039WAT     H184359   8.422   3.295   4.972
28039WAT     H284360   8.388   3.167   5.067
28040WAT      O84361   8.077   3.934   8.219
28040WAT     H184362   8.062   4.030   8.242
28040WAT     H284363   8.105   3.883   8.301
28041WAT      O84364   2.977   9.616   5.996
28041WAT     H184365   2.949   9.594   5.903
28041WAT     H284366   2.908   9.582   6.060
28042WAT      O84367   2.436   0.471   3.488
28042WAT     H184368   2.348   0.484   3.442
28042WAT     H284369   2.433   0.387   3.542
28043WAT      O84370   4.953   7.968   5.807
28043WAT     H184371   4.926   7.947   5.714
28043WAT     H284372   5.019   7.900   5.839
28044WAT      O84373   0.729   5.971   8.072
28044WAT     H184374   0.771   5.982   7.983
28044WAT     H284375   0.800   5.963   8.142
28045WAT      O84376   0.917   3.540   6.243
28045WAT     H184377   0.906   3.590   6.329
28045WAT     H284378   0.957   3.450   6.261
28046WAT      O84379   4.637   5.642   8.490
28046WAT     H184380   4.612   5.652   8.586
28046WAT     H284381   4.708   5.572   8.481
28047WAT      O84382   0.476   2.657   7.925
28047WAT     H184383   0.519   2.670   8.014
28047WAT     H284384   0.545   2.630   7.858
28048WAT      O84385   0.718   3.890   4.328
28048WAT     H184386   0.746   3.947   4.405
28048WAT     H284387   0.791   3.825   4.306
28049WAT      O84388   8.331   6.085   3.034
28049WAT     H184389   8.264   6.137   3.087
28049WAT     H284390   8.359   6.139   2.954
28050WAT      O84391   7.475   3.510   2.632
28050WAT     H184392   7.481   3.478   2.537
28050WAT     H284393   7.424   3.445   2.687
28051WAT      O84394   9.574   1.631   8.699
28051WAT     H184395   9.633   1.554   8.677
28051WAT     H284396   9.626   1.700   8.750
28052WAT      O84397   3.808   6.087   3.097
28052WAT     H184398   3.781   5.992   3.081
28052WAT     H284399   3.897   6.089   3.143
28053WAT      O84400   7.148   3.998   8.467
28053WAT     H184401   7.058   3.976   8.506
28053WAT     H284402   7.219   3.955   8.523
28054WAT      O84403   9.471   7.617   4.995
28054WAT     H184404   9.428   7.528   5.001
28054WAT     H284405   9.404   7.688   5.016
28055WAT      O84406   2.743   0.749   8.617
28055WAT     H184407   2.718   0.737   8.713
28055WAT     H284408   2.786   0.666   8.582
28056WAT      O84409   0.063   6.813   1.875
28056WAT     H184410   0.071   6.857   1.785
28056WAT     H284411   0.069   6.882   1.947
28057WAT      O84412   6.301   3.690   9.459
28057WAT     H184413   6.363   3.614   9.482
28057WAT     H284414   6.226   3.692   9.525
28058WAT      O84415   5.567   4.946   9.566
28058WAT     H184416   5.495   4.963   9.499
28058WAT     H284417   5.599   4.851   9.557
28059WAT      O84418   7.713   5.033   4.391
28059WAT     H184419   7.749   5.013   4.300
28059WAT     H284420   7.657   4.956   4.423
28060WAT      O84421   2.417   5.840   1.975
28060WAT     H184422   2.479   5.904   2.021
28060WAT     H284423   2.471   5.770   1.927
28061WAT      O84424   7.976   7.364   8.420
28061WAT     H184425   8.045   7.313   8.472
28061WAT     H284426   7.900   7.387   8.481
28062WAT      O84427   8.003   7.364   3.765
28062WAT     H184428   8.029   7.458   3.745
28062WAT     H284429   8.080   7.316   3.808
28063WAT      O84430   0.078   3.396   1.610
28063WAT     H184431   0.117   3.327   1.671
28063WAT     H284432   0.073   3.360   1.517
28064WAT      O84433   5.305   4.179   4.290
28064WAT     H184434   5.226   4.240   4.291
28064WAT     H284435   5.298   4.114   4.365
28065WAT      O84436   5.457   5.879   3.710
28065WAT     H184437   5.480   5.793   3.664
28065WAT     H284438   5.532   5.944   3.699
28066WAT      O84439   1.657   8.531   2.134
28066WAT     H184440   1.626   8.496   2.222
28066WAT     H284441   1.751   8.564   2.142
28067WAT      O84442   3.614   4.123   4.670
28067WAT     H184443   3.713   4.129   4.657
28067WAT     H284444   3.569   4.123   4.581
28068WAT      O84445   1.078   5.309   8.409
28068WAT     H184446   1.145   5.241   8.440
28068WAT     H284447   1.004   5.315   8.476
28069WAT      O84448   6.352   7.553   6.825
28069WAT     H184449   6.328   7.609   6.905
28069WAT     H284450   6.393   7.611   6.755
28070WAT      O84451   7.416   8.955   0.424
28070WAT     H184452   7.492   8.980   0.364
28070WAT     H284453   7.330   8.962   0.374
28071WAT      O84454   2.699   8.374   4.466
28071WAT     H184455   2.748   8.456   4.495
28071WAT     H284456   2.628   8.399   4.399
28072WAT      O84457   1.940   1.923   7.956
28072WAT     H184458   1.925   2.017   7.927
28072WAT     H284459   1.935   1.917   8.056
28073WAT      O84460   1.174   9.013   0.206
28073WAT     H184461   1.187   9.036   0.110
28073WAT     H284462   1.109   9.077   0.247
28074WAT      O84463   7.519   4.909   6.068
28074WAT     H184464   7.536   4.991   6.013
28074WAT     H284465   7.483   4.935   6.157
28075WAT      O84466   5.130   7.142   3.435
28075WAT     H184467   5.119   7.237   3.465
28075WAT     H284468   5.227   7.119   3.432
28076WAT      O84469   0.064   9.233   3.086
28076WAT     H184470   0.055   9.279   2.998
28076WAT     H284471   0.156   9.250   3.123
28077WAT      O84472   1.684   8.461   4.742
28077WAT     H184473   1.692   8.364   4.762
28077WAT     H284474   1.774   8.498   4.718
28078WAT      O84475   7.473   8.016   9.798
28078WAT     H184476   7.534   8.089   9.826
28078WAT     H284477   7.384   8.028   9.842
28079WAT      O84478   8.380   2.557   0.642
28079WAT     H184479   8.336   2.617   0.709
28079WAT     H284480   8.340   2.571   0.552
28080WAT      O84481   4.259   7.131   9.568
28080WAT     H184482   4.323   7.202   9.598
28080WAT     H284483   4.176   7.135   9.623
28081WAT      O84484   9.450   9.133   8.394
28081WAT     H184485   9.481   9.225   8.368
28081WAT     H284486   9.473   9.068   8.322
28082WAT      O84487   3.753   4.365   5.036
28082WAT     H184488   3.752   4.272   5.074
28082WAT     H284489   3.676   4.417   5.074
28083WAT      O84490   2.513   3.133   7.890
28083WAT     H184491   2.519   3.210   7.953
28083WAT     H284492   2.601   3.120   7.845
28084WAT      O84493   8.706   1.611   3.426
28084WAT     H184494   8.608   1.617   3.443
28084WAT     H284495   8.735   1.688   3.370
28085WAT      O84496   6.066   6.790   5.437
28085WAT     H184497   6.003   6.727   5.481
28085WAT     H284498   6.019   6.839   5.363
28086WAT      O84499   2.451   6.828   6.946
28086WAT     H184500   2.544   6.866   6.943
28086WAT     H284501   2.427   6.791   6.857
28087WAT      O84502   3.638   7.966   9.166
28087WAT     H184503   3.600   7.912   9.092
28087WAT     H284504   3.736   7.981   9.150
28088WAT      O84505   5.224   3.960   2.505
28088WAT     H184506   5.179   3.944   2.417
28088WAT     H284507   5.264   4.052   2.505
28089WAT      O84508   2.058   9.505   9.359
28089WAT     H184509   2.043   9.478   9.454
28089WAT     H284510   2.144   9.464   9.327
28090WAT      O84511   6.422   0.707   1.760
28090WAT     H184512   6.411   0.615   1.797
28090WAT     H284513   6.336   0.757   1.770
28091WAT      O84514   8.769   2.702   6.041
28091WAT     H184515   8.756   2.619   6.094
28091WAT     H284516   8.689   2.718   5.983
28092WAT      O84517   9.535   8.553   9.074
28092WAT     H184518   9.437   8.542   9.090
28092WAT     H284519   9.550   8.576   8.978
28093WAT      O84520   0.251   0.608   0.564
28093WAT     H184521   0.237   0.513   0.592
28093WAT     H284522   0.166   0.660   0.579
28094WAT      O84523   1.258   5.383   0.684
28094WAT     H184524   1.349   5.394   0.644
28094WAT     H284525   1.233   5.467   0.733
28095WAT      O84526   3.862   7.419   4.785
28095WAT     H184527   3.888   7.394   4.878
28095WAT     H284528   3.944   7.445   4.733
28096WAT      O84529   2.721   4.134   3.874
28096WAT     H184530   2.757   4.046   3.843
28096WAT     H284531   2.766   4.208   3.824
28097WAT      O84532   3.102   5.071   8.032
28097WAT     H184533   3.065   4.982   8.006
28097WAT     H284534   3.057   5.103   8.115
28098WAT      O84535   3.355   8.091   5.413
28098WAT     H184536   3.281   8.025   5.399
28098WAT     H284537   3.396   8.075   5.503
28099WAT      O84538   2.556   2.133   6.205
28099WAT     H184539   2.617   2.056   6.222
28099WAT     H284540   2.606   2.219   6.219
28100WAT      O84541   7.573   7.247   4.985
28100WAT     H184542   7.517   7.325   5.012
28100WAT     H284543   7.523   7.163   5.003
28101WAT      O84544   8.034   1.336   5.491
28101WAT     H184545   8.119   1.359   5.443
28101WAT     H284546   7.984   1.268   5.438
28102WAT      O84547   7.748   8.016   2.558
28102WAT     H184548   7.701   8.101   2.530
28102WAT     H284549   7.777   8.024   2.653
28103WAT      O84550   1.080   5.830   5.156
28103WAT     H184551   1.101   5.767   5.231
28103WAT     H284552   0.988   5.868   5.168
28104WAT      O84553   8.480   4.458   5.910
28104WAT     H184554   8.562   4.454   5.854
28104WAT     H284555   8.441   4.366   5.919
28105WAT      O84556   8.982   0.209   5.165
28105WAT     H184557   9.007   0.237   5.257
28105WAT     H284558   8.992   0.110   5.156
28106WAT      O84559   8.849   7.850   1.611
28106WAT     H184560   8.928   7.883   1.663
28106WAT     H284561   8.875   7.838   1.515
28107WAT      O84562   5.150   8.994   5.670
28107WAT     H184563   5.162   8.903   5.710
28107WAT     H284564   5.232   9.018   5.619
28108WAT      O84565   1.139   0.175   0.285
28108WAT     H184566   1.060   0.184   0.225
28108WAT     H284567   1.141   0.251   0.350
28109WAT      O84568   1.918   4.048   5.765
28109WAT     H184569   1.972   4.092   5.837
28109WAT     H284570   1.909   4.111   5.688
28110WAT      O84571   0.201   2.564   3.339
28110WAT     H184572   0.291   2.547   3.378
28110WAT     H284573   0.134   2.578   3.412
28111WAT      O84574   2.076   3.900   1.770
28111WAT     H184575   2.170   3.932   1.757
28111WAT     H284576   2.077   3.802   1.791
28112WAT      O84577   4.327   2.657   8.383
28112WAT     H184578   4.425   2.650   8.363
28112WAT     H284579   4.280   2.700   8.306
28113WAT      O84580   5.181   7.790   2.218
28113WAT     H184581   5.127   7.856   2.271
28113WAT     H284582   5.273   7.784   2.255
28114WAT      O84583   9.247   9.105   4.713
28114WAT     H184584   9.331   9.109   4.768
28114WAT     H284585   9.226   9.196   4.677
28115WAT      O84586   2.817   3.326   9.849
28115WAT     H184587   2.776   3.417   9.851
28115WAT     H284588   2.746   3.257   9.857
28116WAT      O84589   5.373   9.221   3.637
28116WAT     H184590   5.393   9.260   3.727
28116WAT     H284591   5.284   9.176   3.638
28117WAT      O84592   5.399   6.485   6.509
28117WAT     H184593   5.428   6.441   6.594
28117WAT     H284594   5.468   6.550   6.479
28118WAT      O84595   0.980   6.076   1.736
28118WAT     H184596   1.031   6.032   1.661
28118WAT     H284597   1.041   6.137   1.786
28119WAT      O84598   2.555   0.996   6.170
28119WAT     H184599   2.623   1.065   6.197
28119WAT     H284600   2.532   1.009   6.074
28120WAT      O84601   3.403   1.138   3.552
28120WAT     H184602   3.388   1.157   3.649
28120WAT     H284603   3.497   1.109   3.538
28121WAT      O84604   4.158   8.570   3.383
28121WAT     H184605   4.121   8.610   3.467
28121WAT     H284606   4.247   8.530   3.402
28122WAT      O84607   6.668   4.025   2.618
28122WAT     H184608   6.568   4.018   2.618
28122WAT     H284609   6.698   4.066   2.705
28123WAT      O84610   8.799   8.678   2.580
28123WAT     H184611   8.782   8.637   2.490
28123WAT     H284612   8.714   8.679   2.633
28124WAT      O84613   4.653   0.677   7.926
28124WAT     H184614   4.675   0.604   7.990
28124WAT     H284615   4.567   0.721   7.953
28125WAT      O84616   5.563   4.249   8.663
28125WAT     H184617   5.563   4.167   8.605
28125WAT     H284618   5.629   4.315   8.627
28126WAT      O84619   3.491   2.770   4.812
28126WAT     H184620   3.458   2.842   4.752
28126WAT     H284621   3.524   2.811   4.897
28127WAT      O84622   7.496   2.339   8.309
28127WAT     H184623   7.492   2.285   8.393
28127WAT     H284624   7.407   2.335   8.262
28128WAT      O84625   7.474   0.160   1.030
28128WAT     H184626   7.527   0.241   1.006
28128WAT     H284627   7.383   0.188   1.060
28129WAT      O84628   9.011   7.180   1.065
28129WAT     H184629   8.938   7.118   1.094
28129WAT     H284630   8.985   7.226   0.980
28130WAT      O84631   4.602   8.225   0.275
28130WAT     H184632   4.702   8.227   0.273
28130WAT     H284633   4.568   8.301   0.329
28131WAT      O84634   5.741   7.542   3.825
28131WAT     H184635   5.651   7.571   3.791
28131WAT     H284636   5.740   7.443   3.840
28132WAT      O84637   4.713   2.519   4.140
28132WAT     H184638   4.667   2.558   4.060
28132WAT     H284639   4.790   2.577   4.166
28133WAT      O84640   9.486   0.632   7.675
28133WAT     H184641   9.570   0.677   7.643
28133WAT     H284642   9.492   0.534   7.655
28134WAT      O84643   9.679   8.814   0.570
28134WAT     H184644   9.721   8.770   0.649
28134WAT     H284645   9.638   8.901   0.598
28135WAT      O84646   9.155   9.484   3.560
28135WAT     H184647   9.122   9.555   3.498
28135WAT     H284648   9.219   9.524   3.625
28136WAT      O84649   3.438   3.705   6.926
28136WAT     H184650   3.375   3.694   6.849
28136WAT     H284651   3.468   3.800   6.932
28137WAT      O84652   4.984   1.216   2.880
28137WAT     H184653   4.900   1.246   2.924
28137WAT     H284654   5.058   1.279   2.903
28138WAT      O84655   6.397   4.600   5.718
28138WAT     H184656   6.393   4.691   5.677
28138WAT     H284657   6.474   4.550   5.680
28139WAT      O84658   5.829   1.694   4.076
28139WAT     H184659   5.808   1.729   3.985
28139WAT     H284660   5.853   1.770   4.137
28140WAT      O84661   3.085   9.165   9.069
28140WAT     H184662   3.019   9.096   9.040
28140WAT     H284663   3.166   9.160   9.011
28141WAT      O84664   2.217   1.454   7.665
28141WAT     H184665   2.197   1.545   7.702
28141WAT     H284666   2.268   1.401   7.732
28142WAT      O84667   8.745   3.594   1.467
28142WAT     H184668   8.765   3.522   1.401
28142WAT     H284669   8.746   3.556   1.560
28143WAT      O84670   5.089   4.019   3.645
28143WAT     H184671   5.117   4.047   3.553
28143WAT     H284672   5.046   4.097   3.691
28144WAT      O84673   2.623   6.305   1.785
28144WAT     H184674   2.696   6.372   1.775
28144WAT     H284675   2.652   6.218   1.746
28145WAT      O84676   2.700   1.870   6.843
28145WAT     H184677   2.663   1.921   6.921
28145WAT     H284678   2.751   1.932   6.784
28146WAT      O84679   2.673   9.053   6.021
28146WAT     H184680   2.720   9.140   6.005
28146WAT     H284681   2.603   9.041   5.951
28147WAT      O84682   1.909   0.944   8.020
28147WAT     H184683   1.851   0.939   7.938
28147WAT     H284684   1.960   1.029   8.020
28148WAT      O84685   7.602   6.907   1.674
28148WAT     H184686   7.700   6.928   1.674
28148WAT     H284687   7.588   6.810   1.696
28149WAT      O84688   7.435   0.631   1.587
28149WAT     H184689   7.392   0.718   1.564
28149WAT     H284690   7.420   0.566   1.513
28150WAT      O84691   0.550   6.305   3.453
28150WAT     H184692   0.543   6.207   3.472
28150WAT     H284693   0.576   6.353   3.537
28151WAT      O84694   3.847   3.121   1.787
28151WAT     H184695   3.867   3.042   1.844
28151WAT     H284696   3.931   3.173   1.770
28152WAT      O84697   8.233   3.732   5.458
28152WAT     H184698   8.178   3.684   5.390
28152WAT     H284699   8.245   3.674   5.538
28153WAT      O84700   2.888   3.561   6.248
28153WAT     H184701   2.814   3.527   6.305
28153WAT     H284702   2.890   3.661   6.251
28154WAT      O84703   1.656   9.418   8.270
28154WAT     H184704   1.644   9.508   8.310
28154WAT     H284705   1.567   9.376   8.255
28155WAT      O84706   3.295   2.018   0.228
28155WAT     H184707   3.276   2.105   0.273
28155WAT     H284708   3.278   1.943   0.292
28156WAT      O84709   2.771   5.342   5.628
28156WAT     H184710   2.759   5.357   5.529
28156WAT     H284711   2.731   5.418   5.678
28157WAT      O84712   6.255   0.298   8.649
28157WAT     H184713   6.344   0.261   8.623
28157WAT     H284714   6.183   0.242   8.609
28158WAT      O84715   2.167   8.796   0.650
28158WAT     H184716   2.106   8.802   0.571
28158WAT     H284717   2.261   8.782   0.619
28159WAT      O84718   0.838   0.391   0.775
28159WAT     H184719   0.876   0.300   0.760
28159WAT     H284720   0.867   0.425   0.864
28160WAT      O84721   0.682   9.531   3.519
28160WAT     H184722   0.601   9.525   3.461
28160WAT     H284723   0.677   9.614   3.575
28161WAT      O84724   3.670   5.354   6.043
28161WAT     H184725   3.764   5.366   6.073
28161WAT     H284726   3.652   5.417   5.967
28162WAT      O84727   3.721   8.700   1.266
28162WAT     H184728   3.689   8.670   1.356
28162WAT     H284729   3.643   8.707   1.204
28163WAT      O84730   3.465   4.837   1.821
28163WAT     H184731   3.431   4.805   1.909
28163WAT     H284732   3.558   4.805   1.807
28164WAT      O84733   3.396   0.714   8.849
28164WAT     H184734   3.428   0.750   8.936
28164WAT     H284735   3.475   0.689   8.792
28165WAT      O84736   5.684   0.474   4.112
28165WAT     H184737   5.618   0.409   4.150
28165WAT     H284738   5.697   0.549   4.177
28166WAT      O84739   6.914   8.906   8.669
28166WAT     H184740   6.996   8.959   8.646
28166WAT     H284741   6.885   8.929   8.762
28167WAT      O84742   0.687   4.239   5.216
28167WAT     H184743   0.698   4.335   5.241
28167WAT     H284744   0.724   4.181   5.288
28168WAT      O84745   5.124   0.907   0.530
28168WAT     H184746   5.156   0.824   0.484
28168WAT     H284747   5.126   0.983   0.465
28169WAT      O84748   8.399   7.488   4.558
28169WAT     H184749   8.496   7.483   4.537
28169WAT     H284750   8.350   7.531   4.482
28170WAT      O84751   1.561   4.273   4.015
28170WAT     H184752   1.590   4.342   4.081
28170WAT     H284753   1.535   4.189   4.063
28171WAT      O84754   1.666   6.531   1.623
28171WAT     H184755   1.759   6.538   1.658
28171WAT     H284756   1.659   6.579   1.535
28172WAT      O84757   6.917   9.062   7.385
28172WAT     H184758   6.846   9.033   7.321
28172WAT     H284759   6.934   8.988   7.451
28173WAT      O84760   1.860   6.638   6.409
28173WAT     H184761   1.878   6.727   6.368
28173WAT     H284762   1.854   6.648   6.509
28174WAT      O84763   5.365   9.763   4.474
28174WAT     H184764   5.302   9.810   4.537
28174WAT     H284765   5.420   9.698   4.526
28175WAT      O84766   5.836   1.264   0.298
28175WAT     H184767   5.856   1.173   0.264
28175WAT     H284768   5.806   1.258   0.394
28176WAT      O84769   5.025   8.337   7.598
28176WAT     H184770   4.974   8.339   7.512
28176WAT     H284771   5.069   8.248   7.609
28177WAT      O84772   0.825   9.609   7.180
28177WAT     H184773   0.878   9.682   7.225
28177WAT     H284774   0.869   9.521   7.196
28178WAT      O84775   2.874   4.303   7.406
28178WAT     H184776   2.910   4.210   7.412
28178WAT     H284777   2.817   4.312   7.325
28179WAT      O84778   8.295   1.392   0.933
28179WAT     H184779   8.270   1.386   1.029
28179WAT     H284780   8.326   1.302   0.901
28180WAT      O84781   8.767   9.353   4.677
28180WAT     H184782   8.808   9.429   4.626
28180WAT     H284783   8.718   9.293   4.614
28181WAT      O84784   8.685   5.507   2.326
28181WAT     H184785   8.736   5.590   2.300
28181WAT     H284786   8.594   5.533   2.358
28182WAT      O84787   9.028   7.280   2.721
28182WAT     H184788   9.117   7.243   2.697
28182WAT     H284789   9.022   7.294   2.819
28183WAT      O84790   8.559   0.576   6.881
28183WAT     H184791   8.514   0.602   6.966
28183WAT     H284792   8.490   0.567   6.809
28184WAT      O84793   4.488   6.668   2.426
28184WAT     H184794   4.412   6.664   2.491
28184WAT     H284795   4.461   6.626   2.340
28185WAT      O84796   8.249   6.900   9.080
28185WAT     H184797   8.193   6.819   9.065
28185WAT     H284798   8.337   6.873   9.120
28186WAT      O84799   8.345   0.937   9.789
28186WAT     H184800   8.359   1.036   9.799
28186WAT     H284801   8.382   0.907   9.702
28187WAT      O84802   2.072   2.129   2.051
28187WAT     H184803   1.988   2.181   2.070
28187WAT     H284804   2.091   2.067   2.127
28188WAT      O84805   5.667   9.082   7.423
28188WAT     H184806   5.663   9.084   7.523
28188WAT     H284807   5.593   9.139   7.386
28189WAT      O84808   3.406   4.369   5.764
28189WAT     H184809   3.401   4.399   5.859
28189WAT     H284810   3.427   4.448   5.705
28190WAT      O84811   4.596   7.174   3.500
28190WAT     H184812   4.686   7.151   3.462
28190WAT     H284813   4.601   7.263   3.545
28191WAT      O84814   7.837   0.275   8.440
28191WAT     H184815   7.805   0.183   8.419
28191WAT     H284816   7.771   0.342   8.406
28192WAT      O84817   8.008   3.678   1.493
28192WAT     H184818   7.917   3.642   1.471
28192WAT     H284819   8.073   3.647   1.424
28193WAT      O84820   8.575   5.525   4.927
28193WAT     H184821   8.507   5.577   4.978
28193WAT     H284822   8.661   5.577   4.924
28194WAT      O84823   2.743   1.596   6.912
28194WAT     H184824   2.680   1.564   6.982
28194WAT     H284825   2.714   1.686   6.879
28195WAT      O84826   7.821   2.588   8.916
28195WAT     H184827   7.725   2.618   8.921
28195WAT     H284828   7.879   2.656   8.961
28196WAT      O84829   9.265   8.861   0.895
28196WAT     H184830   9.347   8.804   0.901
28196WAT     H284831   9.253   8.893   0.801
28197WAT      O84832   0.658   5.103   6.738
28197WAT     H184833   0.583   5.036   6.738
28197WAT     H284834   0.644   5.167   6.814
28198WAT      O84835   4.444   1.936   2.325
28198WAT     H184836   4.412   2.010   2.384
28198WAT     H284837   4.510   1.879   2.374
28199WAT      O84838   4.804   4.112   7.279
28199WAT     H184839   4.810   4.202   7.235
28199WAT     H284840   4.884   4.058   7.255
28200WAT      O84841   5.452   4.273   8.146
28200WAT     H184842   5.424   4.354   8.094
28200WAT     H284843   5.542   4.288   8.185
28201WAT      O84844   1.130   7.076   9.473
28201WAT     H184845   1.065   7.148   9.497
28201WAT     H284846   1.185   7.106   9.395
28202WAT      O84847   1.452   8.789   7.946
28202WAT     H184848   1.388   8.781   8.022
28202WAT     H284849   1.546   8.784   7.981
28203WAT      O84850   4.760   4.671   1.827
28203WAT     H184851   4.803   4.733   1.892
28203WAT     H284852   4.812   4.671   1.741
28204WAT      O84853   0.854   4.345   2.835
28204WAT     H184854   0.914   4.425   2.829
28204WAT     H284855   0.890   4.281   2.903
28205WAT      O84856   9.095   0.867   5.885
28205WAT     H184857   9.069   0.895   5.792
28205WAT     H284858   9.162   0.931   5.921
28206WAT      O84859   2.821   6.255   7.696
28206WAT     H184860   2.897   6.289   7.751
28206WAT     H284861   2.843   6.164   7.661
28207WAT      O84862   8.937   9.617   0.754
28207WAT     H184863   8.871   9.544   0.768
28207WAT     H284864   8.891   9.706   0.761
28208WAT      O84865   8.699   5.634   6.360
28208WAT     H184866   8.770   5.566   6.373
28208WAT     H284867   8.611   5.588   6.343
28209WAT      O84868   5.404   4.274   1.250
28209WAT     H184869   5.478   4.207   1.258
28209WAT     H284870   5.439   4.365   1.270
28210WAT      O84871   4.850   4.627   0.986
28210WAT     H184872   4.931   4.684   0.970
28210WAT     H284873   4.771   4.686   1.002
28211WAT      O84874   2.179   2.156   9.547
28211WAT     H184875   2.090   2.140   9.590
28211WAT     H284876   2.227   2.228   9.596
28212WAT      O84877   9.138   3.270   8.979
28212WAT     H184878   9.141   3.282   8.880
28212WAT     H284879   9.230   3.252   9.014
28213WAT      O84880   5.464   6.809   7.520
28213WAT     H184881   5.403   6.827   7.443
28213WAT     H284882   5.547   6.765   7.487
28214WAT      O84883   0.284   7.773   8.344
28214WAT     H184884   0.350   7.839   8.380
28214WAT     H284885   0.252   7.714   8.418
28215WAT      O84886   8.217   2.837   9.783
28215WAT     H184887   8.192   2.795   9.696
28215WAT     H284888   8.211   2.770   9.857
28216WAT      O84889   0.947   3.166   9.676
28216WAT     H184890   0.855   3.157   9.636
28216WAT     H284891   1.010   3.198   9.605
28217WAT      O84892   1.725   6.411   1.243
28217WAT     H184893   1.717   6.511   1.248
28217WAT     H284894   1.634   6.371   1.237
28218WAT      O84895   5.077   3.128   7.558
28218WAT     H184896   5.135   3.046   7.556
28218WAT     H284897   5.113   3.193   7.625
28219WAT      O84898   3.228   1.914   3.314
28219WAT     H184899   3.271   1.928   3.403
28219WAT     H284900   3.162   1.839   3.320
28220WAT      O84901   8.454   7.387   0.823
28220WAT     H184902   8.377   7.449   0.807
28220WAT     H284903   8.419   7.298   0.852
28221WAT      O84904   2.931   1.911   3.987
28221WAT     H184905   2.982   1.827   3.965
28221WAT     H284906   2.976   1.958   4.062
28222WAT      O84907   1.811   2.839   3.806
28222WAT     H184908   1.729   2.868   3.757
28222WAT     H284909   1.786   2.783   3.884
28223WAT      O84910   9.017   4.222   3.922
28223WAT     H184911   8.984   4.259   3.835
28223WAT     H284912   8.967   4.265   3.997
28224WAT      O84913   5.458   0.560   6.128
28224WAT     H184914   5.407   0.488   6.080
28224WAT     H284915   5.421   0.649   6.103
28225WAT      O84916   2.042   8.416   0.484
28225WAT     H184917   2.142   8.417   0.484
28225WAT     H284918   2.009   8.330   0.443
28226WAT      O84919   5.310   8.316   9.278
28226WAT     H184920   5.295   8.220   9.303
28226WAT     H284921   5.229   8.369   9.301
28227WAT      O84922   8.886   8.574   1.747
28227WAT     H184923   8.795   8.609   1.724
28227WAT     H284924   8.883   8.474   1.756
28228WAT      O84925   9.754   4.445   8.042
28228WAT     H184926   9.659   4.415   8.029
28228WAT     H284927   9.754   4.538   8.078
28229WAT      O84928   2.248   3.940   8.415
28229WAT     H184929   2.345   3.950   8.390
28229WAT     H284930   2.226   4.005   8.488
28230WAT      O84931   0.299   2.170   7.132
28230WAT     H184932   0.318   2.268   7.121
28230WAT     H284933   0.245   2.138   7.054
28231WAT      O84934   5.429   9.132   3.367
28231WAT     H184935   5.486   9.196   3.316
28231WAT     H284936   5.420   9.163   3.461
28232WAT      O84937   6.120   3.356   4.627
28232WAT     H184938   6.189   3.297   4.585
28232WAT     H284939   6.110   3.332   4.724
28233WAT      O84940   5.151   4.240   1.164
28233WAT     H184941   5.246   4.251   1.190
28233WAT     H284942   5.115   4.328   1.132
28234WAT      O84943   4.720   2.163   0.174
28234WAT     H184944   4.673   2.091   0.122
28234WAT     H284945   4.804   2.189   0.126
28235WAT      O84946   9.421   2.084   1.108
28235WAT     H184947   9.497   2.124   1.056
28235WAT     H284948   9.334   2.121   1.074
28236WAT      O84949   9.383   1.074   1.842
28236WAT     H184950   9.474   1.090   1.806
28236WAT     H284951   9.390   1.026   1.930
28237WAT      O84952   1.414   0.955   6.862
28237WAT     H184953   1.321   0.991   6.861
28237WAT     H284954   1.478   1.028   6.885
28238WAT      O84955   1.417   6.436   8.038
28238WAT     H184956   1.412   6.405   7.943
28238WAT     H284957   1.417   6.536   8.041
28239WAT      O84958   9.092   4.207   7.592
28239WAT     H184959   9.012   4.232   7.646
28239WAT     H284960   9.175   4.224   7.644
28240WAT      O84961   8.740   2.341   3.936
28240WAT     H184962   8.821   2.356   3.993
28240WAT     H284963   8.683   2.270   3.976
28241WAT      O84964   0.954   4.186   1.847
28241WAT     H184965   0.952   4.284   1.824
28241WAT     H284966   1.002   4.174   1.934
28242WAT      O84967   6.820   1.406   8.064
28242WAT     H184968   6.895   1.438   8.006
28242WAT     H284969   6.834   1.440   8.158
28243WAT      O84970   3.733   0.709   7.538
28243WAT     H184971   3.774   0.660   7.615
28243WAT     H284972   3.633   0.708   7.546
28244WAT      O84973   5.980   7.560   6.376
28244WAT     H184974   5.970   7.648   6.331
28244WAT     H284975   5.913   7.552   6.450
28245WAT      O84976   2.165   0.821   7.368
28245WAT     H184977   2.114   0.878   7.432
28245WAT     H284978   2.250   0.791   7.411
28246WAT      O84979   0.451   6.783   9.483
28246WAT     H184980   0.418   6.855   9.422
28246WAT     H284981   0.551   6.786   9.488
28247WAT      O84982   9.116   9.260   7.111
28247WAT     H184983   9.143   9.255   7.015
28247WAT     H284984   9.093   9.355   7.134
28248WAT      O84985   7.338   6.388   5.052
28248WAT     H184986   7.309   6.343   5.136
28248WAT     H284987   7.409   6.333   5.007
28249WAT      O84988   0.754   0.720   6.122
28249WAT     H184989   0.838   0.671   6.100
28249WAT     H284990   0.676   0.658   6.118
28250WAT      O84991   5.703   1.184   0.538
28250WAT     H184992   5.729   1.222   0.627
28250WAT     H284993   5.708   1.084   0.541
28251WAT      O84994   0.265   8.498   5.047
28251WAT     H184995   0.265   8.498   4.947
28251WAT     H284996   0.170   8.500   5.081
28252WAT      O84997   0.611   7.341   2.616
28252WAT     H184998   0.513   7.332   2.601
28252WAT     H284999   0.655   7.369   2.531
28253WAT      O85000   6.420   5.284   1.289
28253WAT     H185001   6.323   5.265   1.296
28253WAT     H285002   6.472   5.206   1.325
28254WAT      O85003   4.359   0.526   7.932
28254WAT     H185004   4.374   0.452   7.866
28254WAT     H285005   4.369   0.491   8.025
28255WAT      O85006   7.188   0.178   6.872
28255WAT     H185007   7.182   0.277   6.857
28255WAT     H285008   7.136   0.154   6.954
28256WAT      O85009   4.177   5.550   8.269
28256WAT     H185010   4.151   5.596   8.184
28256WAT     H285011   4.250   5.602   8.313
28257WAT      O85012   7.095   4.894   1.229
28257WAT     H185013   7.064   4.806   1.264
28257WAT     H285014   7.194   4.903   1.243
28258WAT      O85015   9.647   5.644   3.299
28258WAT     H185016   9.614   5.563   3.348
28258WAT     H285017   9.578   5.716   3.303
28259WAT      O85018   7.378   4.230   2.305
28259WAT     H185019   7.330   4.242   2.217
28259WAT     H285020   7.311   4.210   2.377
28260WAT      O85021   3.811   9.432   4.506
28260WAT     H185022   3.790   9.355   4.445
28260WAT     H285023   3.796   9.518   4.457
28261WAT      O85024   7.764   4.417   7.523
28261WAT     H185025   7.785   4.491   7.586
28261WAT     H285026   7.725   4.340   7.574
28262WAT      O85027   4.339   6.240   7.258
28262WAT     H185028   4.327   6.213   7.354
28262WAT     H285029   4.288   6.177   7.200
28263WAT      O85030   0.671   4.863   4.573
28263WAT     H185031   0.634   4.806   4.499
28263WAT     H285032   0.720   4.804   4.637
28264WAT      O85033   6.606   3.971   7.520
28264WAT     H185034   6.632   4.034   7.447
28264WAT     H285035   6.671   3.895   7.523
28265WAT      O85036   9.520   0.795   1.896
28265WAT     H185037   9.539   0.699   1.877
28265WAT     H285038   9.475   0.837   1.816
28266WAT      O85039   7.972   0.276   0.251
28266WAT     H185040   8.049   0.302   0.310
28266WAT     H285041   7.998   0.287   0.155
28267WAT      O85042   4.070   4.091   3.377
28267WAT     H185043   4.127   4.147   3.438
28267WAT     H285044   4.078   4.126   3.283
28268WAT      O85045   6.812   3.890   5.155
28268WAT     H185046   6.909   3.912   5.165
28268WAT     H285047   6.762   3.971   5.125
28269WAT      O85048   4.772   6.612   3.814
28269WAT     H185049   4.830   6.578   3.889
28269WAT     H285050   4.801   6.569   3.728
28270WAT      O85051   3.116   6.058   2.910
28270WAT     H185052   3.028   6.025   2.876
28270WAT     H285053   3.153   6.126   2.846
28271WAT      O85054   9.052   4.867   8.811
28271WAT     H185055   9.121   4.869   8.884
28271WAT     H285056   9.026   4.960   8.788
28272WAT      O85057   3.272   2.270   8.632
28272WAT     H185058   3.317   2.295   8.718
28272WAT     H285059   3.302   2.180   8.603
28273WAT      O85060   1.545   6.917   2.873
28273WAT     H185061   1.569   6.829   2.831
28273WAT     H285062   1.569   6.991   2.810
28274WAT      O85063   9.507   3.568   7.229
28274WAT     H185064   9.483   3.601   7.321
28274WAT     H285065   9.443   3.605   7.162
28275WAT      O85066   4.370   5.367   0.418
28275WAT     H185067   4.367   5.424   0.501
28275WAT     H285068   4.424   5.414   0.348
28276WAT      O85069   5.493   8.938   8.386
28276WAT     H185070   5.405   8.918   8.428
28276WAT     H285071   5.492   8.909   8.290
28277WAT      O85072   1.725   2.589   8.296
28277WAT     H185073   1.716   2.503   8.345
28277WAT     H285074   1.729   2.665   8.361
28278WAT      O85075   4.930   5.891   8.311
28278WAT     H185076   5.012   5.865   8.361
28278WAT     H285077   4.850   5.884   8.370
28279WAT      O85078   5.473   2.470   4.222
28279WAT     H185079   5.495   2.470   4.124
28279WAT     H285080   5.386   2.516   4.237
28280WAT      O85081   5.983   5.302   0.471
28280WAT     H185082   6.069   5.260   0.443
28280WAT     H285083   5.909   5.235   0.463
28281WAT      O85084   8.592   7.687   1.316
28281WAT     H185085   8.535   7.749   1.369
28281WAT     H285086   8.649   7.633   1.378
28282WAT      O85087   1.977   0.880   1.772
28282WAT     H185088   1.956   0.783   1.755
28282WAT     H285089   2.003   0.924   1.686
28283WAT      O85090   3.973   3.223   1.456
28283WAT     H185091   4.015   3.133   1.463
28283WAT     H285092   3.901   3.221   1.386
28284WAT      O85093   7.407   6.066   9.028
28284WAT     H185094   7.366   6.156   9.011
28284WAT     H285095   7.502   6.077   9.056
28285WAT      O85096   3.036   7.194   9.170
28285WAT     H185097   3.010   7.281   9.128
28285WAT     H285098   3.136   7.186   9.169
28286WAT      O85099   4.303   2.044   0.323
28286WAT     H185100   4.322   2.028   0.226
28286WAT     H285101   4.218   2.097   0.332
28287WAT      O85102   1.252   5.040   6.435
28287WAT     H185103   1.333   4.986   6.411
28287WAT     H285104   1.272   5.137   6.422
28288WAT      O85105   1.134   5.274   4.872
28288WAT     H185106   1.209   5.305   4.813
28288WAT     H285107   1.081   5.204   4.824
28289WAT      O85108   0.035   3.548   0.293
28289WAT     H185109   0.107   3.616   0.304
28289WAT     H285110  -0.017   3.568   0.210
28290WAT      O85111   7.380   7.829   2.302
28290WAT     H185112   7.427   7.832   2.213
28290WAT     H285113   7.445   7.803   2.373
28291WAT      O85114   4.204   3.870   1.033
28291WAT     H185115   4.301   3.887   1.048
28291WAT     H285116   4.151   3.910   1.108
28292WAT      O85117   7.426   4.809   9.344
28292WAT     H185118   7.443   4.847   9.435
28292WAT     H285119   7.400   4.713   9.352
28293WAT      O85120   9.462   1.396   1.014
28293WAT     H185121   9.466   1.297   1.000
28293WAT     H285122   9.400   1.417   1.089
28294WAT      O85123   0.159   2.566   0.065
28294WAT     H185124   0.099   2.552  -0.014
28294WAT     H285125   0.253   2.578   0.034
28295WAT      O85126   9.225   6.565   2.527
28295WAT     H185127   9.144   6.540   2.579
28295WAT     H285128   9.205   6.645   2.469
28296WAT      O85129   5.442   5.243   2.046
28296WAT     H185130   5.345   5.220   2.035
28296WAT     H285131   5.479   5.276   1.959
28297WAT      O85132   7.275   1.681   7.537
28297WAT     H185133   7.308   1.633   7.456
28297WAT     H285134   7.240   1.616   7.604
28298WAT      O85135   7.949   6.578   9.281
28298WAT     H185136   7.997   6.665   9.276
28298WAT     H285137   7.953   6.542   9.374
28299WAT      O85138   3.868   8.888   9.367
28299WAT     H185139   3.868   8.988   9.367
28299WAT     H285140   3.935   8.855   9.434
28300WAT      O85141   2.014   2.556   7.739
28300WAT     H185142   2.050   2.578   7.830
28300WAT     H285143   1.985   2.461   7.737
28301WAT      O85144   0.413   1.494   2.530
28301WAT     H185145   0.500   1.473   2.486
28301WAT     H285146   0.371   1.409   2.562
28302WAT      O85147   2.767   1.156   2.573
28302WAT     H185148   2.735   1.177   2.482
28302WAT     H285149   2.715   1.208   2.641
28303WAT      O85150   7.479   6.198   4.254
28303WAT     H185151   7.478   6.297   4.235
28303WAT     H285152   7.417   6.151   4.191
28304WAT      O85153   7.340   0.961   5.560
28304WAT     H185154   7.383   1.036   5.609
28304WAT     H285155   7.290   0.903   5.624
28305WAT      O85156   4.134   3.205   9.712
28305WAT     H185157   4.161   3.118   9.753
28305WAT     H285158   4.051   3.238   9.757
28306WAT      O85159   7.241   7.441   4.555
28306WAT     H185160   7.185   7.359   4.549
28306WAT     H285161   7.280   7.447   4.647
28307WAT      O85162   9.594   0.534   2.199
28307WAT     H185163   9.679   0.521   2.148
28307WAT     H285164   9.589   0.467   2.273
28308WAT      O85165   0.193   4.212   4.252
28308WAT     H185166   0.173   4.189   4.156
28308WAT     H285167   0.219   4.309   4.258
28309WAT      O85168   6.200   1.299   4.612
28309WAT     H185169   6.253   1.222   4.577
28309WAT     H285170   6.145   1.338   4.539
28310WAT      O85171   5.782   0.880   1.051
28310WAT     H185172   5.819   0.791   1.079
28310WAT     H285173   5.769   0.881   0.952
28311WAT      O85174   7.795   2.363   3.566
28311WAT     H185175   7.831   2.405   3.483
28311WAT     H285176   7.756   2.274   3.544
28312WAT      O85177   8.396   3.436   3.994
28312WAT     H185178   8.329   3.432   3.921
28312WAT     H285179   8.409   3.530   4.023
28313WAT      O85180   9.580   6.568   8.867
28313WAT     H185181   9.641   6.490   8.881
28313WAT     H285182   9.510   6.544   8.800
28314WAT      O85183   8.231   8.746   3.003
28314WAT     H185184   8.237   8.740   3.103
28314WAT     H285185   8.220   8.842   2.977
28315WAT      O85186   8.458   1.674   0.488
28315WAT     H185187   8.405   1.758   0.498
28315WAT     H285188   8.552   1.689   0.520
28316WAT      O85189   8.586   3.524   5.731
28316WAT     H185190   8.674   3.549   5.772
28316WAT     H285191   8.601   3.457   5.659
28317WAT      O85192   3.182   6.847   5.904
28317WAT     H185193   3.179   6.870   5.806
28317WAT     H285194   3.188   6.748   5.914
28318WAT      O85195   2.415   0.382   9.882
28318WAT     H185196   2.404   0.407   9.978
28318WAT     H285197   2.505   0.340   9.868
28319WAT      O85198   2.413   1.748   7.719
28319WAT     H185199   2.474   1.671   7.702
28319WAT     H285200   2.440   1.825   7.661
28320WAT      O85201   4.188   6.791   8.279
28320WAT     H185202   4.229   6.866   8.226
28320WAT     H285203   4.183   6.818   8.375
28321WAT      O85204   4.932   2.751   5.208
28321WAT     H185205   4.947   2.758   5.110
28321WAT     H285206   4.845   2.794   5.232
28322WAT      O85207   6.902   8.193   9.145
28322WAT     H185208   6.933   8.189   9.240
28322WAT     H285209   6.844   8.114   9.126
28323WAT      O85210   9.109   9.719   2.220
28323WAT     H185211   9.200   9.724   2.180
28323WAT     H285212   9.110   9.760   2.312
28324WAT      O85213   4.732   2.276   6.337
28324WAT     H185214   4.828   2.297   6.351
28324WAT     H285215   4.692   2.245   6.424
28325WAT      O85216   4.077   0.176   7.570
28325WAT     H185217   4.126   0.206   7.487
28325WAT     H285218   4.018   0.250   7.602
28326WAT      O85219   8.561   5.945   4.423
28326WAT     H185220   8.554   6.045   4.432
28326WAT     H285221   8.594   5.922   4.332
28327WAT      O85222   9.878   6.154   3.252
28327WAT     H185223   9.829   6.235   3.221
28327WAT     H285224   9.908   6.101   3.173
28328WAT      O85225   9.020   1.761   8.520
28328WAT     H185226   9.031   1.860   8.513
28328WAT     H285227   8.923   1.739   8.528
28329WAT      O85228   0.651   9.671   2.682
28329WAT     H185229   0.685   9.761   2.655
28329WAT     H285230   0.552   9.667   2.666
28330WAT      O85231   5.885   4.488   2.796
28330WAT     H185232   5.963   4.505   2.856
28330WAT     H285233   5.825   4.567   2.796
28331WAT      O85234   5.224   4.018   1.033
28331WAT     H185235   5.269   3.954   1.095
28331WAT     H285236   5.196   4.099   1.084
28332WAT      O85237   3.614   8.451   7.932
28332WAT     H185238   3.678   8.491   7.998
28332WAT     H285239   3.553   8.388   7.980
28333WAT      O85240   5.903   9.171   5.916
28333WAT     H185241   5.854   9.090   5.947
28333WAT     H285242   5.993   9.175   5.959
28334WAT      O85243   5.802   7.881   5.159
28334WAT     H185244   5.878   7.916   5.104
28334WAT     H285245   5.839   7.837   5.242
28335WAT      O85246   1.339   8.057   5.639
28335WAT     H185247   1.323   7.968   5.682
28335WAT     H285248   1.358   8.125   5.709
28336WAT      O85249   9.368   0.160   5.684
28336WAT     H185250   9.425   0.204   5.754
28336WAT     H285251   9.356   0.222   5.607
28337WAT      O85252   2.736   0.183   8.392
28337WAT     H185253   2.805   0.116   8.420
28337WAT     H285254   2.770   0.236   8.315
28338WAT      O85255   1.974   7.477   8.816
28338WAT     H185256   1.954   7.407   8.748
28338WAT     H285257   1.913   7.465   8.895
28339WAT      O85258   0.616   1.679   5.691
28339WAT     H185259   0.621   1.614   5.767
28339WAT     H285260   0.694   1.665   5.630
28340WAT      O85261   4.389   3.097   3.751
28340WAT     H185262   4.459   3.076   3.819
28340WAT     H285263   4.314   3.031   3.759
28341WAT      O85264   1.844   7.289   8.225
28341WAT     H185265   1.823   7.199   8.262
28341WAT     H285266   1.816   7.294   8.130
28342WAT      O85267   5.771   8.902   3.583
28342WAT     H185268   5.699   8.837   3.608
28342WAT     H285269   5.751   8.991   3.625
28343WAT      O85270   4.732   1.525   8.953
28343WAT     H185271   4.750   1.490   9.045
28343WAT     H285272   4.771   1.462   8.885
28344WAT      O85273   8.230   9.115   0.730
28344WAT     H185274   8.272   9.045   0.788
28344WAT     H285275   8.138   9.085   0.704
28345WAT      O85276   2.404   8.161   9.141
28345WAT     H185277   2.395   8.230   9.213
28345WAT     H285278   2.501   8.136   9.131
28346WAT      O85279   4.714   5.491   8.778
28346WAT     H185280   4.769   5.408   8.765
28346WAT     H285281   4.773   5.567   8.803
28347WAT      O85282   7.610   6.523   9.709
28347WAT     H185283   7.668   6.495   9.785
28347WAT     H285284   7.522   6.475   9.715
28348WAT      O85285   5.802   3.931   8.151
28348WAT     H185286   5.852   3.897   8.072
28348WAT     H285287   5.831   3.883   8.234
28349WAT      O85288   1.136   7.605   4.072
28349WAT     H185289   1.105   7.574   4.161
28349WAT     H285290   1.236   7.612   4.072
28350WAT      O85291   0.181   0.097   3.239
28350WAT     H185292   0.278   0.123   3.232
28350WAT     H285293   0.169   0.031   3.314
28351WAT      O85294   6.820   0.103   8.618
28351WAT     H185295   6.778   0.130   8.705
28351WAT     H285296   6.908   0.149   8.608
28352WAT      O85297   9.043   9.368   0.307
28352WAT     H185298   9.026   9.302   0.380
28352WAT     H285299   8.967   9.367   0.242
28353WAT      O85300   3.835   9.722   9.073
28353WAT     H185301   3.801   9.816   9.072
28353WAT     H285302   3.775   9.665   9.129
28354WAT      O85303   6.700   9.447   5.899
28354WAT     H185304   6.614   9.474   5.943
28354WAT     H285305   6.699   9.349   5.880
28355WAT      O85306   7.742   3.971   0.425
28355WAT     H185307   7.695   3.889   0.457
28355WAT     H285308   7.728   4.045   0.491
28356WAT      O85309   5.128   1.602   7.601
28356WAT     H185310   5.057   1.656   7.646
28356WAT     H285311   5.091   1.514   7.573
28357WAT      O85312   1.181   1.152   5.023
28357WAT     H185313   1.274   1.129   4.996
28357WAT     H285314   1.118   1.081   4.991
28358WAT      O85315   7.543   2.330   9.231
28358WAT     H185316   7.632   2.287   9.213
28358WAT     H285317   7.502   2.358   9.144
28359WAT      O85318   5.853   1.277   5.327
28359WAT     H185319   5.763   1.263   5.287
28359WAT     H285320   5.887   1.190   5.363
28360WAT      O85321   7.399   4.805   2.118
28360WAT     H185322   7.340   4.754   2.056
28360WAT     H285323   7.402   4.760   2.208
28361WAT      O85324   0.862   2.641   9.807
28361WAT     H185325   0.882   2.732   9.771
28361WAT     H285326   0.942   2.582   9.796
28362WAT      O85327   3.162   5.211   7.444
28362WAT     H185328   3.114   5.288   7.487
28362WAT     H285329   3.157   5.220   7.345
28363WAT      O85330   8.207   2.114   3.360
28363WAT     H185331   8.169   2.085   3.447
28363WAT     H285332   8.218   2.034   3.300
28364WAT      O85333   2.720   6.497   1.423
28364WAT     H185334   2.791   6.451   1.477
28364WAT     H285335   2.709   6.591   1.457
28365WAT      O85336   9.062   0.042   0.444
28365WAT     H185337   9.064  -0.042   0.390
28365WAT     H285338   9.097   0.023   0.536
28366WAT      O85339   9.324   0.051   7.678
28366WAT     H185340   9.231   0.016   7.691
28366WAT     H285341   9.323   0.151   7.680
28367WAT      O85342   3.038   7.963   8.267
28367WAT     H185343   3.135   7.978   8.247
28367WAT     H285344   2.983   8.031   8.219
28368WAT      O85345   8.599   0.439   8.833
28368WAT     H185346   8.579   0.441   8.736
28368WAT     H285347   8.649   0.522   8.859
28369WAT      O85348   1.370   3.076   4.485
28369WAT     H185349   1.283   3.026   4.494
28369WAT     H285350   1.377   3.115   4.393
28370WAT      O85351   6.188   7.606   8.688
28370WAT     H185352   6.123   7.558   8.629
28370WAT     H285353   6.244   7.667   8.631
28371WAT      O85354   8.531   4.987   8.777
28371WAT     H185355   8.517   5.085   8.761
28371WAT     H285356   8.560   4.973   8.871
28372WAT      O85357   3.453   0.011   5.369
28372WAT     H185358   3.356  -0.016   5.370
28372WAT     H285359   3.462   0.104   5.405
28373WAT      O85360   3.804   1.202   2.717
28373WAT     H185361   3.842   1.117   2.753
28373WAT     H285362   3.730   1.180   2.652
28374WAT      O85363   8.111   4.277   8.075
28374WAT     H185364   8.094   4.365   8.031
28374WAT     H285365   8.045   4.209   8.043
28375WAT      O85366   3.279   4.303   9.739
28375WAT     H185367   3.283   4.331   9.835
28375WAT     H285368   3.338   4.361   9.684
28376WAT      O85369   4.257   7.701   1.044
28376WAT     H185370   4.324   7.664   0.980
28376WAT     H285371   4.184   7.746   0.993
28377WAT      O85372   5.207   5.730   1.326
28377WAT     H185373   5.138   5.793   1.292
28377WAT     H285374   5.299   5.764   1.303
28378WAT      O85375   3.525   0.453   2.239
28378WAT     H185376   3.576   0.368   2.225
28378WAT     H285377   3.542   0.487   2.331
28379WAT      O85378   1.229   1.508   5.553
28379WAT     H185379   1.134   1.507   5.520
28379WAT     H285380   1.287   1.552   5.484
28380WAT      O85381   2.306   5.335   2.759
28380WAT     H185382   2.239   5.331   2.684
28380WAT     H285383   2.398   5.326   2.721
28381WAT      O85384   1.721   2.621   7.628
28381WAT     H185385   1.693   2.611   7.532
28381WAT     H285386   1.815   2.589   7.639
28382WAT      O85387   3.793   6.404   1.151
28382WAT     H185388   3.813   6.462   1.229
28382WAT     H285389   3.714   6.347   1.171
28383WAT      O85390   4.956   3.206   7.340
28383WAT     H185391   4.976   3.137   7.271
28383WAT     H285392   4.986   3.174   7.429
28384WAT      O85393   6.600   2.118   4.526
28384WAT     H185394   6.675   2.099   4.462
28384WAT     H285395   6.633   2.176   4.600
28385WAT      O85396   2.238   8.413   7.508
28385WAT     H185397   2.277   8.404   7.416
28385WAT     H285398   2.237   8.510   7.534
28386WAT      O85399   1.400   1.670   1.154
28386WAT     H185400   1.476   1.700   1.211
28386WAT     H285401   1.402   1.721   1.068
28387WAT      O85402   3.602   1.893   9.826
28387WAT     H185403   3.593   1.931   9.917
28387WAT     H285404   3.652   1.957   9.768
28388WAT      O85405   5.821   0.223   1.681
28388WAT     H185406   5.722   0.225   1.690
28388WAT     H285407   5.862   0.281   1.752
28389WAT      O85408   5.284   3.318   7.955
28389WAT     H185409   5.350   3.298   8.027
28389WAT     H285410   5.301   3.259   7.876
28390WAT      O85411   3.234   4.205   2.350
28390WAT     H185412   3.138   4.224   2.330
28390WAT     H285413   3.272   4.279   2.407
28391WAT      O85414   8.689   3.255   9.882
28391WAT     H185415   8.761   3.187   9.870
28391WAT     H285416   8.628   3.255   9.803
28392WAT      O85417   1.485   4.543   6.456
28392WAT     H185418   1.513   4.626   6.409
28392WAT     H285419   1.545   4.527   6.535
28393WAT      O85420   4.968   7.123   6.736
28393WAT     H185421   5.050   7.151   6.786
28393WAT     H285422   4.902   7.083   6.799
28394WAT      O85423   0.874   0.533   7.330
28394WAT     H185424   0.893   0.599   7.402
28394WAT     H285425   0.925   0.559   7.247
28395WAT      O85426   2.599   6.887   1.328
28395WAT     H185427   2.648   6.812   1.374
28395WAT     H285428   2.509   6.855   1.299
28396WAT      O85429   4.040   6.071   7.919
28396WAT     H185430   4.073   5.981   7.894
28396WAT     H285431   4.115   6.127   7.954
28397WAT      O85432   1.787   5.936   6.103
28397WAT     H185433   1.841   5.864   6.146
28397WAT     H285434   1.748   5.994   6.175
28398WAT      O85435   6.903   9.502   0.258
28398WAT     H185436   6.942   9.414   0.232
28398WAT     H285437   6.804   9.501   0.244
28399WAT      O85438   9.608   3.425   5.950
28399WAT     H185439   9.693   3.393   5.909
28399WAT     H285440   9.628   3.485   6.027
28400WAT      O85441   2.380   0.777   1.586
28400WAT     H185442   2.350   0.729   1.669
28400WAT     H285443   2.461   0.733   1.549
28401WAT      O85444   2.463   8.013   4.888
28401WAT     H185445   2.375   7.995   4.931
28401WAT     H285446   2.468   7.965   4.800
28402WAT      O85447   4.232   3.790   4.731
28402WAT     H185448   4.185   3.804   4.643
28402WAT     H285449   4.273   3.699   4.732
28403WAT      O85450   8.641   1.951   0.367
28403WAT     H185451   8.707   1.916   0.434
28403WAT     H285452   8.632   1.885   0.292
28404WAT      O85453   2.402   7.425   6.690
28404WAT     H185454   2.390   7.447   6.787
28404WAT     H285455   2.495   7.450   6.662
28405WAT      O85456   6.515   3.135   2.696
28405WAT     H185457   6.503   3.174   2.787
28405WAT     H285458   6.439   3.072   2.677
28406WAT      O85459   9.119   8.686   3.189
28406WAT     H185460   9.046   8.671   3.122
28406WAT     H285461   9.103   8.771   3.238
28407WAT      O85462   8.621   2.421   1.086
28407WAT     H185463   8.637   2.519   1.090
28407WAT     H285464   8.678   2.380   1.015
28408WAT      O85465   2.008   7.443   8.384
28408WAT     H185466   1.930   7.392   8.350
28408WAT     H285467   2.056   7.389   8.453
28409WAT      O85468   9.226   2.419   8.311
28409WAT     H185469   9.308   2.367   8.286
28409WAT     H285470   9.252   2.497   8.368
28410WAT      O85471   1.944   1.686   7.307
28410WAT     H185472   1.939   1.694   7.407
28410WAT     H285473   1.884   1.753   7.265
28411WAT      O85474   5.406   8.919   4.202
28411WAT     H185475   5.449   8.988   4.143
28411WAT     H285476   5.416   8.945   4.298
28412WAT      O85477   4.658   9.478   7.927
28412WAT     H185478   4.661   9.531   7.843
28412WAT     H285479   4.593   9.403   7.917
28413WAT      O85480   5.155   7.254   0.653
28413WAT     H185481   5.195   7.314   0.721
28413WAT     H285482   5.225   7.226   0.588
28414WAT      O85483   7.418   8.095   1.195
28414WAT     H185484   7.402   8.175   1.253
28414WAT     H285485   7.363   8.103   1.112
28415WAT      O85486   7.256   7.071   9.302
28415WAT     H185487   7.171   7.035   9.263
28415WAT     H285488   7.318   7.099   9.228
28416WAT      O85489   6.731   2.699   3.041
28416WAT     H185490   6.723   2.711   2.942
28416WAT     H285491   6.752   2.787   3.084
28417WAT      O85492   7.265   6.642   8.967
28417WAT     H185493   7.345   6.587   8.942
28417WAT     H285494   7.283   6.739   8.947
28418WAT      O85495   1.288   1.253   1.590
28418WAT     H185496   1.269   1.164   1.632
28418WAT     H285497   1.212   1.315   1.607
28419WAT      O85498   2.146   8.699   8.411
28419WAT     H185499   2.203   8.740   8.482
28419WAT     H285500   2.051   8.727   8.423
28420WAT      O85501   1.954   9.307   5.412
28420WAT     H185502   1.945   9.403   5.385
28420WAT     H285503   2.017   9.300   5.490
28421WAT      O85504   0.091   0.677   8.878
28421WAT     H185505   0.019   0.741   8.850
28421WAT     H285506   0.148   0.654   8.799
28422WAT      O85507   6.862   4.511   8.238
28422WAT     H185508   6.892   4.527   8.332
28422WAT     H285509   6.935   4.463   8.188
28423WAT      O85510   8.590   2.206   5.804
28423WAT     H185511   8.621   2.167   5.890
28423WAT     H285512   8.563   2.301   5.818
28424WAT      O85513   9.381   4.912   1.916
28424WAT     H185514   9.473   4.931   1.951
28424WAT     H285515   9.322   4.990   1.934
28425WAT      O85516   8.810   8.237   2.249
28425WAT     H185517   8.834   8.141   2.265
28425WAT     H285518   8.847   8.293   2.323
28426WAT      O85519   9.483   3.803   1.589
28426WAT     H185520   9.414   3.874   1.579
28426WAT     H285521   9.439   3.718   1.619
28427WAT      O85522   3.098   3.644   4.931
28427WAT     H185523   3.103   3.737   4.896
28427WAT     H285524   3.186   3.598   4.918
28428WAT      O85525   3.719   2.525   3.748
28428WAT     H185526   3.801   2.563   3.705
28428WAT     H285527   3.666   2.475   3.679
28429WAT      O85528   5.376   3.567   6.976
28429WAT     H185529   5.302   3.580   6.910
28429WAT     H285530   5.442   3.501   6.940
28430WAT      O85531   8.878   0.127   8.233
28430WAT     H185532   8.827   0.212   8.220
28430WAT     H285533   8.872   0.072   8.150
28431WAT      O85534   2.875   6.995   0.111
28431WAT     H185535   2.925   7.061   0.167
28431WAT     H285536   2.931   6.969   0.032
28432WAT      O85537   0.894   7.259   2.735
28432WAT     H185538   0.959   7.184   2.726
28432WAT     H285539   0.907   7.304   2.824
28433WAT      O85540   3.528   6.635   3.896
28433WAT     H185541   3.553   6.713   3.953
28433WAT     H285542   3.599   6.620   3.827
28434WAT      O85543   0.265   7.581   9.375
28434WAT     H185544   0.206   7.584   9.455
28434WAT     H285545   0.345   7.640   9.389
28435WAT      O85546   3.064   1.450   1.502
28435WAT     H185547   3.160   1.449   1.475
28435WAT     H285548   3.028   1.542   1.492
28436WAT      O85549   6.701   4.642   7.593
28436WAT     H185550   6.676   4.555   7.550
28436WAT     H285551   6.799   4.657   7.583
28437WAT      O85552   9.010   9.818   7.711
28437WAT     H185553   8.998   9.722   7.688
28437WAT     H285554   9.012   9.873   7.627
28438WAT      O85555   9.292   0.846   1.136
28438WAT     H185556   9.265   0.763   1.087
28438WAT     H285557   9.378   0.880   1.099
28439WAT      O85558   8.167   4.001   4.206
28439WAT     H185559   8.098   3.936   4.240
28439WAT     H285560   8.168   3.998   4.106
28440WAT      O85561   4.811   1.669   6.392
28440WAT     H185562   4.820   1.679   6.491
28440WAT     H285563   4.831   1.575   6.365
28441WAT      O85564   4.080   8.250   5.576
28441WAT     H185565   4.033   8.279   5.659
28441WAT     H285566   4.025   8.274   5.496
28442WAT      O85567   2.082   9.434   4.824
28442WAT     H185568   2.075   9.513   4.763
28442WAT     H285569   2.073   9.350   4.771
28443WAT      O85570   2.591   0.618   0.271
28443WAT     H185571   2.532   0.538   0.286
28443WAT     H285572   2.560   0.693   0.331
28444WAT      O85573   4.973   5.175   8.214
28444WAT     H185574   4.974   5.119   8.131
28444WAT     H285575   4.894   5.236   8.212
28445WAT      O85576   5.140   3.520   4.234
28445WAT     H185577   5.177   3.600   4.187
28445WAT     H285578   5.094   3.549   4.318
28446WAT      O85579   3.660   2.107   2.924
28446WAT     H185580   3.604   2.175   2.972
28446WAT     H285581   3.702   2.045   2.989
28447WAT      O85582   3.063   0.508   2.105
28447WAT     H185583   3.064   0.588   2.044
28447WAT     H285584   3.018   0.532   2.191
28448WAT      O85585   7.324   2.565   0.767
28448WAT     H185586   7.402   2.629   0.771
28448WAT     H285587   7.332   2.509   0.685
28449WAT      O85588   9.474   1.154   5.165
28449WAT     H185589   9.505   1.146   5.260
28449WAT     H285590   9.484   1.249   5.135
28450WAT      O85591   7.585   0.597   6.023
28450WAT     H185592   7.651   0.618   5.951
28450WAT     H285593   7.550   0.682   6.062
28451WAT      O85594   1.354   5.712   6.310
28451WAT     H185595   1.426   5.645   6.288
28451WAT     H285596   1.277   5.664   6.352
28452WAT      O85597   8.198   7.190   3.907
28452WAT     H185598   8.238   7.229   3.989
28452WAT     H285599   8.248   7.221   3.827
28453WAT      O85600   2.528   8.444   2.925
28453WAT     H185601   2.518   8.539   2.896
28453WAT     H285602   2.528   8.384   2.844
28454WAT      O85603   6.486   3.206   9.533
28454WAT     H185604   6.560   3.165   9.480
28454WAT     H285605   6.404   3.213   9.476
28455WAT      O85606   9.214   7.473   5.655
28455WAT     H185607   9.172   7.481   5.746
28455WAT     H285608   9.300   7.524   5.654
28456WAT      O85609   4.011   3.813   0.013
28456WAT     H185610   4.103   3.831  -0.021
28456WAT     H285611   3.975   3.731  -0.031
28457WAT      O85612   0.707   5.420   6.443
28457WAT     H185613   0.739   5.496   6.500
28457WAT     H285614   0.641   5.366   6.494
28458WAT      O85615   8.263   3.576   6.171
28458WAT     H185616   8.301   3.500   6.119
28458WAT     H285617   8.236   3.649   6.109
28459WAT      O85618   0.863   3.434   7.398
28459WAT     H185619   0.933   3.363   7.399
28459WAT     H285620   0.906   3.524   7.408
28460WAT      O85621   5.488   1.690   1.447
28460WAT     H185622   5.546   1.651   1.518
28460WAT     H285623   5.449   1.616   1.392
28461WAT      O85624   7.085   9.073   2.294
28461WAT     H185625   7.110   9.014   2.371
28461WAT     H285626   6.998   9.042   2.256
28462WAT      O85627   2.613   8.123   2.951
28462WAT     H185628   2.574   8.078   3.031
28462WAT     H285629   2.691   8.069   2.917
28463WAT      O85630   3.812   4.231   2.934
28463WAT     H185631   3.813   4.330   2.925
28463WAT     H285632   3.902   4.195   2.911
28464WAT      O85633   3.248   4.629   4.992
28464WAT     H185634   3.197   4.568   4.931
28464WAT     H285635   3.310   4.686   4.939
28465WAT      O85636   9.216   7.826   4.916
28465WAT     H185637   9.198   7.820   5.014
28465WAT     H285638   9.248   7.918   4.893
28466WAT      O85639   4.467   8.331   1.366
28466WAT     H185640   4.386   8.337   1.308
28466WAT     H285641   4.477   8.415   1.418
28467WAT      O85642   8.239   1.396   6.049
28467WAT     H185643   8.186   1.477   6.025
28467WAT     H285644   8.262   1.345   5.966
28468WAT      O85645   8.829   0.013   4.043
28468WAT     H185646   8.809   0.107   4.072
28468WAT     H285647   8.751  -0.023   3.992
28469WAT      O85648   9.739   7.599   5.282
28469WAT     H185649   9.794   7.588   5.365
28469WAT     H285650   9.788   7.654   5.216
28470WAT      O85651   6.049   8.828   2.292
28470WAT     H185652   5.998   8.877   2.221
28470WAT     H285653   5.999   8.745   2.318
28471WAT      O85654   3.052   6.812   5.412
28471WAT     H185655   3.089   6.794   5.321
28471WAT     H285656   2.968   6.760   5.425
28472WAT      O85657   1.241   3.750   4.084
28472WAT     H185658   1.251   3.668   4.027
28472WAT     H285659   1.230   3.830   4.025
28473WAT      O85660   4.085   5.113   5.279
28473WAT     H185661   4.104   5.209   5.261
28473WAT     H285662   4.162   5.074   5.331
28474WAT      O85663   0.610   1.884   8.646
28474WAT     H185664   0.546   1.873   8.570
28474WAT     H285665   0.634   1.795   8.683
28475WAT      O85666   5.176   7.844   5.916
28475WAT     H185667   5.208   7.821   5.824
28475WAT     H285668   5.184   7.763   5.975
28476WAT      O85669   8.463   7.786   1.846
28476WAT     H185670   8.455   7.687   1.834
28476WAT     H285671   8.509   7.825   1.766
28477WAT      O85672   4.852   8.199   1.474
28477WAT     H185673   4.908   8.140   1.416
28477WAT     H285674   4.880   8.294   1.462
28478WAT      O85675   5.762   8.639   8.393
28478WAT     H185676   5.775   8.737   8.402
28478WAT     H285677   5.827   8.602   8.327
28479WAT      O85678   9.667   1.522   3.500
28479WAT     H185679   9.713   1.445   3.456
28479WAT     H285680   9.638   1.588   3.430
28480WAT      O85681   9.455   6.641   0.268
28480WAT     H185682   9.390   6.701   0.313
28480WAT     H285683   9.410   6.555   0.242
28481WAT      O85684   0.111   0.684   4.049
28481WAT     H185685   0.031   0.638   4.087
28481WAT     H285686   0.183   0.616   4.032
28482WAT      O85687   2.360   2.201   2.289
28482WAT     H185688   2.286   2.249   2.336
28482WAT     H285689   2.438   2.190   2.351
28483WAT      O85690   8.344   4.739   6.967
28483WAT     H185691   8.441   4.716   6.971
28483WAT     H285692   8.328   4.805   6.893
28484WAT      O85693   5.808   1.020   3.039
28484WAT     H185694   5.870   1.074   3.095
28484WAT     H285695   5.813   0.924   3.067
28485WAT      O85696   6.883   0.189   2.858
28485WAT     H185697   6.961   0.252   2.864
28485WAT     H285698   6.798   0.240   2.870
28486WAT      O85699   0.754   7.617   1.931
28486WAT     H185700   0.764   7.534   1.876
28486WAT     H285701   0.675   7.669   1.898
28487WAT      O85702   6.491   3.989   4.960
28487WAT     H185703   6.505   3.915   4.894
28487WAT     H285704   6.580   4.024   4.990
28488WAT      O85705   3.438   6.321   2.925
28488WAT     H185706   3.425   6.411   2.968
28488WAT     H285707   3.373   6.311   2.849
28489WAT      O85708   2.155   8.459   1.046
28489WAT     H185709   2.197   8.490   1.130
28489WAT     H285710   2.171   8.361   1.035
28490WAT      O85711   0.525   7.363   3.924
28490WAT     H185712   0.441   7.368   3.979
28490WAT     H285713   0.544   7.452   3.885
28491WAT      O85714   6.472   0.683   8.839
28491WAT     H185715   6.409   0.653   8.767
28491WAT     H285716   6.423   0.688   8.926
28492WAT      O85717   1.963   4.182   1.287
28492WAT     H185718   1.970   4.130   1.202
28492WAT     H285719   2.050   4.228   1.305
28493WAT      O85720   6.591   9.741   1.841
28493WAT     H185721   6.552   9.815   1.787
28493WAT     H285722   6.687   9.761   1.859
28494WAT      O85723   4.881   0.917   8.153
28494WAT     H185724   4.834   0.844   8.202
28494WAT     H285725   4.967   0.881   8.115
28495WAT      O85726   9.675   1.433   9.502
28495WAT     H185727   9.609   1.412   9.575
28495WAT     H285728   9.740   1.357   9.493
28496WAT      O85729   5.178   6.901   3.119
28496WAT     H185730   5.219   6.887   3.209
28496WAT     H285731   5.230   6.970   3.069
28497WAT      O85732   3.706   1.154   5.914
28497WAT     H185733   3.619   1.151   5.963
28497WAT     H285734   3.781   1.170   5.978
28498WAT      O85735   3.451   0.855   0.585
28498WAT     H185736   3.545   0.887   0.600
28498WAT     H285737   3.447   0.805   0.498
28499WAT      O85738   0.222   0.008   9.379
28499WAT     H185739   0.288  -0.031   9.315
28499WAT     H285740   0.251  -0.012   9.473
28500WAT      O85741   2.357   7.185   3.826
28500WAT     H185742   2.390   7.128   3.901
28500WAT     H285743   2.257   7.186   3.826
28501WAT      O85744   9.101   1.466   1.681
28501WAT     H185745   9.073   1.558   1.708
28501WAT     H285746   9.177   1.436   1.738
28502WAT      O85747   4.271   6.983   2.232
28502WAT     H185748   4.359   6.997   2.186
28502WAT     H285749   4.234   7.071   2.260
28503WAT      O85750   3.509   5.063   2.364
28503WAT     H185751   3.466   4.975   2.384
28503WAT     H285752   3.532   5.067   2.267
28504WAT      O85753   3.106   2.528   4.720
28504WAT     H185754   3.153   2.551   4.805
28504WAT     H285755   3.015   2.570   4.720
28505WAT      O85756   1.393   8.801   8.663
28505WAT     H185757   1.416   8.822   8.758
28505WAT     H285758   1.465   8.746   8.622
28506WAT      O85759   2.019   5.711   5.080
28506WAT     H185760   2.096   5.660   5.117
28506WAT     H285761   1.973   5.656   5.011
28507WAT      O85762   8.405   8.277   4.893
28507WAT     H185763   8.447   8.192   4.925
28507WAT     H285764   8.405   8.279   4.793
28508WAT      O85765   1.719   6.684   3.654
28508WAT     H185766   1.796   6.634   3.614
28508WAT     H285767   1.723   6.676   3.754
28509WAT      O85768   2.139   0.610   5.865
28509WAT     H185769   2.088   0.564   5.792
28509WAT     H285770   2.236   0.589   5.857
28510WAT      O85771   3.973   2.762   3.120
28510WAT     H185772   3.944   2.857   3.126
28510WAT     H285773   3.946   2.713   3.203
28511WAT      O85774   5.720   3.111   0.646
28511WAT     H185775   5.811   3.101   0.686
28511WAT     H285776   5.725   3.097   0.547
28512WAT      O85777   4.008   5.378   8.377
28512WAT     H185778   3.934   5.393   8.311
28512WAT     H285779   4.093   5.419   8.343
28513WAT      O85780   6.170   7.515   5.462
28513WAT     H185781   6.213   7.425   5.466
28513WAT     H285782   6.123   7.525   5.374
28514WAT      O85783   9.761   4.969   4.315
28514WAT     H185784   9.728   4.985   4.222
28514WAT     H285785   9.854   5.003   4.324
28515WAT      O85786   7.008   7.767   0.452
28515WAT     H185787   6.998   7.670   0.474
28515WAT     H285788   7.095   7.781   0.404
28516WAT      O85789   8.923   2.742   3.411
28516WAT     H185790   8.927   2.693   3.323
28516WAT     H285791   8.864   2.691   3.474
28517WAT      O85792   8.971   5.932   7.178
28517WAT     H185793   9.047   5.870   7.198
28517WAT     H285794   8.891   5.907   7.233
28518WAT      O85795   5.154   4.460   2.725
28518WAT     H185796   5.104   4.373   2.731
28518WAT     H285797   5.184   4.487   2.817
28519WAT      O85798   4.638   1.198   2.243
28519WAT     H185799   4.561   1.212   2.305
28519WAT     H285800   4.606   1.158   2.157
28520WAT      O85801   9.879   2.714   5.570
28520WAT     H185802   9.968   2.754   5.592
28520WAT     H285803   9.871   2.702   5.471
28521WAT      O85804   4.894   8.853   3.870
28521WAT     H185805   4.808   8.904   3.861
28521WAT     H285806   4.884   8.784   3.941
28522WAT      O85807   0.548   2.118   5.252
28522WAT     H185808   0.642   2.142   5.273
28522WAT     H285809   0.489   2.198   5.267
28523WAT      O85810   3.585   8.563   2.359
28523WAT     H185811   3.658   8.496   2.345
28523WAT     H285812   3.496   8.522   2.339
28524WAT      O85813   7.626   1.923   9.497
28524WAT     H185814   7.554   1.986   9.468
28524WAT     H285815   7.583   1.838   9.530
28525WAT      O85816   4.462   5.784   0.276
28525WAT     H185817   4.494   5.693   0.305
28525WAT     H285818   4.535   5.830   0.225
28526WAT      O85819   2.320   1.930   7.426
28526WAT     H185820   2.262   2.002   7.387
28526WAT     H285821   2.321   1.852   7.365
28527WAT      O85822   2.151   3.205   2.023
28527WAT     H185823   2.207   3.221   2.105
28527WAT     H285824   2.156   3.109   1.997
28528WAT      O85825   0.733   1.700   0.424
28528WAT     H185826   0.799   1.775   0.435
28528WAT     H285827   0.781   1.620   0.389
28529WAT      O85828   3.986   2.233   0.765
28529WAT     H185829   3.961   2.282   0.849
28529WAT     H285830   3.957   2.138   0.772
28530WAT      O85831   3.990   2.323   8.057
28530WAT     H185832   3.911   2.262   8.046
28530WAT     H285833   3.991   2.360   8.150
28531WAT      O85834   0.684   9.789   3.676
28531WAT     H185835   0.612   9.767   3.742
28531WAT     H285836   0.773   9.763   3.715
28532WAT      O85837   7.602   3.458   7.064
28532WAT     H185838   7.538   3.534   7.061
28532WAT     H285839   7.696   3.493   7.060
28533WAT      O85840   3.828   9.159   0.388
28533WAT     H185841   3.758   9.167   0.458
28533WAT     H285842   3.801   9.089   0.321
28534WAT      O85843   0.632   7.814   1.144
28534WAT     H185844   0.540   7.816   1.184
28534WAT     H285845   0.687   7.744   1.190
28535WAT      O85846   5.157   6.184   6.732
28535WAT     H185847   5.064   6.181   6.695
28535WAT     H285848   5.155   6.228   6.822
28536WAT      O85849   0.434   4.391   1.859
28536WAT     H185850   0.401   4.362   1.769
28536WAT     H285851   0.410   4.486   1.874
28537WAT      O85852   1.567   2.993   0.241
28537WAT     H185853   1.485   3.050   0.239
28537WAT     H285854   1.561   2.929   0.317
28538WAT      O85855   4.654   2.584   8.595
28538WAT     H185856   4.731   2.627   8.546
28538WAT     H285857   4.614   2.514   8.536
28539WAT      O85858   8.329   9.199   6.423
28539WAT     H185859   8.259   9.160   6.362
28539WAT     H285860   8.414   9.149   6.410
28540WAT      O85861   1.416   8.830   1.313
28540WAT     H185862   1.489   8.791   1.369
28540WAT     H285863   1.382   8.914   1.355
28541WAT      O85864   8.611   8.802   9.811
28541WAT     H185865   8.682   8.859   9.769
28541WAT     H285866   8.537   8.861   9.844
28542WAT      O85867   7.843   9.262   9.005
28542WAT     H185868   7.942   9.262   8.989
28542WAT     H285869   7.795   9.274   8.919
28543WAT      O85870   7.548   4.546   1.959
28543WAT     H185871   7.592   4.461   1.987
28543WAT     H285872   7.602   4.624   1.994
28544WAT      O85873   6.729   9.783   6.480
28544WAT     H185874   6.692   9.875   6.467
28544WAT     H285875   6.818   9.777   6.434
28545WAT      O85876   5.517   2.036   1.702
28545WAT     H185877   5.524   1.999   1.610
28545WAT     H285878   5.592   2.099   1.719
28546WAT      O85879   8.579   8.134   9.088
28546WAT     H185880   8.629   8.116   9.172
28546WAT     H285881   8.482   8.111   9.101
28547WAT      O85882   2.792   8.045   0.415
28547WAT     H185883   2.851   8.028   0.336
28547WAT     H285884   2.713   7.984   0.410
28548WAT      O85885   5.100   5.907   2.175
28548WAT     H185886   5.109   5.939   2.270
28548WAT     H285887   5.043   5.971   2.124
28549WAT      O85888   9.336   8.848   3.740
28549WAT     H185889   9.433   8.834   3.723
28549WAT     H285890   9.309   8.798   3.822
28550WAT      O85891   0.201   2.552   2.720
28550WAT     H185892   0.187   2.495   2.801
28550WAT     H285893   0.181   2.647   2.743
28551WAT      O85894   8.219   0.541   8.411
28551WAT     H185895   8.253   0.455   8.450
28551WAT     H285896   8.192   0.526   8.316
28552WAT      O85897   4.819   2.697   9.142
28552WAT     H185898   4.719   2.697   9.139
28552WAT     H285899   4.854   2.770   9.083
28553WAT      O85900   9.590   8.495   4.661
28553WAT     H185901   9.517   8.429   4.651
28553WAT     H285902   9.605   8.541   4.574
28554WAT      O85903   1.819   5.580   1.229
28554WAT     H185904   1.723   5.567   1.208
28554WAT     H285905   1.833   5.579   1.328
28555WAT      O85906   8.105   1.259   2.079
28555WAT     H185907   8.086   1.213   1.993
28555WAT     H285908   8.099   1.193   2.154
28556WAT      O85909   9.860   9.337   9.015
28556WAT     H185910   9.804   9.419   8.999
28556WAT     H285911   9.916   9.320   8.934
28557WAT      O85912   5.153   8.959   4.135
28557WAT     H185913   5.251   8.945   4.145
28557WAT     H285914   5.134   9.001   4.046
28558WAT      O85915   1.812   1.917   7.266
28558WAT     H185916   1.825   1.897   7.363
28558WAT     H285917   1.753   1.997   7.256
28559WAT      O85918   3.342   5.959   3.262
28559WAT     H185919   3.394   5.972   3.177
28559WAT     H285920   3.326   5.861   3.276
28560WAT      O85921   7.174   3.901   2.152
28560WAT     H185922   7.152   3.812   2.112
28560WAT     H285923   7.223   3.888   2.239
28561WAT      O85924   2.352   8.760   5.220
28561WAT     H185925   2.329   8.663   5.225
28561WAT     H285926   2.289   8.812   5.279
28562WAT      O85927   0.576   2.452   3.743
28562WAT     H185928   0.569   2.518   3.668
28562WAT     H285929   0.662   2.403   3.737
28563WAT      O85930   4.927   3.718   7.379
28563WAT     H185931   5.008   3.705   7.322
28563WAT     H285932   4.909   3.634   7.431
28564WAT      O85933   8.896   1.261   4.680
28564WAT     H185934   8.873   1.180   4.626
28564WAT     H285935   8.893   1.342   4.621
28565WAT      O85936   9.383   4.258   3.422
28565WAT     H185937   9.297   4.212   3.400
28565WAT     H285938   9.427   4.212   3.499
28566WAT      O85939   7.993   5.023   3.749
28566WAT     H185940   8.048   5.095   3.709
28566WAT     H285941   7.908   5.062   3.785
28567WAT      O85942   8.323   6.358   4.888
28567WAT     H185943   8.323   6.382   4.985
28567WAT     H285944   8.240   6.307   4.867
28568WAT      O85945   9.001   2.113   4.395
28568WAT     H185946   9.090   2.140   4.357
28568WAT     H285947   8.941   2.084   4.321
28569WAT      O85948   9.610   0.663   1.641
28569WAT     H185949   9.538   0.728   1.667
28569WAT     H285950   9.605   0.645   1.543
28570WAT      O85951   4.402   9.687   4.268
28570WAT     H185952   4.487   9.739   4.278
28570WAT     H285953   4.369   9.697   4.174
28571WAT      O85954   8.250   3.698   3.512
28571WAT     H185955   8.205   3.782   3.482
28571WAT     H285956   8.322   3.720   3.578
28572WAT      O85957   0.768   6.889   8.928
28572WAT     H185958   0.724   6.826   8.864
28572WAT     H285959   0.707   6.908   9.004
28573WAT      O85960   0.746   3.794   7.348
28573WAT     H185961   0.835   3.788   7.302
28573WAT     H285962   0.760   3.815   7.445
28574WAT      O85963   1.924   2.789   1.304
28574WAT     H185964   1.895   2.833   1.219
28574WAT     H285965   1.907   2.690   1.297
28575WAT      O85966   7.031   3.521   9.372
28575WAT     H185967   7.025   3.610   9.327
28575WAT     H285968   6.964   3.459   9.331
28576WAT      O85969   0.905   5.614   4.614
28576WAT     H185970   0.888   5.594   4.711
28576WAT     H285971   1.002   5.629   4.599
28577WAT      O85972   2.142   2.078   8.887
28577WAT     H185973   2.043   2.074   8.880
28577WAT     H285974   2.184   2.028   8.810
28578WAT      O85975   0.962   4.613   0.870
28578WAT     H185976   1.005   4.671   0.940
28578WAT     H285977   1.032   4.559   0.824
28579WAT      O85978   3.326   5.537   1.439
28579WAT     H185979   3.302   5.633   1.428
28579WAT     H285980   3.423   5.525   1.418
28580WAT      O85981   0.927   3.461   1.124
28580WAT     H185982   0.989   3.401   1.074
28580WAT     H285983   0.941   3.556   1.094
28581WAT      O85984   1.553   4.398   3.225
28581WAT     H185985   1.613   4.442   3.158
28581WAT     H285986   1.469   4.452   3.235
28582WAT      O85987   0.391   0.411   9.823
28582WAT     H185988   0.396   0.346   9.747
28582WAT     H285989   0.481   0.420   9.865
28583WAT      O85990   5.059   5.638   0.870
28583WAT     H185991   5.138   5.691   0.840
28583WAT     H285992   5.089   5.551   0.908
28584WAT      O85993   6.233   2.626   8.782
28584WAT     H185994   6.227   2.716   8.825
28584WAT     H285995   6.265   2.559   8.849
28585WAT      O85996   2.128   9.617   3.320
28585WAT     H185997   2.075   9.701   3.332
28585WAT     H285998   2.175   9.595   3.406
28586WAT      O85999   2.318   5.913   3.901
28586WAT     H186000   2.393   5.916   3.967
28586WAT     H286001   2.231   5.924   3.948
28587WAT      O86002   0.976   4.472   3.723
28587WAT     H186003   1.001   4.569   3.715
28587WAT     H286004   1.037   4.427   3.788
28588WAT      O86005   2.079   6.876   9.380
28588WAT     H186006   2.074   6.955   9.319
28588WAT     H286007   2.088   6.908   9.475
28589WAT      O86008   1.127   6.784   6.565
28589WAT     H186009   1.208   6.841   6.553
28589WAT     H286010   1.155   6.693   6.595
28590WAT      O86011   1.329   4.082   8.589
28590WAT     H186012   1.260   4.042   8.529
28590WAT     H286013   1.331   4.181   8.576
28591WAT      O86014   3.445   2.215   3.742
28591WAT     H186015   3.381   2.264   3.801
28591WAT     H286016   3.488   2.141   3.794
28592WAT      O86017   4.910   0.149   2.826
28592WAT     H186018   4.821   0.108   2.843
28592WAT     H286019   4.902   0.249   2.829
28593WAT      O86020   8.262   8.120   0.413
28593WAT     H186021   8.328   8.166   0.472
28593WAT     H286022   8.277   8.149   0.318
28594WAT      O86023   3.942   0.162   6.207
28594WAT     H186024   4.015   0.162   6.275
28594WAT     H286025   3.898   0.252   6.206
28595WAT      O86026   2.044   0.527   6.557
28595WAT     H186027   2.105   0.558   6.484
28595WAT     H286028   1.951   0.522   6.522
28596WAT      O86029   9.486   1.996   3.259
28596WAT     H186030   9.525   2.054   3.331
28596WAT     H286031   9.388   2.010   3.253
28597WAT      O86032   7.919   0.350   1.729
28597WAT     H186033   7.903   0.381   1.822
28597WAT     H286034   7.838   0.371   1.673
28598WAT      O86035   2.154   8.843   4.773
28598WAT     H186036   2.127   8.842   4.869
28598WAT     H286037   2.198   8.755   4.750
28599WAT      O86038   1.633   1.310   0.643
28599WAT     H186039   1.653   1.305   0.741
28599WAT     H286040   1.673   1.393   0.605
28600WAT      O86041   3.529   9.600   0.137
28600WAT     H186042   3.592   9.538   0.185
28600WAT     H286043   3.445   9.550   0.114
28601WAT      O86044   8.732   8.476   0.321
28601WAT     H186045   8.763   8.462   0.227
28601WAT     H286046   8.751   8.570   0.349
28602WAT      O86047   4.011   4.448   3.153
28602WAT     H186048   3.929   4.491   3.116
28602WAT     H286049   3.998   4.349   3.157
28603WAT      O86050   8.802   8.249   6.260
28603WAT     H186051   8.763   8.168   6.304
28603WAT     H286052   8.731   8.318   6.249
28604WAT      O86053   0.065   8.763   5.863
28604WAT     H186054  -0.030   8.749   5.836
28604WAT     H286055   0.123   8.765   5.782
28605WAT      O86056   9.626   2.863   5.551
28605WAT     H186057   9.646   2.815   5.466
28605WAT     H286058   9.706   2.857   5.612
28606WAT      O86059   0.023   1.828   2.550
28606WAT     H186060  -0.031   1.761   2.501
28606WAT     H286061   0.047   1.903   2.488
28607WAT      O86062   7.495   4.698   8.541
28607WAT     H186063   7.562   4.771   8.554
28607WAT     H286064   7.479   4.652   8.628
28608WAT      O86065   1.251   3.769   7.526
28608WAT     H186066   1.322   3.793   7.459
28608WAT     H286067   1.260   3.829   7.606
28609WAT      O86068   7.671   2.942   6.527
28609WAT     H186069   7.587   2.978   6.488
28609WAT     H286070   7.750   2.975   6.475
28610WAT      O86071   7.166   0.428   1.529
28610WAT     H186072   7.088   0.400   1.474
28610WAT     H286073   7.241   0.455   1.469
28611WAT      O86074   8.865   3.706   7.899
28611WAT     H186075   8.899   3.701   7.993
28611WAT     H286076   8.837   3.800   7.879
28612WAT      O86077   0.875   3.129   3.448
28612WAT     H186078   0.871   3.229   3.449
28612WAT     H286079   0.951   3.099   3.390
28613WAT      O86080   8.709   5.812   1.529
28613WAT     H186081   8.753   5.855   1.607
28613WAT     H286082   8.710   5.875   1.451
28614WAT      O86083   8.462   3.746   6.349
28614WAT     H186084   8.365   3.741   6.373
28614WAT     H286085   8.472   3.749   6.249
28615WAT      O86086   3.642   0.819   4.800
28615WAT     H186087   3.585   0.745   4.766
28615WAT     H286088   3.710   0.844   4.731
28616WAT      O86089   9.012   3.232   2.204
28616WAT     H186090   8.932   3.280   2.168
28616WAT     H286091   9.062   3.293   2.266
28617WAT      O86092   0.427   9.354   4.587
28617WAT     H186093   0.480   9.384   4.666
28617WAT     H286094   0.451   9.410   4.507
28618WAT      O86095   6.041   9.567   3.726
28618WAT     H186096   6.036   9.506   3.647
28618WAT     H286097   6.134   9.566   3.762
28619WAT      O86098   4.494   7.782   1.174
28619WAT     H186099   4.404   7.745   1.150
28619WAT     H286100   4.533   7.828   1.094
28620WAT      O86101   1.502   1.496   7.004
28620WAT     H186102   1.526   1.575   6.948
28620WAT     H286103   1.422   1.450   6.965
28621WAT      O86104   2.087   3.399   7.932
28621WAT     H186105   2.062   3.367   7.841
28621WAT     H286106   2.111   3.496   7.927
28622WAT      O86107   1.559   0.910   3.869
28622WAT     H186108   1.584   0.822   3.911
28622WAT     H286109   1.545   0.896   3.771
28623WAT      O86110   2.717   5.753   6.504
28623WAT     H186111   2.814   5.734   6.487
28623WAT     H286112   2.688   5.829   6.446
28624WAT      O86113   4.710   8.535   0.075
28624WAT     H186114   4.799   8.515   0.118
28624WAT     H286115   4.656   8.593   0.135
28625WAT      O86116   2.977   5.734   6.689
28625WAT     H186117   2.978   5.833   6.700
28625WAT     H286118   2.978   5.712   6.592
28626WAT      O86119   7.872   3.666   5.080
28626WAT     H186120   7.856   3.657   5.178
28626WAT     H286121   7.947   3.730   5.064
28627WAT      O86122   0.031   4.072   4.860
28627WAT     H186123   0.113   4.019   4.837
28627WAT     H286124   0.002   4.123   4.780
28628WAT      O86125   7.376   1.216   2.427
28628WAT     H186126   7.313   1.222   2.349
28628WAT     H286127   7.387   1.306   2.468
28629WAT      O86128   6.044   2.191   5.376
28629WAT     H186129   6.008   2.280   5.349
28629WAT     H286130   6.010   2.120   5.314
28630WAT      O86131   1.921   3.124   6.805
28630WAT     H186132   1.824   3.148   6.808
28630WAT     H286133   1.931   3.025   6.810
28631WAT      O86134   0.410   7.052   5.148
28631WAT     H186135   0.487   7.059   5.084
28631WAT     H286136   0.406   7.136   5.203
28632WAT      O86137   2.490   6.243   1.097
28632WAT     H186138   2.395   6.242   1.128
28632WAT     H286139   2.509   6.159   1.046
28633WAT      O86140   1.809   1.746   9.016
28633WAT     H186141   1.904   1.719   9.033
28633WAT     H286142   1.791   1.834   9.059
28634WAT      O86143   9.011   3.080   7.565
28634WAT     H186144   9.042   3.034   7.481
28634WAT     H286145   9.079   3.148   7.593
28635WAT      O86146   4.514   3.710   9.173
28635WAT     H186147   4.470   3.626   9.142
28635WAT     H286148   4.501   3.720   9.272
28636WAT      O86149   7.755   8.052   0.469
28636WAT     H186150   7.845   8.086   0.441
28636WAT     H286151   7.762   7.955   0.494
28637WAT      O86152   6.457   2.742   0.450
28637WAT     H186153   6.540   2.687   0.448
28637WAT     H286154   6.381   2.687   0.485
28638WAT      O86155   0.639   3.881   4.054
28638WAT     H186156   0.545   3.891   4.022
28638WAT     H286157   0.639   3.852   4.150
28639WAT      O86158   2.596   6.731   0.713
28639WAT     H186159   2.610   6.725   0.811
28639WAT     H286160   2.680   6.761   0.669
28640WAT      O86161   0.041   6.241   1.675
28640WAT     H186162   0.094   6.270   1.595
28640WAT     H286163  -0.033   6.306   1.692
28641WAT      O86164   1.241   0.490   7.974
28641WAT     H186165   1.150   0.530   7.964
28641WAT     H286166   1.247   0.406   7.921
28642WAT      O86167   3.249   5.568   0.723
28642WAT     H186168   3.238   5.470   0.701
28642WAT     H286169   3.312   5.578   0.800
28643WAT      O86170   0.305   1.743   2.476
28643WAT     H186171   0.227   1.773   2.531
28643WAT     H286172   0.331   1.650   2.502
28644WAT      O86173   7.576   8.807   7.679
28644WAT     H186174   7.610   8.852   7.596
28644WAT     H286175   7.502   8.861   7.719
28645WAT      O86176   3.059   8.132   3.779
28645WAT     H186177   3.008   8.046   3.777
28645WAT     H286178   3.091   8.155   3.687
28646WAT      O86179   1.567   7.627   2.938
28646WAT     H186180   1.490   7.668   2.889
28646WAT     H286181   1.537   7.600   3.030
28647WAT      O86182   4.395   8.223   2.709
28647WAT     H186183   4.434   8.285   2.642
28647WAT     H286184   4.390   8.269   2.798
28648WAT      O86185   8.922   5.368   1.799
28648WAT     H186186   8.877   5.288   1.838
28648WAT     H286187   8.942   5.352   1.703
28649WAT      O86188   2.436   3.360   7.720
28649WAT     H186189   2.373   3.283   7.710
28649WAT     H286190   2.408   3.416   7.799
28650WAT      O86191   1.665   8.989   7.617
28650WAT     H186192   1.569   9.013   7.603
28650WAT     H286193   1.687   8.997   7.714
28651WAT      O86194   6.759   1.892   0.071
28651WAT     H186195   6.790   1.835  -0.005
28651WAT     H286196   6.731   1.981   0.037
28652WAT      O86197   7.738   6.909   1.275
28652WAT     H186198   7.812   6.866   1.223
28652WAT     H286199   7.672   6.950   1.211
28653WAT      O86200   8.150   1.725   5.381
28653WAT     H186201   8.210   1.798   5.414
28653WAT     H286202   8.123   1.668   5.459
28654WAT      O86203   3.349   1.249   4.354
28654WAT     H186204   3.423   1.203   4.405
28654WAT     H286205   3.371   1.346   4.344
28655WAT      O86206   1.111   3.773   8.444
28655WAT     H186207   1.179   3.838   8.409
28655WAT     H286208   1.070   3.724   8.368
28656WAT      O86209   0.261   0.547   8.402
28656WAT     H186210   0.294   0.586   8.316
28656WAT     H286211   0.173   0.501   8.386
28657WAT      O86212   5.292   0.471   3.852
28657WAT     H186213   5.221   0.417   3.896
28657WAT     H286214   5.258   0.564   3.836
28658WAT      O86215   8.213   1.289   5.784
28658WAT     H186216   8.123   1.265   5.823
28658WAT     H286217   8.200   1.330   5.694
28659WAT      O86218   7.023   1.159   6.373
28659WAT     H186219   7.030   1.246   6.323
28659WAT     H286220   6.944   1.108   6.341
28660WAT      O86221   2.579   3.024   2.225
28660WAT     H186222   2.565   2.975   2.311
28660WAT     H286223   2.646   2.974   2.170
28661WAT      O86224   6.554   3.836   4.247
28661WAT     H186225   6.499   3.890   4.311
28661WAT     H286226   6.651   3.845   4.270
28662WAT      O86227   0.105   7.701   8.831
28662WAT     H186228   0.093   7.752   8.917
28662WAT     H286229   0.161   7.620   8.849
28663WAT      O86230   4.067   3.713   6.884
28663WAT     H186231   4.095   3.725   6.980
28663WAT     H286232   3.971   3.687   6.880
28664WAT      O86233   6.675   1.811   9.026
28664WAT     H186234   6.621   1.888   8.992
28664WAT     H286235   6.700   1.752   8.949
28665WAT      O86236   1.073   2.808   5.730
28665WAT     H186237   1.049   2.827   5.825
28665WAT     H286238   0.991   2.810   5.674
28666WAT      O86239   7.725   3.925   7.339
28666WAT     H186240   7.683   4.012   7.315
28666WAT     H286241   7.657   3.852   7.330
28667WAT      O86242   8.091   1.080   1.134
28667WAT     H186243   8.140   1.114   1.214
28667WAT     H286244   8.055   1.157   1.081
28668WAT      O86245   9.876   6.347   4.443
28668WAT     H186246   9.904   6.259   4.406
28668WAT     H286247   9.904   6.353   4.539
28669WAT      O86248   9.840   6.252   9.136
28669WAT     H186249   9.938   6.236   9.122
28669WAT     H286250   9.827   6.344   9.173
28670WAT      O86251   5.835   2.232   8.548
28670WAT     H186252   5.760   2.298   8.535
28670WAT     H286253   5.909   2.254   8.485
28671WAT      O86254   9.104   4.851   3.342
28671WAT     H186255   9.029   4.784   3.342
28671WAT     H286256   9.138   4.862   3.248
28672WAT      O86257   8.873   9.126   7.191
28672WAT     H186258   8.827   9.166   7.111
28672WAT     H286259   8.971   9.141   7.184
28673WAT      O86260   5.257   8.948   0.107
28673WAT     H186261   5.225   8.871   0.162
28673WAT     H286262   5.304   9.014   0.165
28674WAT      O86263   6.396   2.731   5.813
28674WAT     H186264   6.402   2.811   5.754
28674WAT     H286265   6.321   2.743   5.879
28675WAT      O86266   1.846   2.371   1.489
28675WAT     H186267   1.873   2.435   1.417
28675WAT     H286268   1.746   2.367   1.494
28676WAT      O86269   0.707   6.454   5.916
28676WAT     H186270   0.656   6.392   5.855
28676WAT     H286271   0.716   6.412   6.006
28677WAT      O86272   6.291   1.635   7.904
28677WAT     H186273   6.330   1.641   7.811
28677WAT     H286274   6.261   1.541   7.920
28678WAT      O86275   4.589   2.540   7.597
28678WAT     H186276   4.497   2.521   7.562
28678WAT     H286277   4.656   2.489   7.544
28679WAT      O86278   0.382   4.895   2.331
28679WAT     H186279   0.383   4.947   2.245
28679WAT     H286280   0.449   4.822   2.327
28680WAT      O86281   1.915   5.005   5.093
28680WAT     H186282   1.886   4.972   5.003
28680WAT     H286283   2.003   5.052   5.085
28681WAT      O86284   7.936   5.090   2.810
28681WAT     H186285   7.843   5.113   2.837
28681WAT     H286286   7.951   5.118   2.715
28682WAT      O86287   5.184   3.973   4.839
28682WAT     H186288   5.141   4.034   4.907
28682WAT     H286289   5.268   4.015   4.806
28683WAT      O86290   8.291   8.398   8.602
28683WAT     H186291   8.312   8.447   8.686
28683WAT     H286292   8.336   8.308   8.604
28684WAT      O86293   4.718   2.238   1.019
28684WAT     H186294   4.808   2.273   1.044
28684WAT     H286295   4.708   2.145   1.055
28685WAT      O86296   9.750   8.551   2.526
28685WAT     H186297   9.776   8.505   2.441
28685WAT     H286298   9.781   8.646   2.524
28686WAT      O86299   5.684   1.407   4.543
28686WAT     H186300   5.656   1.475   4.610
28686WAT     H286301   5.754   1.446   4.483
28687WAT      O86302   6.536   2.522   1.298
28687WAT     H186303   6.451   2.567   1.270
28687WAT     H286304   6.517   2.454   1.368
28688WAT      O86305   4.999   7.288   6.502
28688WAT     H186306   4.958   7.375   6.528
28688WAT     H286307   5.017   7.233   6.584
28689WAT      O86308   9.528   2.924   8.922
28689WAT     H186309   9.437   2.908   8.884
28689WAT     H286310   9.595   2.870   8.871
28690WAT      O86311   0.738   8.406   3.881
28690WAT     H186312   0.800   8.352   3.825
28690WAT     H286313   0.791   8.467   3.940
28691WAT      O86314   5.994   1.056   0.750
28691WAT     H186315   5.948   0.968   0.764
28691WAT     H286316   5.929   1.131   0.764
28692WAT      O86317   9.805   8.809   7.739
28692WAT     H186318   9.760   8.839   7.823
28692WAT     H286319   9.834   8.714   7.749
28693WAT      O86320   1.390   2.393   3.174
28693WAT     H186321   1.485   2.376   3.148
28693WAT     H286322   1.336   2.412   3.092
28694WAT      O86323   1.516   0.234   9.620
28694WAT     H186324   1.610   0.209   9.642
28694WAT     H286325   1.514   0.324   9.576
28695WAT      O86326   9.385   8.550   2.945
28695WAT     H186327   9.467   8.577   2.894
28695WAT     H286328   9.312   8.617   2.928
28696WAT      O86329   2.857   7.055   5.277
28696WAT     H186330   2.907   7.142   5.279
28696WAT     H286331   2.906   6.990   5.219
28697WAT      O86332   3.677   1.241   6.383
28697WAT     H186333   3.627   1.300   6.446
28697WAT     H286334   3.771   1.275   6.372
28698WAT      O86335   8.406   8.063   3.036
28698WAT     H186336   8.473   8.110   3.092
28698WAT     H286337   8.345   8.009   3.095
28699WAT      O86338   5.370   3.587   6.687
28699WAT     H186339   5.431   3.664   6.707
28699WAT     H286340   5.417   3.521   6.629
28700WAT      O86341   2.048   5.206   8.384
28700WAT     H186342   1.996   5.122   8.399
28700WAT     H286343   2.125   5.210   8.447
28701WAT      O86344   2.746   9.097   3.940
28701WAT     H186345   2.824   9.060   3.991
28701WAT     H286346   2.663   9.084   3.993
28702WAT      O86347   9.240   7.437   4.658
28702WAT     H186348   9.244   7.455   4.559
28702WAT     H286349   9.330   7.406   4.690
28703WAT      O86350   1.526   9.477   7.973
28703WAT     H186351   1.553   9.553   8.032
28703WAT     H286352   1.483   9.406   8.029
28704WAT      O86353   2.984   3.997   5.064
28704WAT     H186354   2.904   3.945   5.035
28704WAT     H286355   3.067   3.946   5.040
28705WAT      O86356   1.991   3.068   0.413
28705WAT     H186357   2.056   3.119   0.469
28705WAT     H286358   1.898   3.085   0.444
28706WAT      O86359   4.239   5.181   0.837
28706WAT     H186360   4.248   5.085   0.809
28706WAT     H286361   4.193   5.232   0.764
28707WAT      O86362   4.115   5.131   2.170
28707WAT     H186363   4.033   5.136   2.113
28707WAT     H286364   4.195   5.118   2.112
28708WAT      O86365   3.735   3.732   5.401
28708WAT     H186366   3.641   3.745   5.369
28708WAT     H286367   3.792   3.701   5.325
28709WAT      O86368   0.641   6.217   4.422
28709WAT     H186369   0.544   6.223   4.398
28709WAT     H286370   0.649   6.181   4.515
28710WAT      O86371   1.119   3.836   2.043
28710WAT     H186372   1.082   3.751   2.080
28710WAT     H286373   1.100   3.842   1.945
28711WAT      O86374   3.884   5.395   8.615
28711WAT     H186375   3.900   5.319   8.678
28711WAT     H286376   3.951   5.390   8.541
28712WAT      O86377   8.241   8.233   6.917
28712WAT     H186378   8.185   8.207   6.995
28712WAT     H286379   8.251   8.332   6.914
28713WAT      O86380   2.861   6.955   1.202
28713WAT     H186381   2.845   6.954   1.103
28713WAT     H286382   2.782   6.917   1.249
28714WAT      O86383   5.463   7.729   7.541
28714WAT     H186384   5.459   7.632   7.564
28714WAT     H286385   5.488   7.740   7.445
28715WAT      O86386   6.097   1.328   8.264
28715WAT     H186387   6.123   1.235   8.290
28715WAT     H286388   6.161   1.393   8.305
28716WAT      O86389   1.194   5.078   5.124
28716WAT     H186390   1.185   5.114   5.217
28716WAT     H286391   1.115   5.019   5.104
28717WAT      O86392   1.718   6.715   7.975
28717WAT     H186393   1.640   6.777   7.986
28717WAT     H286394   1.783   6.755   7.910
28718WAT      O86395   7.693   1.761   8.182
28718WAT     H186396   7.650   1.779   8.093
28718WAT     H286397   7.791   1.776   8.174
28719WAT      O86398   8.420   2.738   7.834
28719WAT     H186399   8.482   2.809   7.801
28719WAT     H286400   8.407   2.748   7.933
28720WAT      O86401   3.647   9.395   8.648
28720WAT     H186402   3.648   9.422   8.552
28720WAT     H286403   3.663   9.475   8.706
28721WAT      O86404   4.968   3.344   6.584
28721WAT     H186405   5.003   3.420   6.637
28721WAT     H286406   5.001   3.351   6.489
28722WAT      O86407   6.877   8.033   3.343
28722WAT     H186408   6.888   8.124   3.384
28722WAT     H286409   6.835   7.971   3.410
28723WAT      O86410   5.952   6.315   0.545
28723WAT     H186411   5.939   6.283   0.639
28723WAT     H286412   6.048   6.339   0.532
28724WAT      O86413   9.620   5.279   5.061
28724WAT     H186414   9.554   5.218   5.017
28724WAT     H286415   9.682   5.225   5.119
28725WAT      O86416   2.536   3.749   4.335
28725WAT     H186417   2.605   3.680   4.354
28725WAT     H286418   2.580   3.834   4.306
28726WAT      O86419   2.042   4.208   9.509
28726WAT     H186420   2.041   4.298   9.552
28726WAT     H286421   2.061   4.138   9.578
28727WAT      O86422   5.571   0.367   5.889
28727WAT     H186423   5.500   0.325   5.944
28727WAT     H286424   5.650   0.390   5.946
28728WAT      O86425   7.873   7.204   9.784
28728WAT     H186426   7.922   7.242   9.862
28728WAT     H286427   7.937   7.156   9.724
28729WAT      O86428   5.978   1.583   8.915
28729WAT     H186429   5.881   1.560   8.904
28729WAT     H286430   6.000   1.590   9.012
28730WAT      O86431   7.799   0.166   7.642
28730WAT     H186432   7.708   0.189   7.607
28730WAT     H286433   7.860   0.245   7.631
28731WAT      O86434   8.506   3.715   5.580
28731WAT     H186435   8.497   3.683   5.486
28731WAT     H286436   8.532   3.639   5.639
28732WAT      O86437   9.037   9.387   9.848
28732WAT     H186438   9.124   9.417   9.808
28732WAT     H286439   9.035   9.287   9.851
28733WAT      O86440   7.585   4.060   2.368
28733WAT     H186441   7.597   4.033   2.464
28733WAT     H286442   7.512   4.127   2.361
28734WAT      O86443   9.103   1.063   7.157
28734WAT     H186444   9.154   1.146   7.134
28734WAT     H286445   9.150   1.015   7.231
28735WAT      O86446   1.578   7.209   4.742
28735WAT     H186447   1.496   7.209   4.685
28735WAT     H286448   1.640   7.282   4.713
28736WAT      O86449   5.173   2.147   9.471
28736WAT     H186450   5.165   2.064   9.526
28736WAT     H286451   5.101   2.149   9.402
28737WAT      O86452   9.583   0.335   4.924
28737WAT     H186453   9.545   0.426   4.935
28737WAT     H286454   9.552   0.276   4.999
28738WAT      O86455   7.839   4.071   4.737
28738WAT     H186456   7.870   3.999   4.676
28738WAT     H286457   7.855   4.160   4.695
28739WAT      O86458   5.992   8.241   9.255
28739WAT     H186459   5.907   8.190   9.251
28739WAT     H286460   6.069   8.177   9.252
28740WAT      O86461   0.454   3.219   7.615
28740WAT     H186462   0.516   3.175   7.680
28740WAT     H286463   0.506   3.247   7.534
28741WAT      O86464   7.828   0.764   0.789
28741WAT     H186465   7.791   0.816   0.866
28741WAT     H286466   7.927   0.770   0.788
28742WAT      O86467   2.241   5.934   6.836
28742WAT     H186468   2.281   5.994   6.766
28742WAT     H286469   2.294   5.942   6.920
28743WAT      O86470   2.393   9.084   2.062
28743WAT     H186471   2.455   9.014   2.096
28743WAT     H286472   2.440   9.142   1.996
28744WAT      O86473   0.182   1.928   5.890
28744WAT     H186474   0.093   1.921   5.933
28744WAT     H286475   0.254   1.919   5.959
28745WAT      O86476   3.682   3.410   8.155
28745WAT     H186477   3.632   3.370   8.078
28745WAT     H286478   3.772   3.367   8.163
28746WAT      O86479   1.287   4.401   1.382
28746WAT     H186480   1.242   4.371   1.466
28746WAT     H286481   1.343   4.482   1.401
28747WAT      O86482   4.406   3.456   8.838
28747WAT     H186483   4.411   3.446   8.937
28747WAT     H286484   4.489   3.501   8.805
28748WAT      O86485   8.286   8.768   5.075
28748WAT     H186486   8.314   8.688   5.129
28748WAT     H286487   8.351   8.782   5.001
28749WAT      O86488   2.758   9.209   8.578
28749WAT     H186489   2.781   9.167   8.490
28749WAT     H286490   2.713   9.297   8.562
28750WAT      O86491   3.515   5.745   5.639
28750WAT     H186492   3.514   5.837   5.600
28750WAT     H286493   3.486   5.749   5.735
28751WAT      O86494   0.168   6.131   1.241
28751WAT     H186495   0.236   6.060   1.259
28751WAT     H286496   0.077   6.097   1.266
28752WAT      O86497   2.437   4.871   2.889
28752WAT     H186498   2.400   4.914   2.971
28752WAT     H286499   2.392   4.910   2.808
28753WAT      O86500   9.123   7.058   5.165
28753WAT     H186501   9.125   7.139   5.223
28753WAT     H286502   9.215   7.020   5.158
28754WAT      O86503   2.691   9.637   2.530
28754WAT     H186504   2.631   9.700   2.581
28754WAT     H286505   2.636   9.564   2.490
28755WAT      O86506   6.681   3.063   8.481
28755WAT     H186507   6.732   3.148   8.467
28755WAT     H286508   6.650   3.059   8.576
28756WAT      O86509   5.809   6.853   9.468
28756WAT     H186510   5.792   6.920   9.395
28756WAT     H286511   5.869   6.893   9.537
28757WAT      O86512   2.679   3.840   6.747
28757WAT     H186513   2.627   3.890   6.816
28757WAT     H286514   2.652   3.744   6.748
28758WAT      O86515   0.742   6.107   6.370
28758WAT     H186516   0.706   6.177   6.432
28758WAT     H286517   0.685   6.103   6.288
28759WAT      O86518   2.394   7.515   9.562
28759WAT     H186519   2.393   7.445   9.633
28759WAT     H286520   2.380   7.472   9.473
28760WAT      O86521   0.240   3.095   4.508
28760WAT     H186522   0.175   3.028   4.545
28760WAT     H286523   0.303   3.049   4.446
28761WAT      O86524   4.161   8.667   1.264
28761WAT     H186525   4.064   8.670   1.239
28761WAT     H286526   4.196   8.761   1.270
28762WAT      O86527   8.625   2.985   9.014
28762WAT     H186528   8.576   3.035   8.942
28762WAT     H286529   8.564   2.969   9.091
28763WAT      O86530   2.496   8.889   8.454
28763WAT     H186531   2.422   8.903   8.519
28763WAT     H286532   2.574   8.848   8.501
28764WAT      O86533   5.841   0.986   7.383
28764WAT     H186534   5.788   1.020   7.461
28764WAT     H286535   5.914   1.051   7.361
28765WAT      O86536   4.345   2.831   5.759
28765WAT     H186537   4.248   2.832   5.735
28765WAT     H286538   4.394   2.895   5.700
28766WAT      O86539   5.282   0.396   0.809
28766WAT     H186540   5.241   0.383   0.899
28766WAT     H286541   5.238   0.473   0.763
28767WAT      O86542   3.483   6.137   2.663
28767WAT     H186543   3.513   6.060   2.606
28767WAT     H286544   3.552   6.210   2.659
28768WAT      O86545   8.280   6.456   7.830
28768WAT     H186546   8.187   6.494   7.837
28768WAT     H286547   8.300   6.435   7.735
28769WAT      O86548   5.949   7.667   4.836
28769WAT     H186549   6.007   7.600   4.882
28769WAT     H286550   5.864   7.679   4.888
28770WAT      O86551   0.226   2.574   5.925
28770WAT     H186552   0.142   2.627   5.914
28770WAT     H286553   0.213   2.506   5.997
28771WAT      O86554   4.792   6.112   2.960
28771WAT     H186555   4.702   6.109   3.004
28771WAT     H286556   4.830   6.204   2.970
28772WAT      O86557   6.415   9.521   5.277
28772WAT     H186558   6.325   9.499   5.241
28772WAT     H286559   6.482   9.520   5.204
28773WAT      O86560   9.405   8.050   2.861
28773WAT     H186561   9.364   8.062   2.952
28773WAT     H286562   9.355   7.980   2.811
28774WAT      O86563   9.469   8.700   0.902
28774WAT     H186564   9.547   8.739   0.852
28774WAT     H286565   9.503   8.634   0.970
28775WAT      O86566   2.293   5.129   5.739
28775WAT     H186567   2.341   5.079   5.811
28775WAT     H286568   2.337   5.218   5.725
28776WAT      O86569   7.920   3.262   0.310
28776WAT     H186570   7.929   3.319   0.229
28776WAT     H286571   7.892   3.319   0.388
28777WAT      O86572   9.516   4.820   4.762
28777WAT     H186573   9.567   4.892   4.808
28777WAT     H286574   9.530   4.733   4.809
28778WAT      O86575   9.711   4.059   7.572
28778WAT     H186576   9.650   4.115   7.516
28778WAT     H286577   9.760   4.117   7.637
28779WAT      O86578   6.634   3.852   2.959
28779WAT     H186579   6.555   3.898   3.000
28779WAT     H286580   6.609   3.817   2.868
28780WAT      O86581   5.440   7.277   2.625
28780WAT     H186582   5.366   7.341   2.604
28780WAT     H286583   5.519   7.296   2.566
28781WAT      O86584   6.661   5.653   8.890
28781WAT     H186585   6.651   5.726   8.822
28781WAT     H286586   6.696   5.692   8.975
28782WAT      O86587   2.696   7.926   9.805
28782WAT     H186588   2.780   7.958   9.761
28782WAT     H286589   2.648   7.863   9.744
28783WAT      O86590   3.004   7.040   8.877
28783WAT     H186591   2.951   7.087   8.805
28783WAT     H286592   3.091   7.088   8.889
28784WAT      O86593   8.765   3.959   7.904
28784WAT     H186594   8.686   3.965   7.965
28784WAT     H286595   8.835   4.025   7.932
28785WAT      O86596   0.956   4.888   5.323
28785WAT     H186597   1.041   4.872   5.274
28785WAT     H286598   0.884   4.831   5.282
28786WAT      O86599   1.977   7.540   3.370
28786WAT     H186600   1.966   7.463   3.433
28786WAT     H286601   2.036   7.511   3.294
28787WAT      O86602   6.309   6.970   9.519
28787WAT     H186603   6.289   6.939   9.426
28787WAT     H286604   6.371   7.048   9.516
28788WAT      O86605   9.738   2.996   3.823
28788WAT     H186606   9.727   3.088   3.861
28788WAT     H286607   9.650   2.965   3.786
28789WAT      O86608   1.745   6.084   1.716
28789WAT     H186609   1.820   6.122   1.770
28789WAT     H286610   1.670   6.150   1.712
28790WAT      O86611   3.547   9.572   7.813
28790WAT     H186612   3.551   9.472   7.809
28790WAT     H286613   3.624   9.610   7.761
28791WAT      O86614   5.828   5.328   1.998
28791WAT     H186615   5.924   5.318   2.024
28791WAT     H286616   5.812   5.421   1.966
28792WAT      O86617   8.847   5.170   1.436
28792WAT     H186618   8.891   5.218   1.360
28792WAT     H286619   8.818   5.237   1.505
28793WAT      O86620   7.086   5.050   2.257
28793WAT     H186621   7.153   5.073   2.327
28793WAT     H286622   7.035   4.968   2.284
28794WAT      O86623   4.412   4.312   1.684
28794WAT     H186624   4.438   4.408   1.683
28794WAT     H286625   4.396   4.280   1.591
28795WAT      O86626   7.093   5.911   8.877
28795WAT     H186627   7.099   5.839   8.946
28795WAT     H286628   7.046   5.990   8.915
28796WAT      O86629   3.680   7.853   9.419
28796WAT     H186630   3.618   7.921   9.381
28796WAT     H286631   3.663   7.764   9.377
28797WAT      O86632   5.347   9.575   1.540
28797WAT     H186633   5.319   9.479   1.537
28797WAT     H286634   5.267   9.632   1.559
28798WAT      O86635   7.272   8.842   6.864
28798WAT     H186636   7.276   8.755   6.913
28798WAT     H286637   7.289   8.827   6.767
28799WAT      O86638   8.299   5.330   9.814
28799WAT     H186639   8.230   5.288   9.755
28799WAT     H286640   8.267   5.329   9.909
28800WAT      O86641   9.376   1.368   0.217
28800WAT     H186642   9.472   1.385   0.196
28800WAT     H286643   9.325   1.454   0.212
28801WAT      O86644   7.461   6.828   7.336
28801WAT     H186645   7.376   6.802   7.382
28801WAT     H286646   7.442   6.895   7.265
28802WAT      O86647   5.584   8.341   1.628
28802WAT     H186648   5.572   8.386   1.717
28802WAT     H286649   5.595   8.242   1.643
28803WAT      O86650   6.309   8.753   2.288
28803WAT     H186651   6.210   8.769   2.296
28803WAT     H286652   6.325   8.662   2.251
28804WAT      O86653   6.567   5.583   1.631
28804WAT     H186654   6.516   5.504   1.663
28804WAT     H286655   6.600   5.636   1.709
28805WAT      O86656   5.022   6.297   8.520
28805WAT     H186657   4.926   6.327   8.525
28805WAT     H286658   5.081   6.377   8.509
28806WAT      O86659   0.545   3.860   6.329
28806WAT     H186660   0.515   3.950   6.295
28806WAT     H286661   0.507   3.788   6.272
28807WAT      O86662   7.209   0.770   6.472
28807WAT     H186663   7.199   0.859   6.516
28807WAT     H286664   7.250   0.705   6.536
28808WAT      O86665   7.612   9.624   8.295
28808WAT     H186666   7.617   9.620   8.195
28808WAT     H286667   7.649   9.712   8.326
28809WAT      O86668   9.631   0.820   2.305
28809WAT     H186669   9.603   0.728   2.279
28809WAT     H286670   9.670   0.867   2.225
28810WAT      O86671   5.218   5.185   7.805
28810WAT     H186672   5.283   5.257   7.832
28810WAT     H286673   5.197   5.193   7.708
28811WAT      O86674   2.886   3.593   2.240
28811WAT     H186675   2.921   3.582   2.147
28811WAT     H286676   2.954   3.560   2.306
28812WAT      O86677   5.231   7.275   6.302
28812WAT     H186678   5.298   7.233   6.362
28812WAT     H286679   5.141   7.274   6.346
28813WAT      O86680   2.033   0.820   7.128
28813WAT     H186681   1.943   0.829   7.171
28813WAT     H286682   2.104   0.816   7.198
28814WAT      O86683   1.954   9.021   6.733
28814WAT     H186684   1.933   9.087   6.805
28814WAT     H286685   2.045   9.040   6.696
28815WAT      O86686   1.102   5.878   2.132
28815WAT     H186687   1.090   5.846   2.225
28815WAT     H286688   1.013   5.896   2.091
28816WAT      O86689   2.853   9.086   8.072
28816WAT     H186690   2.905   9.001   8.079
28816WAT     H286691   2.915   9.163   8.064
28817WAT      O86692   1.480   4.904   8.431
28817WAT     H186693   1.391   4.866   8.455
28817WAT     H286694   1.537   4.833   8.389
28818WAT      O86695   1.816   9.017   0.240
28818WAT     H186696   1.915   9.022   0.236
28818WAT     H286697   1.778   9.109   0.253
28819WAT      O86698   0.794   4.403   7.291
28819WAT     H186699   0.868   4.438   7.350
28819WAT     H286700   0.777   4.469   7.217
28820WAT      O86701   6.325   4.061   1.982
28820WAT     H186702   6.388   4.104   1.917
28820WAT     H286703   6.246   4.121   1.996
28821WAT      O86704   7.708   2.635   2.438
28821WAT     H186705   7.662   2.579   2.370
28821WAT     H286706   7.797   2.663   2.402
28822WAT      O86707   4.173   1.000   3.129
28822WAT     H186708   4.119   0.918   3.147
28822WAT     H286709   4.243   0.980   3.061
28823WAT      O86710   8.075   5.984   9.634
28823WAT     H186711   8.040   6.033   9.714
28823WAT     H286712   8.021   6.008   9.553
28824WAT      O86713   4.481   8.190   0.947
28824WAT     H186714   4.390   8.177   0.987
28824WAT     H286715   4.525   8.269   0.991
28825WAT      O86716   3.976   4.342   0.628
28825WAT     H186717   3.936   4.387   0.707
28825WAT     H286718   3.967   4.243   0.638
28826WAT      O86719   3.856   2.668   6.164
28826WAT     H186720   3.800   2.589   6.139
28826WAT     H286721   3.919   2.643   6.237
28827WAT      O86722   4.614   9.323   8.903
28827WAT     H186723   4.552   9.394   8.935
28827WAT     H286724   4.696   9.321   8.962
28828WAT      O86725   4.735   5.669   2.997
28828WAT     H186726   4.795   5.621   3.061
28828WAT     H286727   4.704   5.605   2.926
28829WAT      O86728   5.014   3.565   0.294
28829WAT     H186729   5.087   3.565   0.363
28829WAT     H286730   5.007   3.655   0.252
28830WAT      O86731   5.454   7.341   7.533
28830WAT     H186732   5.501   7.257   7.507
28830WAT     H286733   5.367   7.347   7.483
28831WAT      O86734   7.142   9.693   8.364
28831WAT     H186735   7.068   9.693   8.431
28831WAT     H286736   7.225   9.658   8.406
28832WAT      O86737   5.001   0.739   7.366
28832WAT     H186738   5.036   0.750   7.459
28832WAT     H286739   4.901   0.736   7.369
28833WAT      O86740   1.802   4.921   0.664
28833WAT     H186741   1.802   4.891   0.569
28833WAT     H286742   1.733   4.993   0.676
28834WAT      O86743   7.286   8.668   3.710
28834WAT     H186744   7.249   8.696   3.622
28834WAT     H286745   7.217   8.615   3.760
28835WAT      O86746   8.117   2.982   2.244
28835WAT     H186747   8.130   2.970   2.342
28835WAT     H286748   8.167   2.911   2.195
28836WAT      O86749   4.539   0.404   8.727
28836WAT     H186750   4.620   0.462   8.717
28836WAT     H286751   4.520   0.359   8.640
28837WAT      O86752   1.983   7.755   9.838
28837WAT     H186753   2.031   7.793   9.759
28837WAT     H286754   1.887   7.737   9.813
28838WAT      O86755   3.586   6.827   6.586
28838WAT     H186756   3.525   6.899   6.554
28838WAT     H286757   3.675   6.836   6.542
28839WAT      O86758   0.150   6.637   4.623
28839WAT     H186759   0.101   6.654   4.708
28839WAT     H286760   0.085   6.640   4.546
28840WAT      O86761   8.548   2.969   7.763
28840WAT     H186762   8.617   3.004   7.699
28840WAT     H286763   8.594   2.932   7.844
28841WAT      O86764   8.780   9.820   0.757
28841WAT     H186765   8.712   9.848   0.824
28841WAT     H286766   8.807   9.898   0.702
28842WAT      O86767   2.992   7.194   4.214
28842WAT     H186768   3.065   7.216   4.278
28842WAT     H286769   2.920   7.142   4.261
28843WAT      O86770   1.840   3.324   9.632
28843WAT     H186771   1.843   3.279   9.543
28843WAT     H286772   1.920   3.383   9.642
28844WAT      O86773   4.597   0.222   3.919
28844WAT     H186774   4.591   0.123   3.932
28844WAT     H286775   4.663   0.260   3.983
28845WAT      O86776   5.891   1.038   8.929
28845WAT     H186777   5.879   1.134   8.903
28845WAT     H286778   5.967   0.999   8.878
28846WAT      O86779   8.708   5.682   5.695
28846WAT     H186780   8.782   5.748   5.684
28846WAT     H286781   8.651   5.709   5.773
28847WAT      O86782   2.221   9.267   0.829
28847WAT     H186783   2.252   9.179   0.793
28847WAT     H286784   2.142   9.253   0.889
28848WAT      O86785   9.557   7.398   9.516
28848WAT     H186786   9.569   7.320   9.577
28848WAT     H286787   9.503   7.370   9.437
28849WAT      O86788   8.290   6.666   1.399
28849WAT     H186789   8.262   6.696   1.490
28849WAT     H286790   8.226   6.598   1.365
28850WAT      O86791   6.644   4.283   0.219
28850WAT     H186792   6.569   4.319   0.164
28850WAT     H286793   6.669   4.192   0.187
28851WAT      O86794   1.354   8.933   5.566
28851WAT     H186795   1.420   8.883   5.621
28851WAT     H286796   1.365   8.908   5.470
28852WAT      O86797   6.526   1.744   0.019
28852WAT     H186798   6.591   1.789   0.080
28852WAT     H286799   6.441   1.724   0.068
28853WAT      O86800   2.387   7.346   9.854
28853WAT     H186801   2.362   7.348   9.951
28853WAT     H286802   2.316   7.300   9.802
28854WAT      O86803   3.859   1.332   1.960
28854WAT     H186804   3.823   1.350   2.052
28854WAT     H286805   3.807   1.385   1.893
28855WAT      O86806   4.089   0.460   8.258
28855WAT     H186807   4.189   0.467   8.255
28855WAT     H286808   4.062   0.410   8.340
28856WAT      O86809   1.256   0.709   6.017
28856WAT     H186810   1.239   0.763   6.100
28856WAT     H286811   1.349   0.726   5.986
28857WAT      O86812   5.508   7.559   5.730
28857WAT     H186813   5.492   7.641   5.785
28857WAT     H286814   5.603   7.556   5.701
28858WAT      O86815   0.734   5.047   3.438
28858WAT     H186816   0.763   4.962   3.484
28858WAT     H286817   0.803   5.118   3.453
28859WAT      O86818   9.818   3.294   4.687
28859WAT     H186819   9.906   3.335   4.712
28859WAT     H286820   9.753   3.367   4.665
28860WAT      O86821   0.492   4.933   5.682
28860WAT     H186822   0.531   4.886   5.762
28860WAT     H286823   0.399   4.965   5.705
28861WAT      O86824   9.471   1.213   3.451
28861WAT     H186825   9.569   1.228   3.457
28861WAT     H286826   9.425   1.299   3.428
28862WAT      O86827   1.204   7.083   1.002
28862WAT     H186828   1.211   7.054   0.906
28862WAT     H286829   1.164   7.175   1.006
28863WAT      O86830   8.957   0.324   7.961
28863WAT     H186831   8.914   0.405   7.999
28863WAT     H286832   8.944   0.324   7.861
28864WAT      O86833   0.652   8.386   0.756
28864WAT     H186834   0.647   8.485   0.767
28864WAT     H286835   0.566   8.352   0.718
28865WAT      O86836   7.207   4.423   1.428
28865WAT     H186837   7.305   4.428   1.446
28865WAT     H286838   7.173   4.332   1.451
28866WAT      O86839   8.864   6.756   4.561
28866WAT     H186840   8.904   6.778   4.472
28866WAT     H286841   8.858   6.839   4.617
28867WAT      O86842   5.235   5.831   6.637
28867WAT     H186843   5.188   5.838   6.549
28867WAT     H286844   5.236   5.736   6.668
28868WAT      O86845   6.331   5.956   8.803
28868WAT     H186846   6.326   5.858   8.824
28868WAT     H286847   6.364   6.005   8.883
28869WAT      O86848   6.957   5.411   8.904
28869WAT     H186849   6.999   5.348   8.840
28869WAT     H286850   6.924   5.361   8.984
28870WAT      O86851   3.984   5.406   9.775
28870WAT     H186852   3.971   5.459   9.859
28870WAT     H286853   3.970   5.465   9.696
28871WAT      O86854   7.495   9.288   0.399
28871WAT     H186855   7.547   9.223   0.343
28871WAT     H286856   7.547   9.312   0.481
28872WAT      O86857   0.289   3.204   4.088
28872WAT     H186858   0.313   3.162   4.176
28872WAT     H286859   0.359   3.271   4.063
28873WAT      O86860   3.968   1.655   5.108
28873WAT     H186861   4.014   1.727   5.058
28873WAT     H286862   3.893   1.618   5.053
28874WAT      O86863   5.829   6.615   4.800
28874WAT     H186864   5.802   6.708   4.824
28874WAT     H286865   5.870   6.570   4.880
28875WAT      O86866   8.639   1.931   9.192
28875WAT     H186867   8.682   1.843   9.171
28875WAT     H286868   8.542   1.927   9.170
28876WAT      O86869   6.983   6.768   9.601
28876WAT     H186870   7.011   6.843   9.661
28876WAT     H286871   6.927   6.703   9.652
28877WAT      O86872   4.498   2.190   8.790
28877WAT     H186873   4.453   2.149   8.710
28877WAT     H286874   4.433   2.197   8.865
28878WAT      O86875   2.772   9.320   0.872
28878WAT     H186876   2.676   9.329   0.899
28878WAT     H286877   2.824   9.281   0.948
28879WAT      O86878   0.425   2.745   1.649
28879WAT     H186879   0.446   2.658   1.603
28879WAT     H286880   0.495   2.812   1.626
28880WAT      O86881   4.474   1.346   8.028
28880WAT     H186882   4.558   1.387   8.065
28880WAT     H286883   4.485   1.330   7.930
28881WAT      O86884   8.818   9.365   2.460
28881WAT     H186885   8.814   9.463   2.481
28881WAT     H286886   8.830   9.314   2.545
28882WAT      O86887   4.401   1.557   0.150
28882WAT     H186888   4.319   1.500   0.153
28882WAT     H286889   4.456   1.541   0.232
28883WAT      O86890   6.791   3.614   5.837
28883WAT     H186891   6.716   3.549   5.846
28883WAT     H286892   6.843   3.594   5.754
28884WAT      O86893   0.776   4.010   2.771
28884WAT     H186894   0.718   4.088   2.744
28884WAT     H286895   0.852   4.043   2.828
28885WAT      O86896   4.272   5.781   6.865
28885WAT     H186897   4.299   5.764   6.770
28885WAT     H286898   4.189   5.729   6.886
28886WAT      O86899   8.774   6.830   7.044
28886WAT     H186900   8.823   6.864   6.964
28886WAT     H286901   8.790   6.890   7.122
28887WAT      O86902   2.348   9.598   5.791
28887WAT     H186903   2.305   9.518   5.832
28887WAT     H286904   2.278   9.667   5.773
28888WAT      O86905   6.799   5.135   4.400
28888WAT     H186906   6.842   5.217   4.437
28888WAT     H286907   6.705   5.128   4.434
28889WAT      O86908   6.444   7.135   5.289
28889WAT     H186909   6.463   7.225   5.250
28889WAT     H286910   6.530   7.084   5.298
28890WAT      O86911   2.375   9.572   7.668
28890WAT     H186912   2.432   9.623   7.604
28890WAT     H286913   2.286   9.618   7.677
28891WAT      O86914   2.286   7.929   7.392
28891WAT     H186915   2.328   7.839   7.404
28891WAT     H286916   2.323   7.993   7.459
28892WAT      O86917   2.424   3.009   6.923
28892WAT     H186918   2.379   3.008   7.012
28892WAT     H286919   2.515   3.050   6.932
28893WAT      O86920   4.331   2.796   1.694
28893WAT     H186921   4.371   2.733   1.761
28893WAT     H286922   4.380   2.883   1.696
28894WAT      O86923   6.519   6.189   8.940
28894WAT     H186924   6.554   6.282   8.946
28894WAT     H286925   6.423   6.188   8.969
28895WAT      O86926   5.919   3.394   0.579
28895WAT     H186927   6.014   3.369   0.595
28895WAT     H286928   5.912   3.448   0.495
28896WAT      O86929   1.964   3.067   4.200
28896WAT     H186930   1.942   2.970   4.186
28896WAT     H286931   1.884   3.123   4.177
28897WAT      O86932   7.655   7.746   6.303
28897WAT     H186933   7.640   7.693   6.386
28897WAT     H286934   7.713   7.694   6.240
28898WAT      O86935   4.737   2.805   1.901
28898WAT     H186936   4.697   2.878   1.957
28898WAT     H286937   4.747   2.723   1.956
28899WAT      O86938   2.376   4.832   6.586
28899WAT     H186939   2.317   4.912   6.573
28899WAT     H286940   2.319   4.751   6.600
28900WAT      O86941   0.816   4.376   0.303
28900WAT     H186942   0.833   4.342   0.210
28900WAT     H286943   0.813   4.476   0.302
28901WAT      O86944   0.396   2.452   2.550
28901WAT     H186945   0.379   2.508   2.468
28901WAT     H286946   0.328   2.474   2.619
28902WAT      O86947   1.367   1.255   2.088
28902WAT     H186948   1.437   1.301   2.143
28902WAT     H286949   1.411   1.188   2.027
28903WAT      O86950   2.643   4.152   5.474
28903WAT     H186951   2.706   4.102   5.414
28903WAT     H286952   2.650   4.116   5.567
28904WAT      O86953   9.449   8.280   8.715
28904WAT     H186954   9.469   8.249   8.809
28904WAT     H286955   9.391   8.212   8.670
28905WAT      O86956   4.512   8.121   2.451
28905WAT     H186957   4.420   8.122   2.490
28905WAT     H286958   4.552   8.213   2.456
28906WAT      O86959   1.690   7.219   6.249
28906WAT     H186960   1.663   7.207   6.345
28906WAT     H286961   1.777   7.267   6.244
28907WAT      O86962   0.923   9.102   5.767
28907WAT     H186963   0.837   9.115   5.719
28907WAT     H286964   0.977   9.032   5.721
28908WAT      O86965   3.042   3.537   4.009
28908WAT     H186966   2.977   3.596   3.961
28908WAT     H286967   3.018   3.441   3.994
28909WAT      O86968   2.736   0.514   1.644
28909WAT     H186969   2.825   0.543   1.610
28909WAT     H286970   2.691   0.591   1.689
28910WAT      O86971   4.772   2.956   9.707
28910WAT     H186972   4.682   2.959   9.663
28910WAT     H286973   4.762   2.973   9.805
28911WAT      O86974   8.773   3.167   6.966
28911WAT     H186975   8.815   3.101   7.028
28911WAT     H286976   8.801   3.148   6.872
28912WAT      O86977   3.819   7.365   2.622
28912WAT     H186978   3.753   7.385   2.695
28912WAT     H286979   3.814   7.435   2.552
28913WAT      O86980   5.815   2.969   8.350
28913WAT     H186981   5.796   2.923   8.264
28913WAT     H286982   5.879   2.913   8.404
28914WAT      O86983   0.701   1.905   9.025
28914WAT     H186984   0.753   1.950   8.953
28914WAT     H286985   0.631   1.846   8.983
28915WAT      O86986   9.444   5.752   7.117
28915WAT     H186987   9.495   5.761   7.032
28915WAT     H286988   9.425   5.655   7.134
28916WAT      O86989   6.281   1.087   0.306
28916WAT     H186990   6.244   1.179   0.297
28916WAT     H286991   6.235   1.025   0.242
28917WAT      O86992   5.677   9.820   2.719
28917WAT     H186993   5.624   9.749   2.672
28917WAT     H286994   5.617   9.898   2.738
28918WAT      O86995   7.394   0.357   7.698
28918WAT     H186996   7.308   0.402   7.673
28918WAT     H286997   7.436   0.317   7.616
28919WAT      O86998   7.906   0.031   8.143
28919WAT     H186999   7.862   0.072   8.063
28919WAT     H287000   7.838   0.016   8.215
28920WAT      O87001   2.698   7.871   0.186
28920WAT     H187002   2.615   7.819   0.203
28920WAT     H287003   2.706   7.893   0.089
28921WAT      O87004   0.393   0.090   4.961
28921WAT     H187005   0.402   0.016   5.028
28921WAT     H287006   0.420   0.056   4.870
28922WAT      O87007   8.881   6.919   0.528
28922WAT     H187008   8.883   6.854   0.452
28922WAT     H287009   8.890   6.870   0.614
28923WAT      O87010   6.093   0.121   7.868
28923WAT     H187011   6.031   0.050   7.835
28923WAT     H287012   6.171   0.129   7.806
28924WAT      O87013   1.344   0.417   5.414
28924WAT     H187014   1.382   0.325   5.404
28924WAT     H287015   1.407   0.473   5.468
28925WAT      O87016   5.659   8.532   0.112
28925WAT     H187017   5.649   8.607   0.177
28925WAT     H287018   5.679   8.570   0.021
28926WAT      O87019   8.039   2.295   5.664
28926WAT     H187020   7.971   2.361   5.630
28926WAT     H287021   8.065   2.233   5.590
28927WAT      O87022   9.667   5.021   4.827
28927WAT     H187023   9.711   5.098   4.779
28927WAT     H287024   9.698   5.020   4.922
28928WAT      O87025   2.429   8.419   9.331
28928WAT     H187026   2.482   8.488   9.381
28928WAT     H287027   2.420   8.447   9.235
28929WAT      O87028   1.498   8.037   7.807
28929WAT     H187029   1.444   7.965   7.763
28929WAT     H287030   1.539   8.002   7.892
28930WAT      O87031   9.828   3.349   2.792
28930WAT     H187032   9.839   3.378   2.697
28930WAT     H287033   9.867   3.257   2.803
28931WAT      O87034   4.179   3.748   7.143
28931WAT     H187035   4.122   3.817   7.187
28931WAT     H287036   4.274   3.761   7.168
28932WAT      O87037   5.308   1.778   2.524
28932WAT     H187038   5.318   1.690   2.570
28932WAT     H287039   5.233   1.829   2.566
28933WAT      O87040   6.997   4.334   1.663
28933WAT     H187041   6.989   4.236   1.679
28933WAT     H287042   6.950   4.358   1.579
28934WAT      O87043   8.690   0.313   5.238
28934WAT     H187044   8.677   0.400   5.192
28934WAT     H287045   8.609   0.293   5.295
28935WAT      O87046   8.723   8.726   4.637
28935WAT     H187047   8.643   8.768   4.679
28935WAT     H287048   8.702   8.631   4.613
28936WAT      O87049   8.476   3.284   0.840
28936WAT     H187050   8.447   3.225   0.916
28936WAT     H287051   8.574   3.272   0.824
28937WAT      O87052   1.757   3.067   0.870
28937WAT     H187053   1.769   3.001   0.796
28937WAT     H287054   1.660   3.082   0.887
28938WAT      O87055   4.871   7.548   9.759
28938WAT     H187056   4.826   7.478   9.703
28938WAT     H287057   4.880   7.515   9.852
28939WAT      O87058   3.626   2.162   4.405
28939WAT     H187059   3.716   2.163   4.448
28939WAT     H287060   3.556   2.140   4.473
28940WAT      O87061   5.544   3.994   2.560
28940WAT     H187062   5.550   3.923   2.490
28940WAT     H287063   5.573   4.082   2.521
28941WAT      O87064   0.974   5.980   7.336
28941WAT     H187065   1.023   5.923   7.402
28941WAT     H287066   0.875   5.966   7.347
28942WAT      O87067   7.050   4.374   7.336
28942WAT     H187068   6.986   4.372   7.412
28942WAT     H287069   7.056   4.467   7.299
28943WAT      O87070   7.324   7.181   0.757
28943WAT     H187071   7.337   7.084   0.778
28943WAT     H287072   7.279   7.225   0.834
28944WAT      O87073   1.821   6.552   0.373
28944WAT     H187074   1.727   6.537   0.341
28944WAT     H287075   1.826   6.640   0.419
28945WAT      O87076   8.497   3.066   5.688
28945WAT     H187077   8.457   3.063   5.596
28945WAT     H287078   8.445   3.130   5.745
28946WAT      O87079   7.775   0.553   9.028
28946WAT     H187080   7.753   0.468   8.981
28946WAT     H287081   7.780   0.537   9.126
28947WAT      O87082   8.834   5.955   1.722
28947WAT     H187083   8.784   5.922   1.802
28947WAT     H287084   8.890   6.034   1.748
28948WAT      O87085   1.452   2.066   3.561
28948WAT     H187086   1.549   2.047   3.579
28948WAT     H287087   1.397   2.023   3.632
28949WAT      O87088   2.581   1.140   0.998
28949WAT     H187089   2.604   1.202   1.073
28949WAT     H287090   2.658   1.080   0.979
28950WAT      O87091   4.844   7.069   0.342
28950WAT     H187092   4.765   7.047   0.399
28950WAT     H287093   4.818   7.132   0.270
28951WAT      O87094   4.315   1.700   1.871
28951WAT     H187095   4.215   1.693   1.879
28951WAT     H287096   4.353   1.737   1.956
28952WAT      O87097   2.367   1.279   6.998
28952WAT     H187098   2.426   1.360   7.006
28952WAT     H287099   2.391   1.229   6.915
28953WAT      O87100   1.464   7.603   6.995
28953WAT     H187101   1.503   7.682   7.041
28953WAT     H287102   1.493   7.519   7.041
28954WAT      O87103   6.730   0.082   6.832
28954WAT     H187104   6.641   0.119   6.858
28954WAT     H287105   6.717  -0.009   6.792
28955WAT      O87106   1.973   0.237   7.092
28955WAT     H187107   1.954   0.147   7.052
28955WAT     H287108   1.935   0.308   7.032
28956WAT      O87109   4.564   1.997   4.995
28956WAT     H187110   4.620   2.051   4.932
28956WAT     H287111   4.584   1.900   4.982
28957WAT      O87112   4.509   1.254   9.076
28957WAT     H187113   4.495   1.302   9.163
28957WAT     H287114   4.496   1.318   9.001
28958WAT      O87115   3.983   7.197   6.797
28958WAT     H187116   4.023   7.123   6.850
28958WAT     H287117   3.954   7.162   6.707
28959WAT      O87118   6.012   3.505   2.592
28959WAT     H187119   5.982   3.570   2.662
28959WAT     H287120   6.069   3.551   2.525
28960WAT      O87121   6.853   7.542   3.743
28960WAT     H187122   6.794   7.618   3.772
28960WAT     H287123   6.897   7.566   3.657
28961WAT      O87124   7.787   6.338   6.417
28961WAT     H187125   7.807   6.332   6.319
28961WAT     H287126   7.759   6.431   6.440
28962WAT      O87127   2.320   9.078   8.994
28962WAT     H187128   2.288   9.152   9.053
28962WAT     H287129   2.292   9.096   8.900
28963WAT      O87130   1.225   4.224   3.058
28963WAT     H187131   1.231   4.252   3.154
28963WAT     H287132   1.273   4.291   3.001
28964WAT      O87133   8.184   5.362   2.571
28964WAT     H187134   8.107   5.414   2.608
28964WAT     H287135   8.269   5.390   2.617
28965WAT      O87136   5.585   9.385   2.010
28965WAT     H187137   5.599   9.463   2.072
28965WAT     H287138   5.574   9.418   1.917
28966WAT      O87139   9.250   1.103   8.970
28966WAT     H187140   9.318   1.172   8.946
28966WAT     H287141   9.294   1.013   8.979
28967WAT      O87142   8.317   1.559   9.543
28967WAT     H187143   8.358   1.577   9.632
28967WAT     H287144   8.217   1.563   9.551
28968WAT      O87145   2.087   7.401   0.637
28968WAT     H187146   2.111   7.475   0.574
28968WAT     H287147   2.156   7.395   0.709
28969WAT      O87148   2.483   1.307   4.844
28969WAT     H187149   2.393   1.264   4.838
28969WAT     H287150   2.550   1.239   4.875
28970WAT      O87151   4.979   0.530   2.453
28970WAT     H187152   4.948   0.599   2.518
28970WAT     H287153   5.052   0.476   2.494
28971WAT      O87154   0.939   2.938   9.814
28971WAT     H187155   1.022   2.959   9.866
28971WAT     H287156   0.935   2.995   9.732
28972WAT      O87157   0.944   7.417   2.064
28972WAT     H187158   0.905   7.352   2.128
28972WAT     H287159   0.879   7.490   2.046
28973WAT      O87160   9.863   9.743   2.075
28973WAT     H187161   9.834   9.837   2.056
28973WAT     H287162   9.813   9.680   2.015
28974WAT      O87163   1.588   8.402   7.446
28974WAT     H187164   1.628   8.411   7.355
28974WAT     H287165   1.643   8.453   7.512
28975WAT      O87166   6.546   5.178   3.071
28975WAT     H187167   6.632   5.208   3.112
28975WAT     H287168   6.473   5.242   3.095
28976WAT      O87169   2.866   6.456   2.926
28976WAT     H187170   2.770   6.429   2.924
28976WAT     H287171   2.904   6.439   3.018
28977WAT      O87172   1.027   9.734   5.682
28977WAT     H187173   1.001   9.653   5.630
28977WAT     H287174   1.034   9.812   5.620
28978WAT      O87175   8.615   8.758   3.101
28978WAT     H187176   8.682   8.711   3.159
28978WAT     H287177   8.533   8.701   3.092
28979WAT      O87178   6.163   8.130   2.794
28979WAT     H187179   6.158   8.064   2.718
28979WAT     H287180   6.070   8.152   2.825
28980WAT      O87181   6.219   1.968   2.681
28980WAT     H187182   6.152   1.906   2.640
28980WAT     H287183   6.196   1.983   2.777
28981WAT      O87184   0.026   5.324   9.820
28981WAT     H187185   0.039   5.302   9.723
28981WAT     H287186  -0.072   5.322   9.841
28982WAT      O87187   0.933   9.376   8.343
28982WAT     H187188   0.919   9.475   8.346
28982WAT     H287189   0.905   9.335   8.429
28983WAT      O87190   0.658   9.370   4.773
28983WAT     H187191   0.684   9.292   4.716
28983WAT     H287192   0.664   9.343   4.870
28984WAT      O87193   8.899   8.223   3.788
28984WAT     H187194   8.983   8.277   3.783
28984WAT     H287195   8.916   8.131   3.752
28985WAT      O87196   6.552   6.453   7.681
28985WAT     H187197   6.608   6.494   7.609
28985WAT     H287198   6.496   6.524   7.724
28986WAT      O87199   9.055   1.402   1.177
28986WAT     H187200   9.084   1.320   1.228
28986WAT     H287201   9.022   1.375   1.087
28987WAT      O87202   6.175   5.170   4.009
28987WAT     H187203   6.110   5.243   3.987
28987WAT     H287204   6.128   5.097   4.059
28988WAT      O87205   1.096   9.586   0.366
28988WAT     H187206   1.011   9.584   0.314
28988WAT     H287207   1.095   9.512   0.433
28989WAT      O87208   5.501   2.263   7.082
28989WAT     H187209   5.469   2.180   7.129
28989WAT     H287210   5.495   2.249   6.983
28990WAT      O87211   6.957   6.361   9.501
28990WAT     H187212   7.024   6.339   9.572
28990WAT     H287213   6.986   6.443   9.452
28991WAT      O87214   3.391   4.432   9.488
28991WAT     H187215   3.437   4.519   9.508
28991WAT     H287216   3.453   4.374   9.435
28992WAT      O87217   1.644   8.736   4.419
28992WAT     H187218   1.636   8.728   4.319
28992WAT     H287219   1.700   8.815   4.442
28993WAT      O87220   0.842   0.279   1.117
28993WAT     H187221   0.773   0.333   1.165
28993WAT     H287222   0.797   0.203   1.069
28994WAT      O87223   1.257   0.099   8.723
28994WAT     H187224   1.218   0.173   8.777
28994WAT     H287225   1.191   0.069   8.653
28995WAT      O87226   1.571   0.526   3.302
28995WAT     H187227   1.512   0.452   3.335
28995WAT     H287228   1.660   0.488   3.274
28996WAT      O87229   1.536   4.590   5.648
28996WAT     H187230   1.630   4.578   5.617
28996WAT     H287231   1.474   4.576   5.571
28997WAT      O87232   8.381   1.354   6.620
28997WAT     H187233   8.375   1.333   6.717
28997WAT     H287234   8.477   1.360   6.592
28998WAT      O87235   0.394   5.531   1.687
28998WAT     H187236   0.317   5.482   1.730
28998WAT     H287237   0.386   5.525   1.588
28999WAT      O87238   6.061   5.864   3.104
28999WAT     H187239   5.984   5.910   3.149
28999WAT     H287240   6.084   5.781   3.155
29000WAT      O87241   7.117   9.181   4.700
29000WAT     H187242   7.117   9.091   4.743
29000WAT     H287243   7.212   9.209   4.682
29001WAT      O87244   0.713   1.024   7.280
29001WAT     H187245   0.618   1.054   7.292
29001WAT     H287246   0.769   1.102   7.251
29002WAT      O87247   6.672   9.673   9.275
29002WAT     H187248   6.650   9.619   9.194
29002WAT     H287249   6.631   9.630   9.356
29003WAT      O87250   7.300   2.472   7.567
29003WAT     H187251   7.270   2.465   7.472
29003WAT     H287252   7.283   2.564   7.601
29004WAT      O87253   9.404   0.476   3.440
29004WAT     H187254   9.495   0.518   3.447
29004WAT     H287255   9.369   0.457   3.532
29005WAT      O87256   7.023   5.064   3.219
29005WAT     H187257   7.005   5.053   3.317
29005WAT     H287258   7.066   4.981   3.183
29006WAT      O87259   0.442   1.948   5.492
29006WAT     H187260   0.458   1.853   5.462
29006WAT     H287261   0.479   2.011   5.423
29007WAT      O87262   3.855   0.658   2.381
29007WAT     H187263   3.776   0.637   2.437
29007WAT     H287264   3.929   0.693   2.439
29008WAT      O87265   8.548   4.307   4.109
29008WAT     H187266   8.595   4.312   4.198
29008WAT     H287267   8.524   4.212   4.090
29009WAT      O87268   5.357   3.049   2.667
29009WAT     H187269   5.439   3.067   2.721
29009WAT     H287270   5.384   3.012   2.578
29010WAT      O87271   8.206   6.809   6.096
29010WAT     H187272   8.132   6.752   6.133
29010WAT     H287273   8.222   6.786   6.000
29011WAT      O87274   1.774   0.624   3.556
29011WAT     H187275   1.767   0.524   3.558
29011WAT     H287276   1.804   0.656   3.646
29012WAT      O87277   6.078   0.049   7.483
29012WAT     H187278   6.011   0.121   7.465
29012WAT     H287279   6.119   0.021   7.396
29013WAT      O87280   0.315   1.311   8.565
29013WAT     H187281   0.253   1.245   8.523
29013WAT     H287282   0.383   1.263   8.619
29014WAT      O87283   9.563   0.399   4.529
29014WAT     H187284   9.555   0.329   4.601
29014WAT     H287285   9.480   0.453   4.526
29015WAT      O87286   6.933   5.244   3.425
29015WAT     H187287   6.965   5.157   3.463
29015WAT     H287288   6.966   5.319   3.483
29016WAT      O87289   2.485   7.482   0.994
29016WAT     H187290   2.480   7.383   0.990
29016WAT     H287291   2.575   7.513   0.963
29017WAT      O87292   9.156   5.906   3.694
29017WAT     H187293   9.169   5.985   3.753
29017WAT     H287294   9.145   5.937   3.599
29018WAT      O87295   8.835   6.637   9.631
29018WAT     H187296   8.848   6.713   9.567
29018WAT     H287297   8.895   6.649   9.710
29019WAT      O87298   7.184   2.805   9.700
29019WAT     H187299   7.130   2.771   9.777
29019WAT     H287300   7.216   2.727   9.646
29020WAT      O87301   7.625   6.318   3.127
29020WAT     H187302   7.692   6.357   3.191
29020WAT     H287303   7.671   6.252   3.067
29021WAT      O87304   4.349   3.993   7.082
29021WAT     H187305   4.385   3.935   7.154
29021WAT     H287306   4.378   4.088   7.097
29022WAT      O87307   9.570   4.889   9.142
29022WAT     H187308   9.506   4.961   9.169
29022WAT     H287309   9.521   4.820   9.089
29023WAT      O87310   1.007   0.490   6.596
29023WAT     H187311   1.103   0.518   6.584
29023WAT     H287312   0.966   0.475   6.506
29024WAT      O87313   6.850   9.012   2.173
29024WAT     H187314   6.873   8.919   2.143
29024WAT     H287315   6.752   9.027   2.165
29025WAT      O87316   6.753   8.214   9.623
29025WAT     H187317   6.668   8.249   9.582
29025WAT     H287318   6.777   8.269   9.702
29026WAT      O87319   0.538   0.078   2.421
29026WAT     H187320   0.636   0.063   2.405
29026WAT     H287321   0.486  -0.002   2.390
29027WAT      O87322   3.152   9.676   6.375
29027WAT     H187323   3.182   9.764   6.413
29027WAT     H287324   3.111   9.621   6.447
29028WAT      O87325   3.017   2.018   2.270
29028WAT     H187326   2.993   2.112   2.250
29028WAT     H287327   3.109   2.015   2.310
29029WAT      O87328   3.417   0.319   7.188
29029WAT     H187329   3.421   0.313   7.088
29029WAT     H287330   3.419   0.414   7.216
29030WAT      O87331   3.434   6.777   5.400
29030WAT     H187332   3.488   6.815   5.475
29030WAT     H287333   3.415   6.681   5.419
29031WAT      O87334   0.083   7.947   6.246
29031WAT     H187335   0.043   7.884   6.311
29031WAT     H287336   0.122   7.896   6.169
29032WAT      O87337   2.619   8.959   2.761
29032WAT     H187338   2.640   8.879   2.705
29032WAT     H287339   2.534   8.943   2.812
29033WAT      O87340   8.338   5.780   0.302
29033WAT     H187341   8.313   5.715   0.374
29033WAT     H287342   8.317   5.740   0.213
29034WAT      O87343   4.718   9.224   2.311
29034WAT     H187344   4.704   9.311   2.264
29034WAT     H287345   4.803   9.228   2.364
29035WAT      O87346   9.556   1.830   9.377
29035WAT     H187347   9.592   1.921   9.354
29035WAT     H287348   9.472   1.814   9.326
29036WAT      O87349   7.325   7.101   2.477
29036WAT     H187350   7.359   7.133   2.389
29036WAT     H287351   7.227   7.085   2.471
29037WAT      O87352   2.609   5.707   9.164
29037WAT     H187353   2.590   5.787   9.106
29037WAT     H287354   2.538   5.638   9.151
29038WAT      O87355   7.366   2.967   9.828
29038WAT     H187356   7.312   2.907   9.769
29038WAT     H287357   7.320   2.977   9.916
29039WAT      O87358   9.176   8.923   5.682
29039WAT     H187359   9.271   8.897   5.669
29039WAT     H287360   9.120   8.841   5.693
29040WAT      O87361   0.935   1.502   5.975
29040WAT     H187362   0.997   1.434   6.014
29040WAT     H287363   0.847   1.496   6.021
29041WAT      O87364   7.211   6.198   1.075
29041WAT     H187365   7.290   6.231   1.126
29041WAT     H287366   7.238   6.174   0.982
29042WAT      O87367   0.661   4.454   3.128
29042WAT     H187368   0.562   4.450   3.118
29042WAT     H287369   0.700   4.362   3.115
29043WAT      O87370   9.365   4.202   2.602
29043WAT     H187371   9.330   4.295   2.600
29043WAT     H287372   9.288   4.137   2.597
29044WAT      O87373   5.537   0.052   5.890
29044WAT     H187374   5.489   0.043   5.977
29044WAT     H287375   5.473   0.079   5.819
29045WAT      O87376   7.276   8.629   7.351
29045WAT     H187377   7.358   8.608   7.403
29045WAT     H287378   7.216   8.688   7.405
29046WAT      O87379   1.952   8.275   4.103
29046WAT     H187380   1.943   8.223   4.018
29046WAT     H287381   1.915   8.221   4.179
29047WAT      O87382   9.189   0.401   5.132
29047WAT     H187383   9.111   0.340   5.115
29047WAT     H287384   9.274   0.350   5.120
29048WAT      O87385   9.350   0.620   4.353
29048WAT     H187386   9.381   0.700   4.404
29048WAT     H287387   9.408   0.609   4.271
29049WAT      O87388   6.658   7.188   2.078
29049WAT     H187389   6.722   7.145   2.014
29049WAT     H287390   6.569   7.143   2.070
29050WAT      O87391   9.407   1.596   7.974
29050WAT     H187392   9.370   1.571   7.884
29050WAT     H287393   9.470   1.525   8.005
29051WAT      O87394   2.548   0.748   1.306
29051WAT     H187395   2.473   0.812   1.293
29051WAT     H287396   2.619   0.790   1.361
29052WAT      O87397   6.890   5.587   0.929
29052WAT     H187398   6.893   5.507   0.870
29052WAT     H287399   6.832   5.567   1.009
29053WAT      O87400   5.788   6.242   7.601
29053WAT     H187401   5.866   6.196   7.645
29053WAT     H287402   5.814   6.269   7.508
29054WAT      O87403   0.378   1.713   2.891
29054WAT     H187404   0.381   1.778   2.815
29054WAT     H287405   0.283   1.693   2.914
29055WAT      O87406   6.940   0.267   1.287
29055WAT     H187407   6.856   0.258   1.233
29055WAT     H287408   6.953   0.186   1.343
29056WAT      O87409   8.907   1.869   7.441
29056WAT     H187410   8.943   1.908   7.525
29056WAT     H287411   8.813   1.839   7.456
29057WAT      O87412   9.470   2.033   1.800
29057WAT     H187413   9.539   2.026   1.729
29057WAT     H287414   9.380   2.045   1.758
29058WAT      O87415   1.963   7.272   6.567
29058WAT     H187416   2.061   7.276   6.546
29058WAT     H287417   1.949   7.290   6.665
29059WAT      O87418   9.048   5.611   0.801
29059WAT     H187419   8.971   5.553   0.825
29059WAT     H287420   9.017   5.706   0.792
29060WAT      O87421   0.649   1.069   3.863
29060WAT     H187422   0.744   1.082   3.836
29060WAT     H287423   0.597   1.152   3.842
29061WAT      O87424   6.900   9.512   4.620
29061WAT     H187425   6.818   9.491   4.674
29061WAT     H287426   6.923   9.433   4.563
29062WAT      O87427   5.106   6.871   9.735
29062WAT     H187428   5.032   6.859   9.801
29062WAT     H287429   5.133   6.782   9.699
29063WAT      O87430   6.552   2.989   0.456
29063WAT     H187431   6.511   2.898   0.444
29063WAT     H287432   6.638   2.980   0.506
29064WAT      O87433   6.374   2.782   0.198
29064WAT     H187434   6.288   2.757   0.153
29064WAT     H287435   6.377   2.740   0.289
29065WAT      O87436   4.344   4.745   5.530
29065WAT     H187437   4.427   4.779   5.487
29065WAT     H287438   4.366   4.707   5.620
29066WAT      O87439   2.918   2.215   5.674
29066WAT     H187440   2.911   2.221   5.574
29066WAT     H287441   3.007   2.251   5.703
29067WAT      O87442   4.519   3.972   0.993
29067WAT     H187443   4.567   4.006   0.913
29067WAT     H287444   4.581   3.974   1.072
29068WAT      O87445   6.103   4.982   6.025
29068WAT     H187446   6.044   5.039   5.967
29068WAT     H287447   6.131   5.035   6.105
29069WAT      O87448   6.536   1.399   9.253
29069WAT     H187449   6.452   1.346   9.248
29069WAT     H287450   6.600   1.355   9.316
29070WAT      O87451   4.807   3.659   9.804
29070WAT     H187452   4.798   3.567   9.766
29070WAT     H287453   4.856   3.717   9.740
29071WAT      O87454   6.966   1.139   1.078
29071WAT     H187455   6.886   1.179   1.034
29071WAT     H287456   6.992   1.193   1.158
29072WAT      O87457   8.595   4.044   4.455
29072WAT     H187458   8.677   3.988   4.447
29072WAT     H287459   8.611   4.116   4.522
29073WAT      O87460   8.441   6.090   6.462
29073WAT     H187461   8.351   6.132   6.452
29073WAT     H287462   8.456   6.067   6.559
29074WAT      O87463   8.522   6.458   1.009
29074WAT     H187464   8.477   6.471   0.920
29074WAT     H287465   8.523   6.360   1.031
29075WAT      O87466   1.690   3.017   2.470
29075WAT     H187467   1.637   3.071   2.535
29075WAT     H287468   1.753   2.958   2.519
29076WAT      O87469   4.782   6.780   2.627
29076WAT     H187470   4.761   6.702   2.568
29076WAT     H287471   4.855   6.835   2.586
29077WAT      O87472   7.179   0.366   9.240
29077WAT     H187473   7.201   0.285   9.185
29077WAT     H287474   7.251   0.434   9.228
29078WAT      O87475   6.246   1.073   1.769
29078WAT     H187476   6.313   1.143   1.745
29078WAT     H287477   6.187   1.107   1.842
29079WAT      O87478   8.723   7.572   4.089
29079WAT     H187479   8.744   7.480   4.121
29079WAT     H287480   8.786   7.597   4.015
29080WAT      O87481   7.043   3.599   5.177
29080WAT     H187482   7.050   3.505   5.141
29080WAT     H287483   6.955   3.611   5.221
29081WAT      O87484   5.075   4.906   8.366
29081WAT     H187485   5.045   5.001   8.358
29081WAT     H287486   5.171   4.905   8.396
29082WAT      O87487   2.131   6.440   2.723
29082WAT     H187488   2.049   6.386   2.703
29082WAT     H287489   2.106   6.537   2.730
29083WAT      O87490   5.372   7.702   9.454
29083WAT     H187491   5.328   7.614   9.473
29083WAT     H287492   5.334   7.772   9.515
29084WAT      O87493   2.077   0.650   4.722
29084WAT     H187494   2.091   0.598   4.807
29084WAT     H287495   2.061   0.746   4.744
29085WAT      O87496   1.918   2.418   0.202
29085WAT     H187497   1.895   2.467   0.286
29085WAT     H287498   1.888   2.323   0.210
29086WAT      O87499   4.143   0.913   3.831
29086WAT     H187500   4.208   0.957   3.893
29086WAT     H287501   4.137   0.964   3.746
29087WAT      O87502   7.812   9.335   4.226
29087WAT     H187503   7.843   9.415   4.175
29087WAT     H287504   7.834   9.346   4.322
29088WAT      O87505   8.082   5.720   3.242
29088WAT     H187506   8.133   5.758   3.165
29088WAT     H287507   7.989   5.698   3.212
29089WAT      O87508   7.075   5.083   1.427
29089WAT     H187509   7.083   5.016   1.353
29089WAT     H287510   7.163   5.091   1.474
29090WAT      O87511   2.902   8.869   2.536
29090WAT     H187512   2.834   8.815   2.585
29090WAT     H287513   2.945   8.933   2.599
29091WAT      O87514   0.565   9.540   3.117
29091WAT     H187515   0.616   9.624   3.139
29091WAT     H287516   0.627   9.463   3.114
29092WAT      O87517   2.144   3.195   7.280
29092WAT     H187518   2.112   3.284   7.314
29092WAT     H287519   2.243   3.196   7.271
29093WAT      O87520   1.210   3.828   8.738
29093WAT     H187521   1.182   3.913   8.694
29093WAT     H287522   1.298   3.799   8.701
29094WAT      O87523   6.430   0.030   0.584
29094WAT     H187524   6.507  -0.004   0.529
29094WAT     H287525   6.419  -0.028   0.665
29095WAT      O87526   6.337   8.879   1.524
29095WAT     H187527   6.316   8.882   1.621
29095WAT     H287528   6.288   8.952   1.476
29096WAT      O87529   1.265   7.152   6.193
29096WAT     H187530   1.321   7.221   6.239
29096WAT     H287531   1.184   7.197   6.153
29097WAT      O87532   6.000   0.589   5.027
29097WAT     H187533   6.032   0.569   5.119
29097WAT     H287534   5.927   0.658   5.031
29098WAT      O87535   0.109   1.315   3.613
29098WAT     H187536   0.110   1.309   3.713
29098WAT     H287537   0.181   1.256   3.575
29099WAT      O87538   8.763   8.221   9.758
29099WAT     H187539   8.774   8.154   9.832
29099WAT     H287540   8.686   8.194   9.701
29100WAT      O87541   2.196   3.955   4.581
29100WAT     H187542   2.262   4.029   4.594
29100WAT     H287543   2.226   3.896   4.507
29101WAT      O87544   4.864   1.785   0.810
29101WAT     H187545   4.926   1.717   0.850
29101WAT     H287546   4.836   1.851   0.880
29102WAT      O87547   4.040   0.574   8.803
29102WAT     H187548   4.036   0.662   8.850
29102WAT     H287549   4.097   0.510   8.855
29103WAT      O87550   0.842   2.840   5.609
29103WAT     H187551   0.809   2.893   5.531
29103WAT     H287552   0.822   2.890   5.693
29104WAT      O87553   3.603   4.009   1.939
29104WAT     H187554   3.691   4.056   1.944
29104WAT     H287555   3.574   3.982   2.031
29105WAT      O87556   8.311   3.839   7.015
29105WAT     H187557   8.330   3.880   6.925
29105WAT     H287558   8.395   3.840   7.070
29106WAT      O87559   9.604   1.906   7.737
29106WAT     H187560   9.521   1.869   7.779
29106WAT     H287561   9.630   1.851   7.658
29107WAT      O87562   4.840   8.898   6.860
29107WAT     H187563   4.906   8.911   6.786
29107WAT     H287564   4.835   8.981   6.915
29108WAT      O87565   7.713   1.019   9.076
29108WAT     H187566   7.682   1.110   9.105
29108WAT     H287567   7.809   1.008   9.099
29109WAT      O87568   7.947   7.859   2.008
29109WAT     H187569   7.951   7.926   1.934
29109WAT     H287570   7.970   7.768   1.972
29110WAT      O87571   2.254   5.632   7.079
29110WAT     H187572   2.273   5.692   7.156
29110WAT     H287573   2.341   5.600   7.040
29111WAT      O87574   5.698   1.704   5.824
29111WAT     H187575   5.729   1.722   5.731
29111WAT     H287576   5.629   1.631   5.823
29112WAT      O87577   6.480   8.810   8.441
29112WAT     H187578   6.466   8.735   8.506
29112WAT     H287579   6.565   8.796   8.391
29113WAT      O87580   1.841   1.113   6.358
29113WAT     H187581   1.916   1.048   6.357
29113WAT     H287582   1.811   1.131   6.264
29114WAT      O87583   2.014   8.573   6.634
29114WAT     H187584   1.952   8.537   6.704
29114WAT     H287585   2.095   8.515   6.628
29115WAT      O87586   4.908   3.864   2.099
29115WAT     H187587   4.850   3.798   2.146
29115WAT     H287588   4.907   3.846   2.001
29116WAT      O87589   6.712   7.587   2.724
29116WAT     H187590   6.705   7.582   2.624
29116WAT     H287591   6.728   7.681   2.752
29117WAT      O87592   8.491   8.328   5.295
29117WAT     H187593   8.509   8.323   5.393
29117WAT     H287594   8.578   8.332   5.246
29118WAT      O87595   3.786   5.081   4.672
29118WAT     H187596   3.856   5.152   4.662
29118WAT     H287597   3.696   5.124   4.678
29119WAT      O87598   6.460   9.249   8.342
29119WAT     H187599   6.544   9.280   8.296
29119WAT     H287600   6.484   9.182   8.412
29120WAT      O87601   8.400   0.082   6.222
29120WAT     H187602   8.436   0.014   6.159
29120WAT     H287603   8.403   0.047   6.315
29121WAT      O87604   6.057   8.939   7.277
29121WAT     H187605   6.009   9.024   7.252
29121WAT     H287606   6.003   8.891   7.346
29122WAT      O87607   2.095   8.369   9.190
29122WAT     H187608   2.098   8.276   9.154
29122WAT     H287609   2.119   8.369   9.287
29123WAT      O87610   3.525   3.834   2.797
29123WAT     H187611   3.602   3.895   2.816
29123WAT     H287612   3.560   3.745   2.765
29124WAT      O87613   7.299   5.889   4.745
29124WAT     H187614   7.264   5.903   4.653
29124WAT     H287615   7.360   5.964   4.769
29125WAT      O87616   5.705   6.282   4.761
29125WAT     H187617   5.691   6.292   4.663
29125WAT     H287618   5.746   6.366   4.798
29126WAT      O87619   6.293   2.185   8.910
29126WAT     H187620   6.315   2.273   8.951
29126WAT     H287621   6.360   2.164   8.838
29127WAT      O87622   9.372   0.881   8.698
29127WAT     H187623   9.300   0.930   8.649
29127WAT     H287624   9.390   0.793   8.653
29128WAT      O87625   3.267   7.307   0.794
29128WAT     H187626   3.355   7.261   0.807
29128WAT     H287627   3.243   7.356   0.878
29129WAT      O87628   4.264   4.625   1.710
29129WAT     H187629   4.207   4.571   1.772
29129WAT     H287630   4.361   4.610   1.734
29130WAT      O87631   2.304   5.526   0.105
29130WAT     H187632   2.218   5.545   0.151
29130WAT     H287633   2.375   5.588   0.139
29131WAT      O87634   8.198   2.258   9.418
29131WAT     H187635   8.295   2.270   9.442
29131WAT     H287636   8.165   2.173   9.458
29132WAT      O87637   6.338   3.338   5.979
29132WAT     H187638   6.417   3.393   5.953
29132WAT     H287639   6.263   3.355   5.914
29133WAT      O87640   4.162   6.220   2.975
29133WAT     H187641   4.158   6.319   2.977
29133WAT     H287642   4.257   6.190   2.983
29134WAT      O87643   3.774   0.076   3.735
29134WAT     H187644   3.770   0.070   3.834
29134WAT     H287645   3.721   0.155   3.704
29135WAT      O87646   5.532   7.233   4.524
29135WAT     H187647   5.503   7.309   4.582
29135WAT     H287648   5.629   7.216   4.538
29136WAT      O87649   8.116   7.481   7.538
29136WAT     H187650   8.074   7.421   7.470
29136WAT     H287651   8.168   7.425   7.604
29137WAT      O87652   2.719   0.847   3.048
29137WAT     H187653   2.805   0.797   3.052
29137WAT     H287654   2.692   0.859   2.952
29138WAT      O87655   0.387   6.682   1.418
29138WAT     H187656   0.479   6.650   1.441
29138WAT     H287657   0.346   6.619   1.352
29139WAT      O87658   6.972   4.450   2.240
29139WAT     H187659   6.923   4.476   2.323
29139WAT     H287660   6.917   4.472   2.160
29140WAT      O87661   8.551   5.905   7.056
29140WAT     H187662   8.488   5.906   6.979
29140WAT     H287663   8.518   5.967   7.127
29141WAT      O87664   0.637   2.192   7.539
29141WAT     H187665   0.592   2.261   7.482
29141WAT     H287666   0.732   2.218   7.554
29142WAT      O87667   9.346   8.210   6.454
29142WAT     H187668   9.339   8.184   6.357
29142WAT     H287669   9.372   8.307   6.460
29143WAT      O87670   8.551   7.913   3.221
29143WAT     H187671   8.609   7.905   3.140
29143WAT     H287672   8.519   8.007   3.230
29144WAT      O87673   0.025   2.978   8.831
29144WAT     H187674  -0.032   3.058   8.853
29144WAT     H287675   0.091   2.964   8.905
29145WAT      O87676   2.136   1.454   4.137
29145WAT     H187677   2.182   1.394   4.072
29145WAT     H287678   2.039   1.428   4.144
29146WAT      O87679   8.358   6.226   1.577
29146WAT     H187680   8.291   6.165   1.621
29146WAT     H287681   8.384   6.189   1.488
29147WAT      O87682   3.081   8.390   9.091
29147WAT     H187683   3.081   8.290   9.100
29147WAT     H287684   3.124   8.415   9.004
29148WAT      O87685   3.632   5.231   7.633
29148WAT     H187686   3.537   5.251   7.612
29148WAT     H287687   3.686   5.315   7.628
29149WAT      O87688   4.173   6.550   3.730
29149WAT     H187689   4.077   6.537   3.756
29149WAT     H287690   4.231   6.543   3.812
29150WAT      O87691   9.540   2.738   9.667
29150WAT     H187692   9.636   2.714   9.660
29150WAT     H287693   9.488   2.693   9.594
29151WAT      O87694   8.658   3.942   1.674
29151WAT     H187695   8.730   3.881   1.639
29151WAT     H287696   8.577   3.933   1.617
29152WAT      O87697   0.879   1.690   4.064
29152WAT     H187698   0.964   1.667   4.017
29152WAT     H287699   0.839   1.608   4.103
29153WAT      O87700   7.989   5.866   0.690
29153WAT     H187701   7.934   5.814   0.755
29153WAT     H287702   8.073   5.816   0.669
29154WAT      O87703   6.696   5.340   2.020
29154WAT     H187704   6.685   5.253   2.068
29154WAT     H287705   6.607   5.373   1.989
29155WAT      O87706   5.090   0.562   5.480
29155WAT     H187707   5.086   0.475   5.431
29155WAT     H287708   5.116   0.546   5.575
29156WAT      O87709   5.593   0.527   1.753
29156WAT     H187710   5.521   0.459   1.770
29156WAT     H287711   5.558   0.597   1.690
29157WAT      O87712   7.984   2.068   6.857
29157WAT     H187713   7.995   2.012   6.939
29157WAT     H287714   8.062   2.131   6.850
29158WAT      O87715   0.301   6.431   6.433
29158WAT     H187716   0.306   6.413   6.335
29158WAT     H287717   0.387   6.471   6.464
29159WAT      O87718   3.886   7.015   9.556
29159WAT     H187719   3.897   6.922   9.522
29159WAT     H287720   3.965   7.039   9.613
29160WAT      O87721   4.559   6.617   9.779
29160WAT     H187722   4.468   6.575   9.792
29160WAT     H287723   4.580   6.621   9.682
29161WAT      O87724   9.627   1.788   9.822
29161WAT     H187725   9.588   1.747   9.739
29161WAT     H287726   9.563   1.856   9.858
29162WAT      O87727   7.378   6.517   2.136
29162WAT     H187728   7.287   6.478   2.122
29162WAT     H287729   7.407   6.500   2.230
29163WAT      O87730   2.881   2.466   5.301
29163WAT     H187731   2.784   2.477   5.280
29163WAT     H287732   2.935   2.479   5.218
29164WAT      O87733   9.879   8.739   9.038
29164WAT     H187734   9.871   8.696   9.128
29164WAT     H287735   9.872   8.668   8.967
29165WAT      O87736   5.717   8.895   7.774
29165WAT     H187737   5.632   8.930   7.812
29165WAT     H287738   5.788   8.967   7.778
29166WAT      O87739   4.977   7.570   9.008
29166WAT     H187740   5.004   7.560   8.913
29166WAT     H287741   4.880   7.597   9.013
29167WAT      O87742   8.590   7.332   5.947
29167WAT     H187743   8.642   7.250   5.971
29167WAT     H287744   8.600   7.349   5.848
29168WAT      O87745   3.669   6.617   7.364
29168WAT     H187746   3.696   6.535   7.314
29168WAT     H287747   3.639   6.687   7.300
29169WAT      O87748   6.070   6.769   8.947
29169WAT     H187749   6.099   6.682   8.987
29169WAT     H287750   6.041   6.832   9.019
29170WAT      O87751   2.888   1.362   5.317
29170WAT     H187752   2.951   1.428   5.277
29170WAT     H287753   2.796   1.379   5.283
29171WAT      O87754   2.127   0.553   6.811
29171WAT     H187755   2.219   0.591   6.823
29171WAT     H287756   2.102   0.557   6.714
29172WAT      O87757   1.815   8.407   7.791
29172WAT     H187758   1.739   8.360   7.747
29172WAT     H287759   1.901   8.382   7.747
29173WAT      O87760   9.050   1.947   2.541
29173WAT     H187761   9.084   1.899   2.461
29173WAT     H287762   8.950   1.936   2.547
29174WAT      O87763   7.661   2.345   7.881
29174WAT     H187764   7.607   2.306   7.806
29174WAT     H287765   7.680   2.274   7.949
29175WAT      O87766   5.090   6.796   6.805
29175WAT     H187767   5.009   6.850   6.780
29175WAT     H287768   5.076   6.754   6.895
29176WAT      O87769   5.579   7.484   1.755
29176WAT     H187770   5.480   7.499   1.756
29176WAT     H287771   5.598   7.386   1.741
29177WAT      O87772   5.210   6.568   0.063
29177WAT     H187773   5.177   6.574  -0.031
29177WAT     H287774   5.310   6.571   0.063
29178WAT      O87775   7.752   3.331   0.784
29178WAT     H187776   7.666   3.281   0.777
29178WAT     H287777   7.751   3.387   0.867
29179WAT      O87778   9.733   9.168   0.071
29179WAT     H187779   9.721   9.197  -0.024
29179WAT     H287780   9.812   9.215   0.111
29180WAT      O87781   6.749   5.688   2.682
29180WAT     H187782   6.788   5.779   2.666
29180WAT     H287783   6.738   5.641   2.595
29181WAT      O87784   9.719   2.052   3.087
29181WAT     H187785   9.692   2.045   3.183
29181WAT     H287786   9.755   2.143   3.069
29182WAT      O87787   1.516   5.065   4.716
29182WAT     H187788   1.491   5.109   4.629
29182WAT     H287789   1.490   4.969   4.713
29183WAT      O87790   3.389   5.297   7.599
29183WAT     H187791   3.381   5.384   7.646
29183WAT     H287792   3.302   5.249   7.602
29184WAT      O87793   7.167   1.958   2.909
29184WAT     H187794   7.236   2.020   2.947
29184WAT     H287795   7.077   2.001   2.915
29185WAT      O87796   0.888   3.735   3.516
29185WAT     H187797   0.826   3.786   3.457
29185WAT     H287798   0.869   3.637   3.508
29186WAT      O87799   7.098   5.341   7.874
29186WAT     H187800   7.050   5.279   7.813
29186WAT     H287801   7.037   5.370   7.948
29187WAT      O87802   5.843   5.506   0.319
29187WAT     H187803   5.877   5.440   0.385
29187WAT     H287804   5.910   5.579   0.306
29188WAT      O87805   2.743   2.910   5.801
29188WAT     H187806   2.671   2.867   5.855
29188WAT     H287807   2.831   2.866   5.822
29189WAT      O87808   7.351   3.965   9.609
29189WAT     H187809   7.336   3.906   9.688
29189WAT     H287810   7.295   4.048   9.618
29190WAT      O87811   2.385   6.082   6.663
29190WAT     H187812   2.372   6.181   6.660
29190WAT     H287813   2.480   6.061   6.684
29191WAT      O87814   6.887   4.383   1.397
29191WAT     H187815   6.945   4.414   1.322
29191WAT     H287816   6.798   4.429   1.392
29192WAT      O87817   6.408   5.726   0.514
29192WAT     H187818   6.380   5.821   0.527
29192WAT     H287819   6.381   5.695   0.423
29193WAT      O87820   9.116   1.717   1.857
29193WAT     H187821   9.066   1.789   1.811
29193WAT     H287822   9.203   1.753   1.890
29194WAT      O87823   6.795   9.402   2.018
29194WAT     H187824   6.880   9.351   2.005
29194WAT     H287825   6.787   9.430   2.114
29195WAT      O87826   0.669   1.326   5.040
29195WAT     H187827   0.571   1.323   5.061
29195WAT     H287828   0.688   1.266   4.962
29196WAT      O87829   5.500   0.110   8.908
29196WAT     H187830   5.520   0.069   8.997
29196WAT     H287831   5.403   0.098   8.887
29197WAT      O87832   2.248   6.110   5.031
29197WAT     H187833   2.251   6.017   4.995
29197WAT     H287834   2.329   6.160   5.001
29198WAT      O87835   6.126   2.979   3.404
29198WAT     H187836   6.141   3.078   3.395
29198WAT     H287837   6.199   2.939   3.459
29199WAT      O87838   6.856   9.577   5.214
29199WAT     H187839   6.899   9.513   5.276
29199WAT     H287840   6.767   9.541   5.184
29200WAT      O87841   3.801   5.238   6.759
29200WAT     H187842   3.834   5.297   6.685
29200WAT     H287843   3.720   5.189   6.729
29201WAT      O87844   4.078   4.074   9.157
29201WAT     H187845   3.987   4.114   9.171
29201WAT     H287846   4.091   4.055   9.060
29202WAT      O87847   1.020   7.144   1.373
29202WAT     H187848   1.083   7.100   1.309
29202WAT     H287849   0.929   7.106   1.362
29203WAT      O87850   1.500   3.108   5.348
29203WAT     H187851   1.555   3.136   5.427
29203WAT     H287852   1.463   3.189   5.302
29204WAT      O87853   0.051   0.265   5.486
29204WAT     H187854   0.137   0.260   5.538
29204WAT     H287855   0.064   0.325   5.407
29205WAT      O87856   1.002   6.178   0.116
29205WAT     H187857   0.986   6.180   0.215
29205WAT     H287858   1.036   6.088   0.089
29206WAT      O87859   2.160   8.802   6.166
29206WAT     H187860   2.124   8.732   6.105
29206WAT     H287861   2.167   8.765   6.259
29207WAT      O87862   5.428   5.404   7.849
29207WAT     H187863   5.525   5.420   7.867
29207WAT     H287864   5.389   5.483   7.802
29208WAT      O87865   3.718   6.541   9.247
29208WAT     H187866   3.654   6.576   9.315
29208WAT     H287867   3.670   6.481   9.183
29209WAT      O87868   0.288   7.648   6.285
29209WAT     H187869   0.298   7.728   6.345
29209WAT     H287870   0.231   7.579   6.330
29210WAT      O87871   4.453   7.445   4.754
29210WAT     H187872   4.481   7.489   4.669
29210WAT     H287873   4.412   7.512   4.815
29211WAT      O87874   2.674   3.382   5.074
29211WAT     H187875   2.598   3.360   5.013
29211WAT     H287876   2.640   3.389   5.168
29212WAT      O87877   9.577   5.961   1.334
29212WAT     H187878   9.530   6.042   1.300
29212WAT     H287879   9.584   5.965   1.434
29213WAT      O87880   5.906   9.755   4.719
29213WAT     H187881   5.904   9.853   4.737
29213WAT     H287882   5.931   9.706   4.803
29214WAT      O87883   7.300   8.364   6.011
29214WAT     H187884   7.348   8.294   6.064
29214WAT     H287885   7.331   8.454   6.040
29215WAT      O87886   0.455   3.555   4.462
29215WAT     H187887   0.413   3.469   4.435
29215WAT     H287888   0.503   3.543   4.549
29216WAT      O87889   0.252   3.414   7.203
29216WAT     H187890   0.340   3.455   7.228
29216WAT     H287891   0.180   3.483   7.212
29217WAT      O87892   8.824   4.453   8.276
29217WAT     H187893   8.772   4.508   8.342
29217WAT     H287894   8.761   4.392   8.227
29218WAT      O87895   5.336   3.082   1.903
29218WAT     H187896   5.274   3.005   1.921
29218WAT     H287897   5.391   3.062   1.822
29219WAT      O87898   9.424   4.079   6.548
29219WAT     H187899   9.456   4.010   6.483
29219WAT     H287900   9.451   4.052   6.641
29220WAT      O87901   1.849   6.793   6.648
29220WAT     H187902   1.903   6.741   6.715
29220WAT     H287903   1.909   6.821   6.573
29221WAT      O87904   1.737   4.263   1.810
29221WAT     H187905   1.770   4.357   1.811
29221WAT     H287906   1.725   4.233   1.715
29222WAT      O87907   2.514   3.932   8.301
29222WAT     H187908   2.538   4.029   8.303
29222WAT     H287909   2.514   3.899   8.207
29223WAT      O87910   1.258   1.363   5.804
29223WAT     H187911   1.298   1.284   5.758
29223WAT     H287912   1.229   1.430   5.735
29224WAT      O87913   5.990   6.041   1.130
29224WAT     H187914   6.008   5.955   1.177
29224WAT     H287915   5.969   6.023   1.034
29225WAT      O87916   0.088   6.120   4.338
29225WAT     H187917   0.162   6.080   4.392
29225WAT     H287918   0.042   6.049   4.285
29226WAT      O87919   5.784   7.568   7.166
29226WAT     H187920   5.832   7.480   7.164
29226WAT     H287921   5.821   7.624   7.241
29227WAT      O87922   2.700   5.374   4.847
29227WAT     H187923   2.794   5.344   4.863
29227WAT     H287924   2.694   5.415   4.756
29228WAT      O87925   0.258   8.513   2.845
29228WAT     H187926   0.281   8.579   2.917
29228WAT     H287927   0.296   8.424   2.867
29229WAT      O87928   4.799   3.281   6.887
29229WAT     H187929   4.881   3.336   6.902
29229WAT     H287930   4.755   3.309   6.802
29230WAT      O87931   0.570   9.259   3.594
29230WAT     H187932   0.650   9.318   3.581
29230WAT     H287933   0.600   9.170   3.628
29231WAT      O87934   0.106   5.048   7.214
29231WAT     H187935   0.062   4.994   7.142
29231WAT     H287936   0.197   5.011   7.232
29232WAT      O87937   4.953   2.768   4.952
29232WAT     H187938   5.001   2.825   4.885
29232WAT     H287939   4.869   2.732   4.911
29233WAT      O87940   0.306   6.025   0.850
29233WAT     H187941   0.403   6.042   0.869
29233WAT     H287942   0.269   5.961   0.918
29234WAT      O87943   1.358   2.241   2.576
29234WAT     H187944   1.413   2.193   2.508
29234WAT     H287945   1.337   2.333   2.544
29235WAT      O87946   6.541   1.026   4.943
29235WAT     H187947   6.526   1.123   4.958
29235WAT     H287948   6.560   0.981   5.031
29236WAT      O87949   9.194   7.351   6.666
29236WAT     H187950   9.245   7.336   6.750
29236WAT     H287951   9.256   7.345   6.588
29237WAT      O87952   8.783   0.261   9.339
29237WAT     H187953   8.825   0.200   9.406
29237WAT     H287954   8.850   0.328   9.307
29238WAT      O87955   2.201   4.859   9.069
29238WAT     H187956   2.199   4.944   9.122
29238WAT     H287957   2.163   4.877   8.978
29239WAT      O87958   0.158   8.851   3.855
29239WAT     H187959   0.113   8.910   3.788
29239WAT     H287960   0.096   8.836   3.932
29240WAT      O87961   9.390   4.457   2.252
29240WAT     H187962   9.417   4.361   2.241
29240WAT     H287963   9.472   4.513   2.263
29241WAT      O87964   4.414   0.117   7.335
29241WAT     H187965   4.474   0.130   7.256
29241WAT     H287966   4.469   0.112   7.419
29242WAT      O87967   7.499   4.496   9.038
29242WAT     H187968   7.447   4.423   9.082
29242WAT     H287969   7.538   4.556   9.108
29243WAT      O87970   5.643   1.202   8.414
29243WAT     H187971   5.666   1.294   8.383
29243WAT     H287972   5.544   1.188   8.407
29244WAT      O87973   9.879   7.313   0.286
29244WAT     H187974   9.794   7.333   0.335
29244WAT     H287975   9.901   7.389   0.225
29245WAT      O87976   3.739   1.779   6.368
29245WAT     H187977   3.795   1.706   6.329
29245WAT     H287978   3.788   1.866   6.363
29246WAT      O87979   7.284   3.322   9.042
29246WAT     H187980   7.290   3.334   8.943
29246WAT     H287981   7.295   3.410   9.087
29247WAT      O87982   4.236   5.786   2.963
29247WAT     H187983   4.234   5.788   3.063
29247WAT     H287984   4.175   5.714   2.930
29248WAT      O87985   8.136   9.643   9.897
29248WAT     H187986   8.071   9.719   9.891
29248WAT     H287987   8.181   9.630   9.809
29249WAT      O87988   8.753   7.877   5.616
29249WAT     H187989   8.692   7.937   5.564
29249WAT     H287990   8.714   7.785   5.621
29250WAT      O87991   1.090   7.852   2.188
29250WAT     H187992   1.157   7.817   2.121
29250WAT     H287993   1.073   7.948   2.169
29251WAT      O87994   5.347   7.114   9.385
29251WAT     H187995   5.260   7.100   9.433
29251WAT     H287996   5.330   7.117   9.286
29252WAT      O87997   9.342   9.008   9.628
29252WAT     H187998   9.254   9.040   9.592
29252WAT     H287999   9.375   8.932   9.571
29253WAT      O88000   9.172   5.754   7.253
29253WAT     H188001   9.266   5.729   7.230
29253WAT     H288002   9.145   5.707   7.338
29254WAT      O88003   2.929   6.599   4.312
29254WAT     H188004   2.931   6.667   4.239
29254WAT     H288005   2.840   6.603   4.358
29255WAT      O88006   9.260   5.292   2.384
29255WAT     H188007   9.160   5.298   2.389
29255WAT     H288008   9.297   5.286   2.476
29256WAT      O88009   7.214   5.750   8.672
29256WAT     H188010   7.291   5.813   8.685
29256WAT     H288011   7.139   5.775   8.733
29257WAT      O88012   6.544   9.340   2.192
29257WAT     H188013   6.566   9.259   2.138
29257WAT     H288014   6.462   9.323   2.246
29258WAT      O88015   5.921   6.997   5.752
29258WAT     H188016   6.000   7.057   5.762
29258WAT     H288017   5.938   6.911   5.799
29259WAT      O88018   0.992   2.913   9.205
29259WAT     H188019   0.940   2.932   9.122
29259WAT     H288020   1.069   2.976   9.212
29260WAT      O88021   8.966   9.175   0.465
29260WAT     H188022   8.954   9.115   0.385
29260WAT     H288023   8.883   9.172   0.521
29261WAT      O88024   5.696   6.001   9.292
29261WAT     H188025   5.717   6.040   9.382
29261WAT     H288026   5.637   6.064   9.242
29262WAT      O88027   5.947   8.718   3.262
29262WAT     H188028   5.960   8.717   3.163
29262WAT     H288029   5.907   8.805   3.289
29263WAT      O88030   1.405   9.024   8.252
29263WAT     H188031   1.387   9.121   8.232
29263WAT     H288032   1.491   9.017   8.303
29264WAT      O88033   3.113   2.077   4.132
29264WAT     H188034   3.105   2.147   4.060
29264WAT     H288035   3.201   2.030   4.123
29265WAT      O88036   3.866   4.495   0.822
29265WAT     H188037   3.913   4.568   0.871
29265WAT     H288038   3.767   4.511   0.823
29266WAT      O88039   1.213   4.751   6.515
29266WAT     H188040   1.184   4.846   6.511
29266WAT     H288041   1.236   4.719   6.423
29267WAT      O88042   8.194   6.213   6.355
29267WAT     H188043   8.205   6.285   6.286
29267WAT     H288044   8.113   6.233   6.411
29268WAT      O88045   1.911   7.552   7.675
29268WAT     H188046   1.938   7.578   7.582
29268WAT     H288047   1.937   7.456   7.691
29269WAT      O88048   9.783   5.601   7.816
29269WAT     H188049   9.746   5.555   7.735
29269WAT     H288050   9.872   5.561   7.839
29270WAT      O88051   2.644   5.357   8.933
29270WAT     H188052   2.564   5.416   8.920
29270WAT     H288053   2.648   5.326   9.028
29271WAT      O88054   9.793   2.452   8.673
29271WAT     H188055   9.861   2.390   8.635
29271WAT     H288056   9.715   2.399   8.707
29272WAT      O88057   2.270   1.378   6.592
29272WAT     H188058   2.177   1.355   6.620
29272WAT     H288059   2.277   1.374   6.493
29273WAT      O88060   7.582   2.162   5.273
29273WAT     H188061   7.502   2.213   5.242
29273WAT     H288062   7.662   2.222   5.272
29274WAT      O88063   0.372   4.574   7.064
29274WAT     H188064   0.302   4.629   7.108
29274WAT     H288065   0.351   4.477   7.075
29275WAT      O88066   4.812   0.057   0.910
29275WAT     H188067   4.884   0.124   0.929
29275WAT     H288068   4.833   0.011   0.823
29276WAT      O88069   6.701   9.653   7.829
29276WAT     H188070   6.790   9.611   7.809
29276WAT     H288071   6.715   9.733   7.887
29277WAT      O88072   6.956   6.356   5.028
29277WAT     H188073   6.909   6.304   5.099
29277WAT     H288074   7.041   6.310   5.003
29278WAT      O88075   4.426   5.219   6.204
29278WAT     H188076   4.367   5.300   6.207
29278WAT     H288077   4.369   5.138   6.191
29279WAT      O88078   5.869   0.204   9.662
29279WAT     H188079   5.896   0.301   9.667
29279WAT     H288080   5.771   0.196   9.680
29280WAT      O88081   6.063   6.761   8.017
29280WAT     H188082   6.052   6.670   7.976
29280WAT     H288083   6.027   6.830   7.954
29281WAT      O88084   9.248   2.627   3.218
29281WAT     H188085   9.260   2.726   3.225
29281WAT     H288086   9.234   2.588   3.309
29282WAT      O88087   7.500   6.557   3.065
29282WAT     H188088   7.565   6.632   3.051
29282WAT     H288089   7.550   6.470   3.072
29283WAT      O88090   5.170   3.668   2.530
29283WAT     H188091   5.239   3.635   2.465
29283WAT     H288092   5.174   3.767   2.535
29284WAT      O88093   0.745   5.001   8.180
29284WAT     H188094   0.660   5.022   8.132
29284WAT     H288095   0.815   5.068   8.154
29285WAT      O88096   5.022   0.151   6.870
29285WAT     H188097   5.007   0.184   6.776
29285WAT     H288098   5.039   0.053   6.868
29286WAT      O88099   0.406   0.202   0.728
29286WAT     H188100   0.457   0.121   0.696
29286WAT     H288101   0.471   0.273   0.755
29287WAT      O88102   8.157   8.505   2.499
29287WAT     H188103   8.118   8.591   2.534
29287WAT     H288104   8.140   8.499   2.401
29288WAT      O88105   2.876   3.574   2.699
29288WAT     H188106   2.879   3.652   2.636
29288WAT     H288107   2.794   3.581   2.757
29289WAT      O88108   5.165   9.596   2.779
29289WAT     H188109   5.230   9.608   2.704
29289WAT     H288110   5.072   9.594   2.743
29290WAT      O88111   5.945   1.696   5.145
29290WAT     H188112   5.985   1.607   5.164
29290WAT     H288113   5.952   1.716   5.047
29291WAT      O88114   7.882   4.473   8.566
29291WAT     H188115   7.805   4.494   8.506
29291WAT     H288116   7.965   4.464   8.511
29292WAT      O88117   0.061   6.953   4.683
29292WAT     H188118   0.047   6.997   4.594
29292WAT     H288119   0.130   7.003   4.735
29293WAT      O88120   9.253   8.830   1.185
29293WAT     H188121   9.287   8.837   1.091
29293WAT     H288122   9.298   8.898   1.243
29294WAT      O88123   5.381   8.940   2.512
29294WAT     H188124   5.395   8.856   2.459
29294WAT     H288125   5.405   9.019   2.457
29295WAT      O88126   9.679   8.101   3.213
29295WAT     H188127   9.692   8.168   3.286
29295WAT     H288128   9.690   8.009   3.250
29296WAT      O88129   9.100   7.251   7.537
29296WAT     H188130   9.134   7.168   7.494
29296WAT     H288131   9.135   7.331   7.489
29297WAT      O88132   3.434   8.645   0.842
29297WAT     H188133   3.492   8.563   0.841
29297WAT     H288134   3.414   8.672   0.748
29298WAT      O88135   3.156   0.477   4.370
29298WAT     H188136   3.249   0.445   4.349
29298WAT     H288137   3.142   0.568   4.330
29299WAT      O88138   1.474   5.413   1.492
29299WAT     H188139   1.429   5.469   1.562
29299WAT     H288140   1.417   5.410   1.410
29300WAT      O88141   2.909   3.514   0.884
29300WAT     H188142   2.908   3.430   0.829
29300WAT     H288143   3.002   3.553   0.883
29301WAT      O88144   6.604   2.255   3.896
29301WAT     H188145   6.699   2.282   3.911
29301WAT     H288146   6.559   2.325   3.840
29302WAT      O88147   8.564   6.105   8.033
29302WAT     H188148   8.636   6.174   8.026
29302WAT     H288149   8.475   6.148   8.015
29303WAT      O88150   7.527   5.609   8.806
29303WAT     H188151   7.544   5.580   8.711
29303WAT     H288152   7.443   5.662   8.810
29304WAT      O88153   0.391   4.167   5.150
29304WAT     H188154   0.491   4.167   5.138
29304WAT     H288155   0.348   4.184   5.061
29305WAT      O88156   9.392   4.369   8.737
29305WAT     H188157   9.340   4.358   8.652
29305WAT     H288158   9.434   4.460   8.739
29306WAT      O88159   4.204   9.104   7.354
29306WAT     H188160   4.212   9.109   7.255
29306WAT     H288161   4.171   9.192   7.390
29307WAT      O88162   9.308   3.850   3.424
29307WAT     H188163   9.313   3.903   3.508
29307WAT     H288164   9.232   3.785   3.430
29308WAT      O88165   4.179   5.820   3.228
29308WAT     H188166   4.247   5.808   3.300
29308WAT     H288167   4.096   5.769   3.252
29309WAT      O88168   3.050   3.251   7.996
29309WAT     H188169   3.083   3.161   8.025
29309WAT     H288170   3.062   3.316   8.071
29310WAT      O88171   7.915   2.278   0.093
29310WAT     H188172   7.903   2.231   0.181
29310WAT     H288173   7.960   2.217   0.028
29311WAT      O88174   7.698   8.665   9.583
29311WAT     H188175   7.600   8.684   9.580
29311WAT     H288176   7.714   8.568   9.565
29312WAT      O88177   3.821   0.357   6.564
29312WAT     H188178   3.903   0.341   6.619
29312WAT     H288179   3.834   0.437   6.506
29313WAT      O88180   9.176   6.841   3.658
29313WAT     H188181   9.108   6.812   3.590
29313WAT     H288182   9.195   6.938   3.646
29314WAT      O88183   4.214   2.497   6.615
29314WAT     H188184   4.210   2.596   6.628
29314WAT     H288185   4.121   2.460   6.608
29315WAT      O88186   4.857   4.961   0.589
29315WAT     H188187   4.869   5.031   0.659
29315WAT     H288188   4.760   4.944   0.574
29316WAT      O88189   3.825   8.744   9.850
29316WAT     H188190   3.910   8.794   9.831
29316WAT     H288191   3.748   8.807   9.841
29317WAT      O88192   1.554   2.130   2.432
29317WAT     H188193   1.572   2.146   2.335
29317WAT     H288194   1.594   2.203   2.486
29318WAT      O88195   9.343   8.266   3.508
29318WAT     H188196   9.440   8.253   3.531
29318WAT     H288197   9.331   8.357   3.469
29319WAT      O88198   0.790   0.890   7.887
29319WAT     H188199   0.871   0.935   7.850
29319WAT     H288200   0.719   0.884   7.817
29320WAT      O88201   2.837   4.641   7.406
29320WAT     H188202   2.893   4.632   7.489
29320WAT     H288203   2.896   4.660   7.328
29321WAT      O88204   8.650   3.835   1.925
29321WAT     H188205   8.633   3.875   1.835
29321WAT     H288206   8.616   3.897   1.996
29322WAT      O88207   3.433   3.477   6.015
29322WAT     H188208   3.465   3.485   5.921
29322WAT     H288209   3.393   3.387   6.029
29323WAT      O88210   8.258   2.481   5.007
29323WAT     H188211   8.247   2.418   4.929
29323WAT     H288212   8.247   2.430   5.092
29324WAT      O88213   1.368   0.266   4.504
29324WAT     H188214   1.338   0.334   4.437
29324WAT     H288215   1.397   0.312   4.588
29325WAT      O88216   2.542   1.190   6.477
29325WAT     H188217   2.622   1.170   6.421
29325WAT     H288218   2.461   1.196   6.419
29326WAT      O88219   8.757   0.755   0.644
29326WAT     H188220   8.749   0.667   0.597
29326WAT     H288221   8.728   0.828   0.583
29327WAT      O88222   8.989   1.238   0.147
29327WAT     H188223   9.011   1.329   0.112
29327WAT     H288224   8.917   1.197   0.092
29328WAT      O88225   7.724   0.548   2.686
29328WAT     H188226   7.697   0.615   2.617
29328WAT     H288227   7.660   0.471   2.685
29329WAT      O88228   4.107   1.171   8.663
29329WAT     H188229   4.126   1.257   8.616
29329WAT     H288230   4.193   1.123   8.680
29330WAT      O88231   0.164   8.565   3.669
29330WAT     H188232   0.211   8.483   3.637
29330WAT     H288233   0.169   8.569   3.769
29331WAT      O88234   4.990   2.457   8.018
29331WAT     H188235   5.061   2.392   7.992
29331WAT     H288236   4.927   2.470   7.942
29332WAT      O88237   7.323   5.866   3.352
29332WAT     H188238   7.379   5.881   3.271
29332WAT     H288239   7.345   5.777   3.392
29333WAT      O88240   1.168   1.110   6.307
29333WAT     H188241   1.229   1.187   6.286
29333WAT     H288242   1.196   1.030   6.255
29334WAT      O88243   9.027   6.828   1.205
29334WAT     H188244   8.948   6.889   1.200
29334WAT     H288245   9.011   6.758   1.274
29335WAT      O88246   6.518   4.153   1.807
29335WAT     H188247   6.565   4.189   1.726
29335WAT     H288248   6.548   4.203   1.888
29336WAT      O88249   1.699   2.678   9.188
29336WAT     H188250   1.659   2.693   9.279
29336WAT     H288251   1.794   2.650   9.198
29337WAT      O88252   3.000   6.446   6.020
29337WAT     H188253   2.951   6.380   6.077
29337WAT     H288254   3.078   6.401   5.977
29338WAT      O88255   9.759   3.112   5.954
29338WAT     H188256   9.821   3.033   5.962
29338WAT     H288257   9.800   3.179   5.892
29339WAT      O88258   7.869   4.254   0.692
29339WAT     H188259   7.776   4.225   0.671
29339WAT     H288260   7.891   4.231   0.787
29340WAT      O88261   5.503   9.728   0.475
29340WAT     H188262   5.464   9.819   0.459
29340WAT     H288263   5.443   9.659   0.435
29341WAT      O88264   1.546   5.317   2.211
29341WAT     H188265   1.555   5.415   2.195
29341WAT     H288266   1.571   5.267   2.128
29342WAT      O88267   3.355   0.158   4.231
29342WAT     H188268   3.288   0.138   4.160
29342WAT     H288269   3.308   0.188   4.314
29343WAT      O88270   1.564   7.685   8.850
29343WAT     H188271   1.570   7.643   8.759
29343WAT     H288272   1.633   7.643   8.910
29344WAT      O88273   1.817   4.545   6.147
29344WAT     H188274   1.889   4.513   6.207
29344WAT     H288275   1.750   4.472   6.133
29345WAT      O88276   5.827   4.709   1.072
29345WAT     H188277   5.888   4.787   1.087
29345WAT     H288278   5.874   4.624   1.096
29346WAT      O88279   5.161   5.211   8.412
29346WAT     H188280   5.252   5.224   8.372
29346WAT     H288281   5.093   5.202   8.340
29347WAT      O88282   9.271   9.244   5.867
29347WAT     H188283   9.371   9.258   5.865
29347WAT     H288284   9.248   9.173   5.933
29348WAT      O88285   9.582   8.628   1.923
29348WAT     H188286   9.583   8.728   1.930
29348WAT     H288287   9.649   8.598   1.856
29349WAT      O88288   9.739   2.093   3.983
29349WAT     H188289   9.755   2.191   3.978
29349WAT     H288290   9.785   2.055   4.063
29350WAT      O88291   0.080   5.193   5.218
29350WAT     H188292   0.079   5.290   5.243
29350WAT     H288293   0.157   5.148   5.264
29351WAT      O88294   0.736   5.808   9.129
29351WAT     H188295   0.729   5.902   9.097
29351WAT     H288296   0.645   5.775   9.156
29352WAT      O88297   8.389   4.548   6.265
29352WAT     H188298   8.400   4.448   6.267
29352WAT     H288299   8.292   4.571   6.270
29353WAT      O88300   1.706   8.864   8.145
29353WAT     H188301   1.800   8.868   8.110
29353WAT     H288302   1.705   8.895   8.240
29354WAT      O88303   8.209   9.041   5.849
29354WAT     H188304   8.309   9.033   5.839
29354WAT     H288305   8.166   9.035   5.759
29355WAT      O88306   5.282   9.393   4.617
29355WAT     H188307   5.282   9.470   4.553
29355WAT     H288308   5.235   9.315   4.575
29356WAT      O88309   0.007   9.570   0.240
29356WAT     H188310  -0.079   9.605   0.203
29356WAT     H288311   0.023   9.609   0.331
29357WAT      O88312   3.049   1.555   5.199
29357WAT     H188313   2.975   1.551   5.132
29357WAT     H288314   3.137   1.549   5.153
29358WAT      O88315   9.213   3.868   3.163
29358WAT     H188316   9.259   3.857   3.252
29358WAT     H288317   9.120   3.901   3.178
29359WAT      O88318   8.232   3.159   8.888
29359WAT     H188319   8.171   3.198   8.957
29359WAT     H288320   8.202   3.186   8.797
29360WAT      O88321   7.987   4.178   6.644
29360WAT     H188322   8.022   4.202   6.554
29360WAT     H288323   8.062   4.171   6.709
29361WAT      O88324   3.296   0.034   7.793
29361WAT     H188325   3.250   0.046   7.704
29361WAT     H288326   3.393   0.015   7.778
29362WAT      O88327   5.176   9.188   9.038
29362WAT     H188328   5.129   9.107   9.073
29362WAT     H288329   5.262   9.161   8.994
29363WAT      O88330   0.086   8.613   7.041
29363WAT     H188331   0.006   8.567   7.002
29363WAT     H288332   0.089   8.708   7.009
29364WAT      O88333   6.036   7.814   7.085
29364WAT     H188334   5.959   7.871   7.058
29364WAT     H288335   6.031   7.795   7.183
29365WAT      O88336   2.320   6.031   3.353
29365WAT     H188337   2.372   5.983   3.424
29365WAT     H288338   2.308   5.972   3.273
29366WAT      O88339   6.054   1.569   7.260
29366WAT     H188340   6.009   1.589   7.173
29366WAT     H288341   5.993   1.515   7.318
29367WAT      O88342   5.289   3.714   8.477
29367WAT     H188343   5.294   3.799   8.424
29367WAT     H288344   5.272   3.638   8.415
29368WAT      O88345   1.899   3.479   5.193
29368WAT     H188346   1.952   3.459   5.110
29368WAT     H288347   1.839   3.402   5.213
29369WAT      O88348   5.216   7.023   3.668
29369WAT     H188349   5.156   7.041   3.746
29369WAT     H288350   5.161   7.009   3.586
29370WAT      O88351   3.221   8.337   9.776
29370WAT     H188352   3.184   8.384   9.856
29370WAT     H288353   3.182   8.245   9.771
29371WAT      O88354   4.699   9.470   2.175
29371WAT     H188355   4.618   9.453   2.119
29371WAT     H288356   4.696   9.562   2.212
29372WAT      O88357   7.715   9.123   9.667
29372WAT     H188358   7.746   9.037   9.626
29372WAT     H288359   7.622   9.143   9.636
29373WAT      O88360   7.012   2.219   0.957
29373WAT     H188361   6.997   2.308   0.999
29373WAT     H288362   6.950   2.152   0.996
29374WAT      O88363   5.739   8.133   9.261
29374WAT     H188364   5.725   8.049   9.210
29374WAT     H288365   5.666   8.198   9.239
29375WAT      O88366   5.040   3.683   6.478
29375WAT     H188367   5.118   3.678   6.416
29375WAT     H288368   4.955   3.675   6.426
29376WAT      O88369   8.421   9.570   5.234
29376WAT     H188370   8.495   9.603   5.176
29376WAT     H288371   8.391   9.480   5.202
29377WAT      O88372   9.715   4.606   6.297
29377WAT     H188373   9.703   4.561   6.385
29377WAT     H288374   9.801   4.576   6.256
29378WAT      O88375   4.872   6.146   1.801
29378WAT     H188376   4.918   6.202   1.732
29378WAT     H288377   4.798   6.094   1.759
29379WAT      O88378   6.272   7.242   7.994
29379WAT     H188379   6.236   7.168   8.051
29379WAT     H288380   6.196   7.301   7.964
29380WAT      O88381   4.756   9.318   0.446
29380WAT     H188382   4.679   9.350   0.391
29380WAT     H288383   4.836   9.376   0.428
29381WAT      O88384   2.121   3.136   9.862
29381WAT     H188385   2.099   3.205   9.931
29381WAT     H288386   2.038   3.085   9.839
29382WAT      O88387   6.103   6.150   4.132
29382WAT     H188388   6.134   6.057   4.155
29382WAT     H288389   6.177   6.215   4.151
29383WAT      O88390   9.423   7.028   2.546
29383WAT     H188391   9.408   6.939   2.590
29383WAT     H288392   9.395   7.023   2.450
29384WAT      O88393   8.359   1.742   9.011
29384WAT     H188394   8.329   1.770   8.919
29384WAT     H288395   8.443   1.688   9.003
29385WAT      O88396   4.822   7.752   0.802
29385WAT     H188397   4.890   7.738   0.873
29385WAT     H288398   4.750   7.683   0.810
29386WAT      O88399   1.602   4.312   9.094
29386WAT     H188400   1.688   4.299   9.144
29386WAT     H288401   1.527   4.322   9.160
29387WAT      O88402   5.381   3.435   7.230
29387WAT     H188403   5.288   3.403   7.248
29387WAT     H288404   5.387   3.473   7.138
29388WAT      O88405   9.717   4.514   3.264
29388WAT     H188406   9.711   4.587   3.332
29388WAT     H288407   9.736   4.427   3.310
29389WAT      O88408   5.437   5.016   2.618
29389WAT     H188409   5.508   5.085   2.634
29389WAT     H288410   5.354   5.062   2.584
29390WAT      O88411   2.341   4.271   7.260
29390WAT     H188412   2.417   4.224   7.305
29390WAT     H288413   2.353   4.370   7.268
29391WAT      O88414   0.378   6.775   4.704
29391WAT     H188415   0.441   6.801   4.630
29391WAT     H288416   0.311   6.709   4.670
29392WAT      O88417   9.039   6.458   6.479
29392WAT     H188418   9.080   6.518   6.411
29392WAT     H288419   8.946   6.433   6.449
29393WAT      O88420   8.269   4.923   4.386
29393WAT     H188421   8.295   4.970   4.302
29393WAT     H288422   8.175   4.947   4.410
29394WAT      O88423   0.129   2.648   5.279
29394WAT     H188424   0.077   2.563   5.267
29394WAT     H288425   0.197   2.635   5.351
29395WAT      O88426   1.861   7.853   8.297
29395WAT     H188427   1.860   7.944   8.337
29395WAT     H288428   1.834   7.785   8.365
29396WAT      O88429   9.509   4.203   3.097
29396WAT     H188430   9.414   4.208   3.066
29396WAT     H288431   9.511   4.205   3.197
29397WAT      O88432   6.958   2.840   3.317
29397WAT     H188433   6.997   2.842   3.409
29397WAT     H288434   7.013   2.898   3.256
29398WAT      O88435   5.418   4.513   3.931
29398WAT     H188436   5.372   4.572   3.865
29398WAT     H288437   5.448   4.567   4.009
29399WAT      O88438   8.881   8.389   9.120
29399WAT     H188439   8.866   8.437   9.033
29399WAT     H288440   8.794   8.378   9.167
29400WAT      O88441   3.355   8.142   3.137
29400WAT     H188442   3.260   8.135   3.167
29400WAT     H288443   3.406   8.199   3.201
29401WAT      O88444   2.769   0.491   6.016
29401WAT     H188445   2.755   0.532   6.105
29401WAT     H288446   2.839   0.420   6.022
29402WAT      O88447   8.478   6.435   1.723
29402WAT     H188448   8.508   6.487   1.642
29402WAT     H288449   8.488   6.338   1.705
29403WAT      O88450   1.561   8.151   3.310
29403WAT     H188451   1.621   8.185   3.238
29403WAT     H288452   1.575   8.053   3.322
29404WAT      O88453   7.371   5.695   7.434
29404WAT     H188454   7.404   5.644   7.355
29404WAT     H288455   7.436   5.768   7.455
29405WAT      O88456   7.614   1.574   3.578
29405WAT     H188457   7.571   1.622   3.654
29405WAT     H288458   7.599   1.626   3.493
29406WAT      O88459   4.216   5.844   2.551
29406WAT     H188460   4.216   5.847   2.451
29406WAT     H288461   4.126   5.872   2.585
29407WAT      O88462   6.381   4.731   9.731
29407WAT     H188463   6.294   4.744   9.682
29407WAT     H288464   6.393   4.806   9.797
29408WAT      O88465   7.448   0.199   0.003
29408WAT     H188466   7.392   0.140   0.061
29408WAT     H288467   7.430   0.294   0.025
29409WAT      O88468   5.038   8.298   4.882
29409WAT     H188469   5.048   8.215   4.827
29409WAT     H288470   4.964   8.354   4.844
29410WAT      O88471   2.374   6.349   6.686
29410WAT     H188472   2.416   6.396   6.609
29410WAT     H288473   2.296   6.403   6.720
29411WAT      O88474   0.396   0.087   6.310
29411WAT     H188475   0.423   0.158   6.246
29411WAT     H288476   0.462   0.012   6.307
29412WAT      O88477   5.883   5.050   5.891
29412WAT     H188478   5.846   5.139   5.916
29412WAT     H288479   5.809   4.990   5.860
29413WAT      O88480   0.908   8.843   0.811
29413WAT     H188481   0.981   8.774   0.818
29413WAT     H288482   0.944   8.925   0.768
29414WAT      O88483   4.335   7.996   2.977
29414WAT     H188484   4.314   7.939   3.056
29414WAT     H288485   4.353   8.090   3.008
29415WAT      O88486   9.278   7.019   4.749
29415WAT     H188487   9.349   7.057   4.690
29415WAT     H288488   9.306   6.929   4.781
29416WAT      O88489   0.843   7.986   8.682
29416WAT     H188490   0.767   7.969   8.744
29416WAT     H288491   0.889   7.900   8.660
29417WAT      O88492   3.707   1.095   1.114
29417WAT     H188493   3.667   1.004   1.123
29417WAT     H288494   3.693   1.146   1.199
29418WAT      O88495   1.463   7.490   4.888
29418WAT     H188496   1.562   7.505   4.878
29418WAT     H288497   1.440   7.399   4.853
29419WAT      O88498   9.512   3.348   4.973
29419WAT     H188499   9.419   3.379   4.951
29419WAT     H288500   9.527   3.257   4.932
29420WAT      O88501   6.536  -0.002   3.469
29420WAT     H188502   6.444   0.001   3.509
29420WAT     H288503   6.592   0.071   3.509
29421WAT      O88504   7.660   8.127   4.816
29421WAT     H188505   7.629   8.118   4.722
29421WAT     H288506   7.707   8.214   4.828
29422WAT      O88507   4.827   1.342   4.792
29422WAT     H188508   4.870   1.316   4.878
29422WAT     H288509   4.776   1.265   4.755
29423WAT      O88510   8.109   4.475   1.782
29423WAT     H188511   8.072   4.471   1.874
29423WAT     H288512   8.198   4.520   1.784
29424WAT      O88513   9.609   9.713   2.703
29424WAT     H188514   9.611   9.813   2.705
29424WAT     H288515   9.599   9.678   2.797
29425WAT      O88516   3.109   8.187   1.152
29425WAT     H188517   3.189   8.217   1.204
29425WAT     H288518   3.048   8.134   1.212
29426WAT      O88519   4.535   8.729   0.652
29426WAT     H188520   4.521   8.827   0.666
29426WAT     H288521   4.612   8.715   0.590
29427WAT      O88522   9.515   8.312   7.029
29427WAT     H188523   9.603   8.304   7.077
29427WAT     H288524   9.503   8.234   6.968
29428WAT      O88525   7.414   6.821   0.458
29428WAT     H188526   7.314   6.826   0.459
29428WAT     H288527   7.452   6.913   0.458
29429WAT      O88528   6.956   3.854   1.626
29429WAT     H188529   6.964   3.775   1.687
29429WAT     H288530   6.864   3.859   1.588
29430WAT      O88531   0.701   9.539   6.679
29430WAT     H188532   0.779   9.507   6.626
29430WAT     H288533   0.733   9.588   6.760
29431WAT      O88534   6.563   6.462   8.988
29431WAT     H188535   6.656   6.481   9.022
29431WAT     H288536   6.540   6.529   8.917
29432WAT      O88537   0.691   1.297   6.761
29432WAT     H188538   0.668   1.200   6.769
29432WAT     H288539   0.685   1.325   6.666
29433WAT      O88540   6.164   2.001   1.676
29433WAT     H188541   6.219   1.918   1.666
29433WAT     H288542   6.139   2.013   1.772
29434WAT      O88543   2.116   1.553   5.274
29434WAT     H188544   2.038   1.615   5.265
29434WAT     H288545   2.197   1.605   5.301
29435WAT      O88546   5.526   9.254   8.303
29435WAT     H188547   5.537   9.272   8.401
29435WAT     H288548   5.473   9.170   8.290
29436WAT      O88549   0.223   3.983   4.394
29436WAT     H188550   0.310   3.936   4.391
29436WAT     H288551   0.230   4.070   4.345
29437WAT      O88552   7.005   3.449   6.042
29437WAT     H188553   6.927   3.491   5.996
29437WAT     H288554   6.992   3.350   6.046
29438WAT      O88555   9.697   6.815   5.369
29438WAT     H188556   9.663   6.772   5.286
29438WAT     H288557   9.629   6.805   5.442
29439WAT      O88558   8.961   4.888   5.691
29439WAT     H188559   9.004   4.935   5.615
29439WAT     H288560   8.889   4.828   5.657
29440WAT      O88561   2.372   7.535   0.345
29440WAT     H188562   2.448   7.470   0.351
29440WAT     H288563   2.374   7.596   0.424
29441WAT      O88564   1.861   7.322   0.546
29441WAT     H188565   1.935   7.372   0.592
29441WAT     H288566   1.900   7.260   0.478
29442WAT      O88567   7.765   9.291   8.743
29442WAT     H188568   7.838   9.223   8.746
29442WAT     H288569   7.690   9.258   8.686
29443WAT      O88570   5.155   3.981   8.812
29443WAT     H188571   5.187   3.967   8.906
29443WAT     H288572   5.063   3.943   8.802
29444WAT      O88573   1.310   3.868   9.068
29444WAT     H188574   1.272   3.783   9.031
29444WAT     H288575   1.300   3.941   9.000
29445WAT      O88576   0.997   9.407   7.251
29445WAT     H188577   0.957   9.327   7.207
29445WAT     H288578   1.003   9.391   7.350
29446WAT      O88579   4.805   7.026   5.301
29446WAT     H188580   4.721   6.990   5.261
29446WAT     H288581   4.884   6.996   5.248
29447WAT      O88582   7.856   5.672   0.880
29447WAT     H188583   7.758   5.654   0.884
29447WAT     H288584   7.905   5.600   0.928
29448WAT      O88585   9.826   6.945   4.160
29448WAT     H188586   9.749   6.998   4.126
29448WAT     H288587   9.824   6.853   4.120
29449WAT      O88588   1.827   3.920   0.684
29449WAT     H188589   1.891   3.952   0.754
29449WAT     H288590   1.783   3.999   0.641
29450WAT      O88591   0.111   8.694   4.418
29450WAT     H188592   0.202   8.711   4.456
29450WAT     H288593   0.041   8.731   4.480
29451WAT      O88594   5.888   4.018   3.023
29451WAT     H188595   5.850   4.109   3.004
29451WAT     H288596   5.824   3.948   2.990
29452WAT      O88597   8.325   8.506   3.356
29452WAT     H188598   8.425   8.514   3.346
29452WAT     H288599   8.291   8.436   3.294
29453WAT      O88600   2.777   1.338   6.836
29453WAT     H188601   2.765   1.427   6.880
29453WAT     H288602   2.711   1.328   6.762
29454WAT      O88603   9.511   0.127   0.089
29454WAT     H188604   9.591   0.142   0.031
29454WAT     H288605   9.432   0.104   0.031
29455WAT      O88606   9.319   5.558   1.879
29455WAT     H188607   9.396   5.520   1.827
29455WAT     H288608   9.305   5.503   1.961
29456WAT      O88609   4.057   9.521   3.406
29456WAT     H188610   3.995   9.442   3.408
29456WAT     H288611   4.064   9.555   3.312
29457WAT      O88612   7.305   0.300   2.916
29457WAT     H188613   7.371   0.374   2.901
29457WAT     H288614   7.212   0.339   2.917
29458WAT      O88615   1.915   4.913   1.470
29458WAT     H188616   1.999   4.913   1.525
29458WAT     H288617   1.921   4.841   1.401
29459WAT      O88618   9.723   0.966   2.996
29459WAT     H188619   9.696   1.054   2.958
29459WAT     H288620   9.643   0.918   3.032
29460WAT      O88621   7.251   3.041   5.769
29460WAT     H188622   7.203   2.976   5.828
29460WAT     H288623   7.317   3.093   5.823
29461WAT      O88624   5.117   5.899   3.629
29461WAT     H188625   5.205   5.888   3.583
29461WAT     H288626   5.066   5.975   3.587
29462WAT      O88627   1.179   1.130   6.813
29462WAT     H188628   1.094   1.181   6.829
29462WAT     H288629   1.196   1.124   6.714
29463WAT      O88630   5.435   4.098   7.276
29463WAT     H188631   5.464   4.146   7.193
29463WAT     H288632   5.484   4.011   7.282
29464WAT      O88633   1.482   0.357   4.752
29464WAT     H188634   1.573   0.322   4.729
29464WAT     H288635   1.486   0.404   4.840
29465WAT      O88636   1.844   1.391   2.180
29465WAT     H188637   1.787   1.350   2.109
29465WAT     H288638   1.939   1.391   2.150
29466WAT      O88639   4.500   1.875   9.628
29466WAT     H188640   4.436   1.844   9.558
29466WAT     H288641   4.472   1.838   9.717
29467WAT      O88642   7.979   8.075   1.842
29467WAT     H188643   8.072   8.101   1.815
29467WAT     H288644   7.918   8.082   1.763
29468WAT      O88645   7.046   2.313   1.270
29468WAT     H188646   7.094   2.226   1.284
29468WAT     H288647   7.079   2.379   1.337
29469WAT      O88648   7.214   3.090   8.211
29469WAT     H188649   7.259   3.057   8.129
29469WAT     H288650   7.199   3.188   8.205
29470WAT      O88651   8.285   9.369   2.146
29470WAT     H188652   8.329   9.280   2.161
29470WAT     H288653   8.222   9.362   2.069
29471WAT      O88654   8.977   2.414   0.506
29471WAT     H188655   8.889   2.378   0.537
29471WAT     H288656   9.036   2.339   0.479
29472WAT      O88657   0.809   3.783   6.426
29472WAT     H188658   0.795   3.813   6.520
29472WAT     H288659   0.722   3.787   6.377
29473WAT      O88660   3.030   9.832   2.584
29473WAT     H188661   2.977   9.894   2.527
29473WAT     H288662   3.107   9.881   2.624
29474WAT      O88663   8.160   3.238   6.835
29474WAT     H188664   8.249   3.199   6.813
29474WAT     H288665   8.111   3.258   6.750
29475WAT      O88666   3.021   2.473   5.068
29475WAT     H188667   3.108   2.446   5.026
29475WAT     H288668   3.001   2.568   5.046
29476WAT      O88669   2.419   9.352   5.407
29476WAT     H188670   2.460   9.417   5.343
29476WAT     H288671   2.457   9.261   5.392
29477WAT      O88672   6.008   4.528   6.824
29477WAT     H188673   6.092   4.550   6.775
29477WAT     H288674   6.031   4.475   6.906
29478WAT      O88675   8.590   4.478   2.614
29478WAT     H188676   8.640   4.528   2.685
29478WAT     H288677   8.643   4.480   2.529
29479WAT      O88678   9.730   6.344   8.894
29479WAT     H188679   9.757   6.296   8.977
29479WAT     H288680   9.672   6.285   8.838
29480WAT      O88681   5.190   6.539   4.820
29480WAT     H188682   5.205   6.624   4.870
29480WAT     H288683   5.196   6.556   4.721
29481WAT      O88684   7.658   4.514   8.389
29481WAT     H188685   7.592   4.556   8.451
29481WAT     H288686   7.629   4.530   8.294
29482WAT      O88687   2.081   9.112   0.562
29482WAT     H188688   1.998   9.070   0.599
29482WAT     H288689   2.076   9.112   0.462
29483WAT      O88690   3.366   5.296   8.357
29483WAT     H188691   3.411   5.270   8.442
29483WAT     H288692   3.380   5.224   8.289
29484WAT      O88693   6.801   7.137   7.137
29484WAT     H188694   6.773   7.130   7.041
29484WAT     H288695   6.841   7.050   7.166
29485WAT      O88696   0.132   4.205   0.024
29485WAT     H188697   0.045   4.168   0.056
29485WAT     H288698   0.176   4.256   0.099
29486WAT      O88699   9.299   4.621   9.638
29486WAT     H188700   9.367   4.685   9.674
29486WAT     H288701   9.343   4.562   9.570
29487WAT      O88702   7.613   1.267   1.086
29487WAT     H188703   7.698   1.304   1.049
29487WAT     H288704   7.604   1.295   1.181
29488WAT      O88705   8.848   7.620   7.638
29488WAT     H188706   8.803   7.708   7.653
29488WAT     H288707   8.784   7.546   7.656
29489WAT      O88708   3.174   4.134   6.210
29489WAT     H188709   3.183   4.227   6.246
29489WAT     H288710   3.213   4.069   6.274
29490WAT      O88711   7.884   0.518   8.649
29490WAT     H188712   7.845   0.558   8.566
29490WAT     H288713   7.953   0.451   8.624
29491WAT      O88714   9.123   8.161   7.906
29491WAT     H188715   9.202   8.182   7.965
29491WAT     H288716   9.155   8.141   7.813
29492WAT      O88717   5.039   5.140   1.529
29492WAT     H188718   5.134   5.168   1.547
29492WAT     H288719   4.982   5.165   1.606
29493WAT      O88720   9.457   3.963   8.099
29493WAT     H188721   9.525   3.980   8.028
29493WAT     H288722   9.366   3.958   8.057
29494WAT      O88723   8.716   4.680   4.797
29494WAT     H188724   8.617   4.669   4.799
29494WAT     H288725   8.755   4.619   4.728
29495WAT      O88726   4.857   2.546   5.899
29495WAT     H188727   4.906   2.551   5.986
29495WAT     H288728   4.880   2.627   5.844
29496WAT      O88729   2.756   9.601   5.126
29496WAT     H188730   2.745   9.697   5.100
29496WAT     H288731   2.825   9.594   5.198
29497WAT      O88732   4.534   6.132   5.663
29497WAT     H188733   4.604   6.079   5.712
29497WAT     H288734   4.515   6.087   5.576
29498WAT      O88735   6.468   7.182   6.577
29498WAT     H188736   6.558   7.211   6.613
29498WAT     H288737   6.473   7.087   6.548
29499WAT      O88738   3.979   9.349   4.275
29499WAT     H188739   3.889   9.336   4.235
29499WAT     H288740   4.007   9.444   4.264
29500WAT      O88741   5.233   1.050   5.507
29500WAT     H188742   5.229   1.056   5.607
29500WAT     H288743   5.166   1.111   5.466
29501WAT      O88744   2.143   1.887   4.628
29501WAT     H188745   2.183   1.944   4.556
29501WAT     H288746   2.043   1.897   4.628
29502WAT      O88747   5.896   6.211   2.154
29502WAT     H188748   5.924   6.305   2.136
29502WAT     H288749   5.834   6.209   2.232
29503WAT      O88750   7.649   8.948   4.967
29503WAT     H188751   7.563   8.986   4.932
29503WAT     H288752   7.643   8.941   5.067
29504WAT      O88753   0.238   7.134   8.930
29504WAT     H188754   0.248   7.035   8.927
29504WAT     H288755   0.279   7.174   8.848
29505WAT      O88756   7.358   5.336   0.059
29505WAT     H188757   7.391   5.400   0.128
29505WAT     H288758   7.258   5.340   0.054
29506WAT      O88759   2.628   3.366   7.505
29506WAT     H188760   2.556   3.342   7.440
29506WAT     H288761   2.592   3.365   7.598
29507WAT      O88762   4.185   1.057   6.637
29507WAT     H188763   4.274   1.027   6.601
29507WAT     H288764   4.198   1.106   6.723
29508WAT      O88765   4.859   5.554   0.506
29508WAT     H188766   4.819   5.646   0.498
29508WAT     H288767   4.790   5.490   0.536
29509WAT      O88768   0.408   8.835   3.731
29509WAT     H188769   0.319   8.844   3.775
29509WAT     H288770   0.450   8.748   3.756
29510WAT      O88771   1.201   3.664   4.817
29510WAT     H188772   1.114   3.617   4.832
29510WAT     H288773   1.257   3.660   4.900
29511WAT      O88774   4.487   2.307   0.220
29511WAT     H188775   4.554   2.241   0.186
29511WAT     H288776   4.458   2.282   0.312
29512WAT      O88777   6.028   6.455   1.974
29512WAT     H188778   6.006   6.551   1.955
29512WAT     H288779   6.037   6.406   1.887
29513WAT      O88780   5.579   2.760   3.868
29513WAT     H188781   5.498   2.784   3.814
29513WAT     H288782   5.660   2.798   3.823
29514WAT      O88783   1.850   9.690   9.335
29514WAT     H188784   1.814   9.715   9.425
29514WAT     H288785   1.929   9.629   9.347
29515WAT      O88786   7.947   5.254   4.028
29515WAT     H188787   8.038   5.251   3.984
29515WAT     H288788   7.887   5.315   3.976
29516WAT      O88789   1.971   0.071   2.830
29516WAT     H188790   1.957   0.109   2.738
29516WAT     H288791   1.884   0.073   2.880
29517WAT      O88792   6.442   5.339   2.241
29517WAT     H188793   6.490   5.424   2.219
29517WAT     H288794   6.509   5.266   2.255
29518WAT      O88795   8.944   1.313   9.055
29518WAT     H188796   8.863   1.355   9.096
29518WAT     H288797   9.012   1.296   9.126
29519WAT      O88798   2.465   1.489   6.729
29519WAT     H188799   2.385   1.442   6.691
29519WAT     H288800   2.545   1.467   6.673
29520WAT      O88801   2.263   4.156   5.894
29520WAT     H188802   2.283   4.088   5.964
29520WAT     H288803   2.250   4.245   5.936
29521WAT      O88804   5.067   7.727   4.915
29521WAT     H188805   5.002   7.669   4.963
29521WAT     H288806   5.160   7.695   4.931
29522WAT      O88807   3.730   6.594   5.915
29522WAT     H188808   3.770   6.628   5.830
29522WAT     H288809   3.631   6.596   5.908
29523WAT      O88810   6.510   4.721   7.348
29523WAT     H188811   6.519   4.661   7.428
29523WAT     H288812   6.471   4.808   7.377
29524WAT      O88813   3.217   6.481   6.245
29524WAT     H188814   3.153   6.405   6.243
29524WAT     H288815   3.253   6.491   6.338
29525WAT      O88816   4.754   7.130   0.775
29525WAT     H188817   4.830   7.166   0.721
29525WAT     H288818   4.778   7.131   0.872
29526WAT      O88819   3.349   3.810   4.627
29526WAT     H188820   3.356   3.899   4.582
29526WAT     H288821   3.354   3.738   4.558
29527WAT      O88822   0.402   9.017   3.141
29527WAT     H188823   0.444   9.108   3.132
29527WAT     H288824   0.458   8.961   3.203
29528WAT      O88825   8.289   3.530   7.242
29528WAT     H188826   8.259   3.502   7.334
29528WAT     H288827   8.304   3.449   7.186
29529WAT      O88828   3.183   8.408   0.294
29529WAT     H188829   3.273   8.365   0.283
29529WAT     H288830   3.128   8.392   0.212
29530WAT      O88831   1.490   9.586   2.074
29530WAT     H188832   1.421   9.585   2.002
29530WAT     H288833   1.563   9.522   2.051
29531WAT      O88834   5.447   3.730   5.881
29531WAT     H188835   5.459   3.631   5.881
29531WAT     H288836   5.490   3.768   5.964
29532WAT      O88837   8.445   2.268   0.617
29532WAT     H188838   8.426   2.180   0.661
29532WAT     H288839   8.422   2.342   0.680
29533WAT      O88840   9.598   4.603   2.314
29533WAT     H188841   9.598   4.594   2.413
29533WAT     H288842   9.690   4.583   2.279
29534WAT      O88843   9.243   3.200   5.292
29534WAT     H188844   9.256   3.297   5.311
29534WAT     H288845   9.169   3.188   5.226
29535WAT      O88846   4.084   8.178   4.299
29535WAT     H188847   4.082   8.225   4.211
29535WAT     H288848   4.000   8.125   4.311
29536WAT      O88849   6.893   7.151   9.838
29536WAT     H188850   6.902   7.157   9.937
29536WAT     H288851   6.902   7.242   9.797
29537WAT      O88852   2.136   5.150   3.889
29537WAT     H188853   2.101   5.243   3.882
29537WAT     H288854   2.080   5.088   3.835
29538WAT      O88855   8.953   8.634   9.578
29538WAT     H188856   8.997   8.665   9.494
29538WAT     H288857   8.972   8.698   9.652
29539WAT      O88858   4.213   8.465   5.104
29539WAT     H188859   4.215   8.367   5.086
29539WAT     H288860   4.194   8.514   5.018
29540WAT      O88861   9.056   3.321   3.081
29540WAT     H188862   9.036   3.224   3.073
29540WAT     H288863   9.001   3.373   3.016
29541WAT      O88864   6.981   3.235   6.443
29541WAT     H188865   6.953   3.185   6.361
29541WAT     H288866   7.081   3.247   6.441
29542WAT      O88867   4.722   1.489   8.164
29542WAT     H188868   4.736   1.476   8.262
29542WAT     H288869   4.782   1.427   8.113
29543WAT      O88870   7.411   8.997   0.977
29543WAT     H188871   7.433   8.976   1.073
29543WAT     H288872   7.385   9.094   0.970
29544WAT      O88873   8.058   7.555   0.341
29544WAT     H188874   7.975   7.550   0.284
29544WAT     H288875   8.139   7.557   0.282
29545WAT      O88876   1.394   5.355   7.526
29545WAT     H188877   1.475   5.309   7.489
29545WAT     H288878   1.410   5.454   7.527
29546WAT      O88879   8.198   4.269   6.459
29546WAT     H188880   8.218   4.367   6.469
29546WAT     H288881   8.157   4.254   6.369
29547WAT      O88882   3.455   2.967   7.284
29547WAT     H188883   3.532   2.908   7.309
29547WAT     H288884   3.399   2.921   7.216
29548WAT      O88885   4.473   6.227   1.384
29548WAT     H188886   4.425   6.141   1.374
29548WAT     H288887   4.433   6.280   1.459
29549WAT      O88888   3.038   9.115   2.096
29549WAT     H188889   2.944   9.120   2.063
29549WAT     H288890   3.042   9.057   2.177
29550WAT      O88891   8.754   9.164   3.640
29550WAT     H188892   8.752   9.241   3.703
29550WAT     H288893   8.846   9.124   3.638
29551WAT      O88894   0.877   9.378   6.524
29551WAT     H188895   0.964   9.404   6.481
29551WAT     H288896   0.889   9.292   6.573
29552WAT      O88897   3.887   1.734   5.577
29552WAT     H188898   3.809   1.794   5.556
29552WAT     H288899   3.952   1.737   5.501
29553WAT      O88900   9.056   3.059   5.866
29553WAT     H188901   9.107   2.977   5.839
29553WAT     H288902   9.034   3.113   5.784
29554WAT      O88903   1.892   9.469   1.693
29554WAT     H188904   1.875   9.483   1.790
29554WAT     H288905   1.977   9.515   1.666
29555WAT      O88906   7.088   1.761   0.995
29555WAT     H188907   7.180   1.798   0.984
29555WAT     H288908   7.047   1.799   1.078
29556WAT      O88909   8.012   5.637   7.412
29556WAT     H188910   7.968   5.550   7.389
29556WAT     H288911   8.111   5.626   7.411
29557WAT      O88912   6.681   2.806   8.741
29557WAT     H188913   6.701   2.789   8.838
29557WAT     H288914   6.605   2.870   8.733
29558WAT      O88915   4.724   4.100   3.324
29558WAT     H188916   4.711   4.107   3.225
29558WAT     H288917   4.816   4.130   3.348
29559WAT      O88918   3.661   6.094   7.220
29559WAT     H188919   3.694   6.010   7.264
29559WAT     H288920   3.677   6.089   7.122
29560WAT      O88921   8.520   1.904   5.326
29560WAT     H188922   8.568   1.819   5.347
29560WAT     H288923   8.564   1.949   5.248
29561WAT      O88924   0.409   2.551   4.988
29561WAT     H188925   0.315   2.585   4.977
29561WAT     H288926   0.469   2.597   4.922
29562WAT      O88927   2.392   2.157   0.222
29562WAT     H188928   2.479   2.183   0.264
29562WAT     H288929   2.409   2.088   0.152
29563WAT      O88930   6.589   9.419   2.951
29563WAT     H188931   6.507   9.474   2.932
29563WAT     H288932   6.665   9.480   2.974
29564WAT      O88933   0.570   1.351   3.855
29564WAT     H188934   0.560   1.446   3.826
29564WAT     H288935   0.613   1.348   3.945
29565WAT      O88936   3.875   4.514   1.507
29565WAT     H188937   3.810   4.570   1.557
29565WAT     H288938   3.876   4.541   1.410
29566WAT      O88939   4.662   0.519   5.532
29566WAT     H188940   4.657   0.430   5.578
29566WAT     H288941   4.714   0.510   5.447
29567WAT      O88942   6.916   6.900   7.167
29567WAT     H188943   7.002   6.948   7.147
29567WAT     H288944   6.885   6.854   7.084
29568WAT      O88945   0.497   2.487   5.601
29568WAT     H188946   0.480   2.406   5.658
29568WAT     H288947   0.529   2.458   5.511
29569WAT      O88948   9.592   5.615   0.264
29569WAT     H188949   9.668   5.598   0.327
29569WAT     H288950   9.508   5.626   0.317
29570WAT      O88951   3.317   4.897   0.985
29570WAT     H188952   3.372   4.866   1.062
29570WAT     H288953   3.272   4.983   1.009
29571WAT      O88954   0.411   1.819   8.462
29571WAT     H188955   0.389   1.752   8.391
29571WAT     H288956   0.367   1.906   8.442
29572WAT      O88957   1.723   2.180   6.403
29572WAT     H188958   1.636   2.228   6.397
29572WAT     H288959   1.716   2.108   6.473
29573WAT      O88960   3.908   5.289   4.543
29573WAT     H188961   3.839   5.322   4.480
29573WAT     H288962   3.994   5.339   4.528
29574WAT      O88963   7.899   5.309   5.097
29574WAT     H188964   7.829   5.249   5.135
29574WAT     H288965   7.953   5.259   5.029
29575WAT      O88966   7.411   1.309   4.046
29575WAT     H188967   7.465   1.293   4.128
29575WAT     H288968   7.347   1.385   4.062
29576WAT      O88969   4.621   1.498   2.767
29576WAT     H188970   4.634   1.431   2.694
29576WAT     H288971   4.709   1.536   2.793
29577WAT      O88972   9.868   1.760   5.483
29577WAT     H188973   9.951   1.778   5.536
29577WAT     H288974   9.796   1.821   5.513
29578WAT      O88975   8.831   7.331   3.914
29578WAT     H188976   8.798   7.254   3.858
29578WAT     H288977   8.854   7.298   4.005
29579WAT      O88978   7.048   3.202   9.131
29579WAT     H188979   7.055   3.139   9.055
29579WAT     H288980   7.118   3.273   9.122
29580WAT      O88981   5.850   2.806   6.530
29580WAT     H188982   5.912   2.828   6.454
29580WAT     H288983   5.873   2.715   6.566
29581WAT      O88984   8.748   0.068   5.088
29581WAT     H188985   8.774   0.006   5.162
29581WAT     H288986   8.791   0.157   5.102
29582WAT      O88987   1.147   5.261   4.310
29582WAT     H188988   1.081   5.263   4.235
29582WAT     H288989   1.230   5.215   4.279
29583WAT      O88990   0.318   0.630   5.309
29583WAT     H188991   0.408   0.617   5.268
29583WAT     H288992   0.318   0.714   5.363
29584WAT      O88993   9.754   0.448   6.198
29584WAT     H188994   9.775   0.402   6.284
29584WAT     H288995   9.695   0.527   6.216
29585WAT      O88996   1.244   5.005   3.950
29585WAT     H188997   1.175   4.953   4.000
29585WAT     H288998   1.200   5.057   3.876
29586WAT      O88999   3.208   5.328   1.546
29586WAT     H189000   3.258   5.406   1.509
29586WAT     H289001   3.270   5.251   1.559
29587WAT      O89002   7.496   2.497   0.154
29587WAT     H189003   7.548   2.412   0.163
29587WAT     H289004   7.495   2.545   0.242
29588WAT      O89005   6.171   9.072   7.513
29588WAT     H189006   6.139   9.038   7.425
29588WAT     H289007   6.107   9.140   7.548
29589WAT      O89008   4.758   5.577   7.746
29589WAT     H189009   4.858   5.580   7.754
29589WAT     H289010   4.724   5.667   7.717
29590WAT      O89011   4.390   1.165   6.265
29590WAT     H189012   4.484   1.197   6.255
29590WAT     H289013   4.351   1.145   6.175
29591WAT      O89014   6.345   1.116   2.387
29591WAT     H189015   6.357   1.168   2.302
29591WAT     H289016   6.248   1.092   2.397
29592WAT      O89017   6.909   9.621   9.799
29592WAT     H189018   6.982   9.662   9.855
29592WAT     H289019   6.948   9.549   9.741
29593WAT      O89020   4.832   8.418   5.595
29593WAT     H189021   4.894   8.375   5.529
29593WAT     H289022   4.878   8.498   5.635
29594WAT      O89023   3.566   8.133   3.694
29594WAT     H189024   3.567   8.072   3.615
29594WAT     H289025   3.485   8.192   3.690
29595WAT      O89026   7.485   2.510   3.455
29595WAT     H189027   7.401   2.558   3.479
29595WAT     H289028   7.551   2.520   3.529
29596WAT      O89029   9.398   6.432   8.497
29596WAT     H189030   9.354   6.503   8.552
29596WAT     H289031   9.427   6.471   8.409
29597WAT      O89032   7.913   8.714   2.385
29597WAT     H189033   7.990   8.728   2.448
29597WAT     H289034   7.875   8.802   2.360
29598WAT      O89035   2.956   7.781   5.980
29598WAT     H189036   3.020   7.730   6.037
29598WAT     H289037   3.006   7.836   5.913
29599WAT      O89038   3.001   1.720   2.311
29599WAT     H189039   3.002   1.820   2.309
29599WAT     H289040   3.041   1.685   2.227
29600WAT      O89041   8.822   1.728   4.149
29600WAT     H189042   8.876   1.728   4.065
29600WAT     H289043   8.813   1.822   4.183
29601WAT      O89044   1.573   2.092   8.040
29601WAT     H189045   1.634   2.134   8.107
29601WAT     H289046   1.513   2.026   8.087
29602WAT      O89047   3.412   7.074   1.885
29602WAT     H189048   3.335   7.026   1.844
29602WAT     H289049   3.392   7.093   1.981
29603WAT      O89050   9.381   2.906   0.868
29603WAT     H189051   9.472   2.945   0.884
29603WAT     H289052   9.389   2.807   0.859
29604WAT      O89053   3.272   5.885   2.680
29604WAT     H189054   3.271   5.850   2.773
29604WAT     H289055   3.292   5.983   2.681
29605WAT      O89056   3.470   3.402   0.450
29605WAT     H189057   3.401   3.422   0.520
29605WAT     H289058   3.506   3.309   0.463
29606WAT      O89059   0.390   7.327   3.614
29606WAT     H189060   0.328   7.249   3.599
29606WAT     H289061   0.451   7.306   3.691
29607WAT      O89062   0.907   5.426   3.807
29607WAT     H189063   0.937   5.513   3.845
29607WAT     H289064   0.818   5.438   3.763
29608WAT      O89065   3.024   9.066   9.597
29608WAT     H189066   3.032   9.104   9.505
29608WAT     H289067   2.928   9.064   9.624
29609WAT      O89068   8.874   0.179   0.601
29609WAT     H189069   8.896   0.276   0.597
29609WAT     H289070   8.950   0.126   0.564
29610WAT      O89071   9.020   7.147   6.647
29610WAT     H189072   8.942   7.183   6.596
29610WAT     H289073   9.090   7.217   6.655
29611WAT      O89074   0.940   0.485   6.330
29611WAT     H189075   0.953   0.556   6.262
29611WAT     H289076   1.012   0.416   6.320
29612WAT      O89077   6.909   0.283   7.709
29612WAT     H189078   6.815   0.310   7.687
29612WAT     H289079   6.928   0.306   7.804
29613WAT      O89080   6.506   6.315   7.341
29613WAT     H189081   6.436   6.270   7.396
29613WAT     H289082   6.464   6.387   7.285
29614WAT      O89083   5.652   3.078   3.836
29614WAT     H189084   5.582   3.087   3.764
29614WAT     H289085   5.710   2.999   3.816
29615WAT      O89086   3.443   8.348   8.342
29615WAT     H189087   3.396   8.434   8.362
29615WAT     H289088   3.435   8.328   8.245
29616WAT      O89089   9.360   4.518   1.794
29616WAT     H189090   9.293   4.589   1.774
29616WAT     H289091   9.448   4.560   1.818
29617WAT      O89092   8.720   6.598   8.567
29617WAT     H189093   8.637   6.618   8.516
29617WAT     H289094   8.790   6.562   8.505
29618WAT      O89095   0.274   7.321   0.114
29618WAT     H189096   0.260   7.248   0.047
29618WAT     H289097   0.201   7.388   0.105
29619WAT      O89098   1.470   5.476   0.481
29619WAT     H189099   1.560   5.444   0.509
29619WAT     H289100   1.452   5.450   0.386
29620WAT      O89101   5.675   3.730   1.802
29620WAT     H189102   5.641   3.714   1.895
29620WAT     H289103   5.636   3.662   1.740
29621WAT      O89104   6.565   4.429   4.284
29621WAT     H189105   6.566   4.332   4.312
29621WAT     H289106   6.472   4.465   4.294
29622WAT      O89107   7.209   2.578   0.365
29622WAT     H189108   7.126   2.627   0.340
29622WAT     H289109   7.286   2.641   0.366
29623WAT      O89110   6.765   9.294   9.251
29623WAT     H189111   6.858   9.272   9.277
29623WAT     H289112   6.716   9.335   9.328
29624WAT      O89113   7.263   6.762   6.454
29624WAT     H189114   7.323   6.698   6.503
29624WAT     H289115   7.187   6.787   6.514
29625WAT      O89116   1.700   4.791   2.844
29625WAT     H189117   1.763   4.722   2.809
29625WAT     H289118   1.607   4.768   2.815
29626WAT      O89119   9.583   7.645   0.256
29626WAT     H189120   9.574   7.720   0.190
29626WAT     H289121   9.547   7.561   0.216
29627WAT      O89122   4.035   6.859   6.391
29627WAT     H189123   3.945   6.836   6.355
29627WAT     H289124   4.104   6.799   6.349
29628WAT      O89125   3.410   1.472   8.124
29628WAT     H189126   3.394   1.466   8.026
29628WAT     H289127   3.492   1.527   8.141
29629WAT      O89128   4.350   3.124   7.444
29629WAT     H189129   4.373   3.191   7.515
29629WAT     H289130   4.422   3.055   7.438
29630WAT      O89131   6.484   3.041   1.138
29630WAT     H189132   6.476   3.060   1.236
29630WAT     H289133   6.577   3.012   1.117
29631WAT      O89134   4.528   9.642   4.742
29631WAT     H189135   4.500   9.552   4.777
29631WAT     H289136   4.475   9.664   4.661
29632WAT      O89137   7.770   1.026   8.782
29632WAT     H189138   7.723   1.067   8.860
29632WAT     H289139   7.850   0.976   8.814
29633WAT      O89140   6.742   2.335   2.503
29633WAT     H189141   6.800   2.415   2.486
29633WAT     H289142   6.649   2.353   2.473
29634WAT      O89143   0.489   5.533   2.069
29634WAT     H189144   0.523   5.583   2.149
29634WAT     H289145   0.499   5.590   1.988
29635WAT      O89146   7.211   9.817   9.753
29635WAT     H189147   7.258   9.780   9.833
29635WAT     H289148   7.267   9.888   9.712
29636WAT      O89149   3.781   6.010   0.834
29636WAT     H189150   3.767   5.911   0.829
29636WAT     H289151   3.744   6.053   0.751
29637WAT      O89152   3.267   1.836   1.543
29637WAT     H189153   3.270   1.790   1.454
29637WAT     H289154   3.199   1.909   1.539
29638WAT      O89155   5.220   1.569   0.724
29638WAT     H189156   5.246   1.480   0.686
29638WAT     H289157   5.191   1.557   0.819
29639WAT      O89158   1.015   9.454   7.824
29639WAT     H189159   1.089   9.473   7.888
29639WAT     H289160   0.943   9.523   7.836
29640WAT      O89161   7.216   1.341   7.543
29640WAT     H189162   7.291   1.376   7.487
29640WAT     H289163   7.128   1.369   7.504
29641WAT      O89164   1.586   2.030   3.122
29641WAT     H189165   1.532   1.969   3.065
29641WAT     H289166   1.620   2.106   3.067
29642WAT      O89167   2.829   1.936   7.510
29642WAT     H189168   2.826   1.858   7.447
29642WAT     H289169   2.735   1.965   7.530
29643WAT      O89170   8.745   5.102   4.039
29643WAT     H189171   8.697   5.190   4.042
29643WAT     H289172   8.831   5.109   4.089
29644WAT      O89173   2.724   6.437   6.818
29644WAT     H189174   2.646   6.380   6.846
29644WAT     H289175   2.737   6.511   6.885
29645WAT      O89176   6.170   1.503   3.790
29645WAT     H189177   6.212   1.588   3.759
29645WAT     H289178   6.123   1.518   3.877
29646WAT      O89179   7.476   2.744   2.189
29646WAT     H189180   7.417   2.790   2.123
29646WAT     H289181   7.533   2.812   2.236
29647WAT      O89182   3.776   5.032   3.360
29647WAT     H189183   3.751   5.127   3.375
29647WAT     H289184   3.751   5.005   3.267
29648WAT      O89185   6.934   1.994   6.111
29648WAT     H189186   7.010   1.930   6.102
29648WAT     H289187   6.898   1.991   6.204
29649WAT      O89188   1.746   0.196   0.885
29649WAT     H189189   1.807   0.155   0.952
29649WAT     H289190   1.757   0.295   0.885
29650WAT      O89191   8.026   7.082   9.603
29650WAT     H189192   8.034   7.164   9.547
29650WAT     H289193   8.111   7.029   9.597
29651WAT      O89194   6.127   6.520   6.481
29651WAT     H189195   6.168   6.458   6.548
29651WAT     H289196   6.184   6.525   6.400
29652WAT      O89197   1.314   9.298   2.448
29652WAT     H189198   1.267   9.326   2.365
29652WAT     H289199   1.248   9.261   2.513
29653WAT      O89200   3.903   6.141   2.861
29653WAT     H189201   3.993   6.185   2.869
29653WAT     H289202   3.868   6.119   2.952
29654WAT      O89203   6.246   6.131   2.498
29654WAT     H189204   6.344   6.119   2.510
29654WAT     H289205   6.204   6.043   2.477
29655WAT      O89206   2.928   1.922   7.786
29655WAT     H189207   2.839   1.937   7.828
29655WAT     H289208   2.915   1.893   7.691
29656WAT      O89209   3.372   9.207   4.053
29656WAT     H189210   3.382   9.264   3.971
29656WAT     H289211   3.449   9.224   4.115
29657WAT      O89212   3.151   1.488   5.491
29657WAT     H189213   3.109   1.532   5.411
29657WAT     H289214   3.232   1.438   5.461
29658WAT      O89215   8.081   1.581   8.676
29658WAT     H189216   8.040   1.622   8.594
29658WAT     H289217   8.178   1.608   8.682
29659WAT      O89218   4.215   7.139   4.018
29659WAT     H189219   4.301   7.091   3.997
29659WAT     H289220   4.234   7.214   4.082
29660WAT      O89221   5.273   1.830   1.393
29660WAT     H189222   5.277   1.870   1.302
29660WAT     H289223   5.360   1.783   1.413
29661WAT      O89224   6.613   6.661   2.563
29661WAT     H189225   6.537   6.692   2.505
29661WAT     H289226   6.698   6.703   2.531
29662WAT      O89227   7.253   9.156   0.268
29662WAT     H189228   7.183   9.204   0.216
29662WAT     H289229   7.297   9.219   0.332
29663WAT      O89230   9.537   5.090   2.719
29663WAT     H189231   9.488   5.020   2.667
29663WAT     H289232   9.517   5.078   2.816
29664WAT      O89233   1.803   5.831   9.607
29664WAT     H189234   1.707   5.804   9.612
29664WAT     H289235   1.812   5.916   9.556
29665WAT      O89236   9.087   2.609   9.720
29665WAT     H189237   9.098   2.686   9.658
29665WAT     H289238   8.992   2.580   9.721
29666WAT      O89239   5.399   5.323   6.690
29666WAT     H189240   5.359   5.279   6.610
29666WAT     H289241   5.499   5.320   6.683
29667WAT      O89242   6.864   2.074   1.130
29667WAT     H189243   6.905   1.986   1.153
29667WAT     H289244   6.853   2.129   1.213
29668WAT      O89245   7.626   8.207   0.040
29668WAT     H189246   7.685   8.153   0.099
29668WAT     H289247   7.535   8.214   0.080
29669WAT      O89248   4.023   2.833   8.787
29669WAT     H189249   4.092   2.809   8.719
29669WAT     H289250   3.944   2.874   8.742
29670WAT      O89251   2.520   1.490   7.842
29670WAT     H189252   2.596   1.454   7.896
29670WAT     H289253   2.449   1.420   7.834
29671WAT      O89254   5.389   1.742   8.655
29671WAT     H189255   5.455   1.699   8.717
29671WAT     H289256   5.435   1.815   8.604
29672WAT      O89257   1.393   4.171   6.417
29672WAT     H189258   1.389   4.218   6.328
29672WAT     H289259   1.388   4.239   6.490
29673WAT      O89260   3.324   8.601   8.401
29673WAT     H189261   3.257   8.632   8.333
29673WAT     H289262   3.322   8.662   8.480
29674WAT      O89263   4.026   4.090   2.873
29674WAT     H189264   4.063   4.143   2.796
29674WAT     H289265   4.024   3.993   2.848
29675WAT      O89266   3.305   2.968   9.673
29675WAT     H189267   3.253   3.053   9.683
29675WAT     H289268   3.296   2.914   9.756
29676WAT      O89269   8.507   4.409   6.822
29676WAT     H189270   8.502   4.319   6.778
29676WAT     H289271   8.481   4.400   6.918
29677WAT      O89272   7.348   8.041   7.601
29677WAT     H189273   7.434   8.024   7.552
29677WAT     H289274   7.272   8.039   7.536
29678WAT      O89275   9.393   8.170   1.010
29678WAT     H189276   9.402   8.117   1.095
29678WAT     H289277   9.343   8.254   1.028
29679WAT      O89278   6.049   0.120   0.162
29679WAT     H189279   6.091   0.046   0.215
29679WAT     H289280   5.954   0.098   0.144
29680WAT      O89281   5.992   2.626   3.697
29680WAT     H189282   6.041   2.660   3.778
29680WAT     H289283   6.055   2.624   3.620
29681WAT      O89284   8.772   1.215   7.844
29681WAT     H189285   8.721   1.294   7.877
29681WAT     H289286   8.779   1.219   7.744
29682WAT      O89287   0.542   1.323   7.310
29682WAT     H189288   0.549   1.346   7.213
29682WAT     H289289   0.616   1.367   7.360
29683WAT      O89290   4.805   1.101   1.318
29683WAT     H189291   4.797   1.012   1.272
29683WAT     H289292   4.743   1.104   1.396
29684WAT      O89293   6.007   7.686   1.582
29684WAT     H189294   5.947   7.750   1.536
29684WAT     H289295   5.996   7.695   1.681
29685WAT      O89296   2.304   4.565   3.201
29685WAT     H189297   2.385   4.623   3.190
29685WAT     H289298   2.238   4.609   3.261
29686WAT      O89299   4.347   4.213   5.329
29686WAT     H189300   4.345   4.216   5.429
29686WAT     H289301   4.293   4.289   5.292
29687WAT      O89302   8.288   4.808   5.151
29687WAT     H189303   8.210   4.829   5.211
29687WAT     H289304   8.338   4.892   5.132
29688WAT      O89305   6.399   3.908   1.162
29688WAT     H189306   6.435   3.934   1.073
29688WAT     H289307   6.355   3.819   1.156
29689WAT      O89308   7.004   9.057   3.812
29689WAT     H189309   7.008   9.088   3.908
29689WAT     H289310   7.091   9.014   3.788
29690WAT      O89311   5.301   8.118   3.989
29690WAT     H189312   5.215   8.079   4.021
29690WAT     H289313   5.374   8.050   3.999
29691WAT      O89314   2.387   9.133   9.748
29691WAT     H189315   2.472   9.137   9.695
29691WAT     H289316   2.392   9.055   9.812
29692WAT      O89317   4.108   6.093   9.238
29692WAT     H189318   4.049   6.174   9.236
29692WAT     H289319   4.110   6.055   9.330
29693WAT      O89320   2.450   1.767   6.497
29693WAT     H189321   2.542   1.801   6.477
29693WAT     H289322   2.449   1.727   6.589
29694WAT      O89323   0.065   9.047   8.751
29694WAT     H189324   0.121   8.968   8.772
29694WAT     H289325   0.066   9.064   8.652
29695WAT      O89326   4.688   5.992   2.200
29695WAT     H189327   4.659   5.935   2.123
29695WAT     H289328   4.718   6.081   2.167
29696WAT      O89329   2.904   8.367   0.850
29696WAT     H189330   2.969   8.440   0.866
29696WAT     H289331   2.811   8.403   0.859
29697WAT      O89332   1.129   0.211   3.017
29697WAT     H189333   1.219   0.193   3.056
29697WAT     H289334   1.090   0.293   3.059
29698WAT      O89335   0.534   9.615   8.334
29698WAT     H189336   0.476   9.535   8.346
29698WAT     H289337   0.479   9.698   8.342
29699WAT      O89338   0.340   6.929   5.677
29699WAT     H189339   0.301   6.927   5.585
29699WAT     H289340   0.365   6.836   5.705
29700WAT      O89341   4.546   3.520   6.246
29700WAT     H189342   4.596   3.571   6.176
29700WAT     H289343   4.510   3.584   6.314
29701WAT      O89344   7.576   5.763   6.856
29701WAT     H189345   7.650   5.704   6.826
29701WAT     H289346   7.598   5.858   6.833
29702WAT      O89347   5.610   4.854   0.066
29702WAT     H189348   5.620   4.759   0.035
29702WAT     H289349   5.532   4.896   0.020
29703WAT      O89350   7.986   7.638   3.160
29703WAT     H189351   8.020   7.561   3.214
29703WAT     H289352   8.045   7.651   3.080
29704WAT      O89353   4.440   9.425   2.094
29704WAT     H189354   4.409   9.340   2.052
29704WAT     H289355   4.362   9.471   2.137
29705WAT      O89356   8.492   5.945   0.481
29705WAT     H189357   8.456   5.881   0.413
29705WAT     H289358   8.480   6.039   0.447
29706WAT      O89359   3.485   9.578   9.601
29706WAT     H189360   3.537   9.654   9.561
29706WAT     H289361   3.543   9.530   9.667
29707WAT      O89362   3.894   1.813   8.648
29707WAT     H189363   3.987   1.790   8.676
29707WAT     H289364   3.891   1.826   8.548
29708WAT      O89365   9.054   3.607   0.406
29708WAT     H189366   8.973   3.599   0.465
29708WAT     H289367   9.135   3.581   0.458
29709WAT      O89368   0.609   3.523   3.697
29709WAT     H189369   0.705   3.548   3.712
29709WAT     H289370   0.574   3.474   3.777
29710WAT      O89371   1.165   8.026   4.908
29710WAT     H189372   1.109   8.108   4.920
29710WAT     H289373   1.223   8.036   4.828
29711WAT      O89374   1.937   6.894   3.908
29711WAT     H189375   2.023   6.887   3.857
29711WAT     H289376   1.950   6.950   3.989
29712WAT      O89377   6.957   5.428   8.075
29712WAT     H189378   6.890   5.370   8.119
29712WAT     H289379   6.946   5.522   8.108
29713WAT      O89380   9.249   5.982   5.243
29713WAT     H189381   9.243   5.986   5.143
29713WAT     H289382   9.226   6.070   5.282
29714WAT      O89383   0.236   2.123   7.429
29714WAT     H189384   0.249   2.082   7.339
29714WAT     H289385   0.251   2.054   7.500
29715WAT      O89386   3.534   7.436   1.042
29715WAT     H189387   3.566   7.431   1.137
29715WAT     H289388   3.527   7.344   1.003
29716WAT      O89389   8.930   2.177   7.810
29716WAT     H189390   8.899   2.259   7.761
29716WAT     H289391   8.857   2.144   7.870
29717WAT      O89392   3.266   7.370   2.042
29717WAT     H189393   3.280   7.444   2.108
29717WAT     H289394   3.276   7.282   2.089
29718WAT      O89395   3.792   1.991   9.085
29718WAT     H189396   3.820   1.913   9.142
29718WAT     H289397   3.693   1.985   9.068
29719WAT      O89398   6.257   3.011   9.047
29719WAT     H189399   6.173   3.055   9.014
29719WAT     H289400   6.260   3.017   9.147
29720WAT      O89401   0.859   9.036   8.737
29720WAT     H189402   0.822   9.072   8.823
29720WAT     H289403   0.828   8.942   8.724
29721WAT      O89404   5.417   2.084   6.544
29721WAT     H189405   5.433   2.165   6.488
29721WAT     H289406   5.361   2.018   6.492
29722WAT      O89407   8.852   4.438   4.006
29722WAT     H189408   8.903   4.524   4.012
29722WAT     H289409   8.776   4.439   4.071
29723WAT      O89410   9.677   1.942   2.206
29723WAT     H189411   9.652   1.854   2.165
29723WAT     H289412   9.617   2.013   2.170
29724WAT      O89413   0.759   5.293   1.543
29724WAT     H189414   0.673   5.264   1.586
29724WAT     H289415   0.791   5.378   1.585
29725WAT      O89416   0.983   5.508   6.937
29725WAT     H189417   0.948   5.600   6.953
29725WAT     H289418   1.080   5.504   6.960
29726WAT      O89419   1.167   8.306   3.285
29726WAT     H189420   1.158   8.275   3.379
29726WAT     H289421   1.222   8.241   3.233
29727WAT      O89422   1.627   4.969   5.156
29727WAT     H189423   1.573   5.052   5.166
29727WAT     H289424   1.723   4.992   5.145
29728WAT      O89425   0.834   1.469   0.342
29728WAT     H189426   0.876   1.400   0.401
29728WAT     H289427   0.759   1.427   0.291
29729WAT      O89428   6.689   9.264   6.315
29729WAT     H189429   6.604   9.273   6.367
29729WAT     H289430   6.751   9.339   6.340
29730WAT      O89431   2.223   1.114   2.296
29730WAT     H189432   2.309   1.151   2.262
29730WAT     H289433   2.175   1.067   2.222
29731WAT      O89434   1.224   5.553   2.467
29731WAT     H189435   1.129   5.523   2.469
29731WAT     H289436   1.274   5.501   2.397
29732WAT      O89437   3.716   5.142   5.856
29732WAT     H189438   3.664   5.226   5.869
29732WAT     H289439   3.712   5.088   5.940
29733WAT      O89440   5.294   1.242   0.094
29733WAT     H189441   5.293   1.212  -0.001
29733WAT     H289442   5.258   1.335   0.100
29734WAT      O89443   5.222   7.405   6.059
29734WAT     H189444   5.319   7.399   6.039
29734WAT     H289445   5.205   7.372   6.152
29735WAT      O89446   9.131   0.201   0.229
29735WAT     H189447   9.062   0.273   0.224
29735WAT     H289448   9.121   0.151   0.315
29736WAT      O89449   1.065   0.896   4.679
29736WAT     H189450   1.139   0.843   4.637
29736WAT     H289451   0.979   0.872   4.635
29737WAT      O89452   8.452   3.389   5.400
29737WAT     H189453   8.488   3.297   5.384
29737WAT     H289454   8.368   3.383   5.453
29738WAT      O89455   2.608   5.691   5.074
29738WAT     H189456   2.676   5.693   5.147
29738WAT     H289457   2.571   5.599   5.065
29739WAT      O89458   3.757   0.197   7.149
29739WAT     H189459   3.750   0.244   7.061
29739WAT     H289460   3.836   0.136   7.148
29740WAT      O89461   8.310   1.616   9.837
29740WAT     H189462   8.310   1.711   9.867
29740WAT     H289463   8.313   1.555   9.917
29741WAT      O89464   5.722   0.732   1.444
29741WAT     H189465   5.632   0.715   1.404
29741WAT     H289466   5.761   0.645   1.476
29742WAT      O89467   0.083   8.453   3.960
29742WAT     H189468   0.141   8.373   3.948
29742WAT     H289469   0.127   8.517   4.023
29743WAT      O89470   5.324   0.226   6.975
29743WAT     H189471   5.352   0.205   7.069
29743WAT     H289472   5.355   0.153   6.914
29744WAT      O89473   7.004   6.879   3.967
29744WAT     H189474   7.083   6.860   3.908
29744WAT     H289475   7.012   6.825   4.050
29745WAT      O89476   3.685   3.559   1.825
29745WAT     H189477   3.689   3.636   1.762
29745WAT     H289478   3.777   3.521   1.836
29746WAT      O89479   5.835   9.246   2.096
29746WAT     H189480   5.842   9.203   2.006
29746WAT     H289481   5.746   9.289   2.106
29747WAT      O89482   3.707   5.760   3.730
29747WAT     H189483   3.679   5.776   3.636
29747WAT     H289484   3.659   5.680   3.766
29748WAT      O89485   3.967   2.827   8.332
29748WAT     H189486   4.046   2.808   8.275
29748WAT     H289487   3.962   2.758   8.405
29749WAT      O89488   0.623   5.887   6.550
29749WAT     H189489   0.688   5.861   6.621
29749WAT     H289490   0.670   5.937   6.478
29750WAT      O89491   1.451   5.011   7.577
29750WAT     H189492   1.545   5.035   7.601
29750WAT     H289493   1.389   5.048   7.646
29751WAT      O89494   6.401   5.550   0.743
29751WAT     H189495   6.405   5.627   0.679
29751WAT     H289496   6.326   5.563   0.807
29752WAT      O89497   8.786   6.617   7.204
29752WAT     H189498   8.774   6.682   7.129
29752WAT     H289499   8.871   6.566   7.191
29753WAT      O89500   6.249   7.540   7.284
29753WAT     H189501   6.298   7.590   7.212
29753WAT     H289502   6.185   7.602   7.330
29754WAT      O89503   1.153   8.545   8.123
29754WAT     H189504   1.074   8.499   8.084
29754WAT     H289505   1.135   8.643   8.128
29755WAT      O89506   9.066   7.582   6.495
29755WAT     H189507   9.096   7.486   6.497
29755WAT     H289508   8.994   7.593   6.427
29756WAT      O89509   8.088   4.367   1.195
29756WAT     H189510   8.165   4.404   1.247
29756WAT     H289511   8.110   4.367   1.097
29757WAT      O89512   7.851   4.378   6.256
29757WAT     H189513   7.854   4.449   6.325
29757WAT     H289514   7.856   4.419   6.165
29758WAT      O89515   7.952   5.726   5.780
29758WAT     H189516   8.030   5.782   5.809
29758WAT     H289517   7.977   5.629   5.786
29759WAT      O89518   6.704   2.736   2.416
29759WAT     H189519   6.672   2.754   2.323
29759WAT     H289520   6.629   2.696   2.470
29760WAT      O89521   6.969   8.537   9.750
29760WAT     H189522   6.917   8.458   9.782
29760WAT     H289523   6.997   8.592   9.829
29761WAT      O89524   3.309   9.680   2.275
29761WAT     H189525   3.285   9.620   2.352
29761WAT     H289526   3.377   9.635   2.218
29762WAT      O89527   1.217   4.505   5.232
29762WAT     H189528   1.151   4.433   5.211
29762WAT     H289529   1.299   4.493   5.177
29763WAT      O89530   9.100   8.063   4.371
29763WAT     H189531   9.004   8.091   4.366
29763WAT     H289532   9.113   8.005   4.451
29764WAT      O89533   3.996   1.525   8.092
29764WAT     H189534   3.940   1.510   8.011
29764WAT     H289535   4.076   1.465   8.088
29765WAT      O89536   4.268   2.244   0.743
29765WAT     H189537   4.282   2.219   0.839
29765WAT     H289538   4.171   2.263   0.728
29766WAT      O89539   0.360   4.750   0.589
29766WAT     H189540   0.434   4.705   0.639
29766WAT     H289541   0.304   4.803   0.652
29767WAT      O89542   6.904   7.085   4.654
29767WAT     H189543   6.887   6.997   4.610
29767WAT     H289544   6.912   7.072   4.753
29768WAT      O89545   6.020   9.684   4.049
29768WAT     H189546   5.964   9.607   4.019
29768WAT     H289547   6.075   9.718   3.972
29769WAT      O89548   3.021   5.756   4.683
29769WAT     H189549   2.942   5.780   4.626
29769WAT     H289550   3.022   5.814   4.764
29770WAT      O89551   6.946   2.095   4.363
29770WAT     H189552   6.983   2.002   4.357
29770WAT     H289553   6.861   2.100   4.310
29771WAT      O89554   2.123   3.508   3.283
29771WAT     H189555   2.219   3.505   3.257
29771WAT     H289556   2.113   3.564   3.365
29772WAT      O89557   4.122   9.167   3.525
29772WAT     H189558   4.169   9.228   3.588
29772WAT     H289559   4.031   9.146   3.559
29773WAT      O89560   1.844   0.702   4.488
29773WAT     H189561   1.939   0.684   4.513
29773WAT     H289562   1.834   0.696   4.389
29774WAT      O89563   3.567   9.472   5.690
29774WAT     H189564   3.501   9.423   5.633
29774WAT     H289565   3.550   9.570   5.683
29775WAT      O89566   3.164   7.867   4.185
29775WAT     H189567   3.260   7.867   4.155
29775WAT     H289568   3.141   7.957   4.222
29776WAT      O89569   3.123   4.904   2.490
29776WAT     H189570   3.155   4.933   2.400
29776WAT     H289571   3.062   4.974   2.528
29777WAT      O89572   0.623   6.660   2.652
29777WAT     H189573   0.680   6.730   2.609
29777WAT     H289574   0.578   6.606   2.581
29778WAT      O89575   4.934   5.211   1.773
29778WAT     H189576   4.973   5.258   1.852
29778WAT     H289577   4.898   5.122   1.801
29779WAT      O89578   2.669   2.349   2.921
29779WAT     H189579   2.718   2.398   2.993
29779WAT     H289580   2.570   2.361   2.933
29780WAT      O89581   7.025   0.881   4.746
29780WAT     H189582   6.972   0.852   4.667
29780WAT     H289583   7.031   0.806   4.812
29781WAT      O89584   9.860   4.478   9.468
29781WAT     H189585   9.877   4.440   9.559
29781WAT     H289586   9.764   4.505   9.460
29782WAT      O89587   1.837   2.236   2.125
29782WAT     H189588   1.816   2.322   2.172
29782WAT     H289589   1.751   2.189   2.103
29783WAT      O89590   7.893   6.120   0.650
29783WAT     H189591   7.900   6.169   0.737
29783WAT     H289592   7.925   6.026   0.661
29784WAT      O89593   5.574   4.198   1.655
29784WAT     H189594   5.489   4.204   1.602
29784WAT     H289595   5.557   4.229   1.749
29785WAT      O89596   2.288   5.901   8.839
29785WAT     H189597   2.213   5.837   8.857
29785WAT     H289598   2.310   5.900   8.742
29786WAT      O89599   8.639   8.671   2.268
29786WAT     H189600   8.573   8.746   2.277
29786WAT     H289601   8.696   8.687   2.187
29787WAT      O89602   1.778   2.713   6.354
29787WAT     H189603   1.874   2.704   6.381
29787WAT     H289604   1.723   2.643   6.400
29788WAT      O89605   7.407   7.410   2.177
29788WAT     H189606   7.315   7.374   2.160
29788WAT     H289607   7.453   7.424   2.090
29789WAT      O89608   2.553   0.893   7.457
29789WAT     H189609   2.481   0.833   7.491
29789WAT     H289610   2.639   0.842   7.451
29790WAT      O89611   2.023   2.070   0.061
29790WAT     H189612   2.074   2.155   0.046
29790WAT     H289613   2.081   1.992   0.037
29791WAT      O89614   3.942   1.479   7.453
29791WAT     H189615   3.997   1.547   7.501
29791WAT     H289616   3.972   1.474   7.357
29792WAT      O89617   0.696   1.383   4.593
29792WAT     H189618   0.786   1.406   4.557
29792WAT     H289619   0.637   1.351   4.519
29793WAT      O89620   5.319   1.238   5.117
29793WAT     H189621   5.281   1.147   5.100
29793WAT     H289622   5.250   1.293   5.165
29794WAT      O89623   6.288   0.044   7.641
29794WAT     H189624   6.344  -0.001   7.571
29794WAT     H289625   6.194   0.050   7.609
29795WAT      O89626   5.448   5.488   9.795
29795WAT     H189627   5.488   5.397   9.803
29795WAT     H289628   5.438   5.528   9.887
29796WAT      O89629   6.506   2.539   1.761
29796WAT     H189630   6.470   2.445   1.764
29796WAT     H289631   6.461   2.589   1.687
29797WAT      O89632   7.690   7.488   1.240
29797WAT     H189633   7.786   7.464   1.254
29797WAT     H289634   7.640   7.476   1.326
29798WAT      O89635   3.863   8.323   2.807
29798WAT     H189636   3.943   8.330   2.867
29798WAT     H289637   3.790   8.275   2.854
29799WAT      O89638   0.337   8.681   8.238
29799WAT     H189639   0.299   8.726   8.319
29799WAT     H289640   0.371   8.591   8.263
29800WAT      O89641   4.676   4.286   2.532
29800WAT     H189642   4.584   4.247   2.529
29800WAT     H289643   4.671   4.384   2.551
29801WAT      O89644   1.879   2.145   0.933
29801WAT     H189645   1.912   2.236   0.954
29801WAT     H289646   1.874   2.091   1.017
29802WAT      O89647   9.354   5.805   1.302
29802WAT     H189648   9.451   5.829   1.292
29802WAT     H289649   9.302   5.845   1.227
29803WAT      O89650   0.433   2.031   6.775
29803WAT     H189651   0.441   2.119   6.822
29803WAT     H289652   0.404   2.047   6.680
29804WAT      O89653   2.607   8.878   7.996
29804WAT     H189654   2.679   8.945   8.015
29804WAT     H289655   2.628   8.828   7.912
29805WAT      O89656   0.753   2.789   3.865
29805WAT     H189657   0.710   2.782   3.775
29805WAT     H289658   0.688   2.761   3.935
29806WAT      O89659   3.318   9.212   5.989
29806WAT     H189660   3.309   9.279   5.915
29806WAT     H289661   3.348   9.258   6.072
29807WAT      O89662   3.205   6.529   4.418
29807WAT     H189663   3.122   6.562   4.373
29807WAT     H289664   3.284   6.545   4.359
29808WAT      O89665   8.120   5.758   1.239
29808WAT     H189666   8.187   5.830   1.257
29808WAT     H289667   8.029   5.790   1.264
29809WAT      O89668   6.797   2.456   9.271
29809WAT     H189669   6.883   2.418   9.303
29809WAT     H289670   6.794   2.554   9.293
29810WAT      O89671   7.813   1.543   1.007
29810WAT     H189672   7.778   1.534   0.914
29810WAT     H289673   7.912   1.551   1.005
29811WAT      O89674   8.574   6.188   6.237
29811WAT     H189675   8.630   6.125   6.183
29811WAT     H289676   8.554   6.147   6.325
29812WAT      O89677   8.373   9.637   7.428
29812WAT     H189678   8.317   9.578   7.486
29812WAT     H289679   8.340   9.732   7.435
29813WAT      O89680   6.280   0.056   3.541
29813WAT     H189681   6.213   0.043   3.468
29813WAT     H289682   6.234   0.070   3.628
29814WAT      O89683   4.619   8.262   1.906
29814WAT     H189684   4.552   8.245   1.978
29814WAT     H289685   4.642   8.175   1.861
29815WAT      O89686   8.513   3.267   3.806
29815WAT     H189687   8.543   3.326   3.731
29815WAT     H289688   8.474   3.323   3.879
29816WAT      O89689   7.513   9.197   5.934
29816WAT     H189690   7.481   9.220   5.842
29816WAT     H289691   7.472   9.109   5.962
29817WAT      O89692   9.671   4.514   0.800
29817WAT     H189693   9.588   4.459   0.791
29817WAT     H289694   9.739   4.463   0.853
29818WAT      O89695   2.746   8.939   0.060
29818WAT     H189696   2.845   8.932   0.073
29818WAT     H289697   2.708   9.004   0.125
29819WAT      O89698   3.866   0.500   1.165
29819WAT     H189699   3.866   0.572   1.096
29819WAT     H289700   3.959   0.486   1.199
29820WAT      O89701   2.421   1.228   5.132
29820WAT     H189702   2.430   1.324   5.108
29820WAT     H289703   2.329   1.211   5.170
29821WAT      O89704   1.619   7.684   7.626
29821WAT     H189705   1.560   7.720   7.698
29821WAT     H289706   1.677   7.611   7.663
29822WAT      O89707   6.609   3.974   6.164
29822WAT     H189708   6.535   3.908   6.172
29822WAT     H289709   6.657   3.961   6.077
29823WAT      O89710   5.150   1.335   7.231
29823WAT     H189711   5.174   1.336   7.134
29823WAT     H289712   5.193   1.412   7.277
29824WAT      O89713   4.096   4.099   8.355
29824WAT     H189714   4.131   4.158   8.428
29824WAT     H289715   4.095   4.004   8.385
29825WAT      O89716   3.852   8.830   6.450
29825WAT     H189717   3.877   8.789   6.538
29825WAT     H289718   3.800   8.913   6.466
29826WAT      O89719   3.907   8.432   1.464
29826WAT     H189720   3.894   8.531   1.464
29826WAT     H289721   3.946   8.403   1.551
29827WAT      O89722   0.225   0.655   2.252
29827WAT     H189723   0.318   0.645   2.216
29827WAT     H289724   0.170   0.708   2.188
29828WAT      O89725   3.826   6.538   2.385
29828WAT     H189726   3.856   6.568   2.294
29828WAT     H289727   3.872   6.452   2.408
29829WAT      O89728   0.904   1.692   1.917
29829WAT     H189729   0.892   1.623   1.989
29829WAT     H289730   0.889   1.783   1.955
29830WAT      O89731   3.622   5.364   6.997
29830WAT     H189732   3.706   5.402   7.034
29830WAT     H289733   3.635   5.342   6.900
29831WAT      O89734   1.664   4.027   9.728
29831WAT     H189735   1.590   4.047   9.792
29831WAT     H289736   1.647   3.940   9.682
29832WAT      O89737   2.888   1.790   5.354
29832WAT     H189738   2.911   1.729   5.279
29832WAT     H289739   2.867   1.881   5.319
29833WAT      O89740   6.633   4.939   2.972
29833WAT     H189741   6.617   5.031   3.007
29833WAT     H289742   6.704   4.894   3.026
29834WAT      O89743   2.481   1.828   0.355
29834WAT     H189744   2.460   1.732   0.333
29834WAT     H289745   2.396   1.879   0.367
29835WAT      O89746   7.879   6.174   2.061
29835WAT     H189747   7.972   6.142   2.081
29835WAT     H289748   7.813   6.104   2.087
29836WAT      O89749   6.843   2.317   7.844
29836WAT     H189750   6.846   2.363   7.755
29836WAT     H289751   6.791   2.232   7.836
29837WAT      O89752   0.477   9.508   4.349
29837WAT     H189753   0.572   9.498   4.319
29837WAT     H289754   0.420   9.444   4.298
29838WAT      O89755   5.042   4.332   9.733
29838WAT     H189756   5.020   4.369   9.823
29838WAT     H289757   4.959   4.300   9.688
29839WAT      O89758   1.321   4.108   8.904
29839WAT     H189759   1.302   4.191   8.957
29839WAT     H289760   1.300   4.125   8.808
29840WAT      O89761   9.342   5.707   6.466
29840WAT     H189762   9.381   5.791   6.429
29840WAT     H289763   9.257   5.686   6.417
29841WAT      O89764   4.241   4.101   7.384
29841WAT     H189765   4.150   4.096   7.342
29841WAT     H289766   4.232   4.099   7.483
29842WAT      O89767   5.336   8.036   1.415
29842WAT     H189768   5.378   7.983   1.489
29842WAT     H289769   5.364   7.998   1.327
29843WAT      O89770   5.538   0.227   7.214
29843WAT     H189771   5.599   0.180   7.279
29843WAT     H289772   5.575   0.218   7.121
29844WAT      O89773   4.392   0.362   5.647
29844WAT     H189774   4.299   0.342   5.615
29844WAT     H289775   4.388   0.394   5.742
29845WAT      O89776   9.348   1.947   8.749
29845WAT     H189777   9.333   1.870   8.688
29845WAT     H289778   9.389   1.915   8.834
29846WAT      O89779   0.622   3.082   3.766
29846WAT     H189780   0.602   3.102   3.862
29846WAT     H289781   0.540   3.050   3.720
29847WAT      O89782   0.701   5.852   4.281
29847WAT     H189783   0.683   5.778   4.346
29847WAT     H289784   0.752   5.925   4.326
29848WAT      O89785   2.197   3.452   8.520
29848WAT     H189786   2.202   3.355   8.497
29848WAT     H289787   2.170   3.462   8.616
29849WAT      O89788   8.003   5.162   0.410
29849WAT     H189789   8.036   5.256   0.417
29849WAT     H289790   7.927   5.148   0.474
29850WAT      O89791   5.286   1.950   8.792
29850WAT     H189792   5.295   1.856   8.759
29850WAT     H289793   5.295   1.952   8.892
29851WAT      O89794   3.880   6.998   4.825
29851WAT     H189795   3.935   6.914   4.833
29851WAT     H289796   3.861   7.033   4.917
29852WAT      O89797   0.666   7.209   9.367
29852WAT     H189798   0.691   7.305   9.355
29852WAT     H289799   0.569   7.202   9.391
29853WAT      O89800   7.095   8.116   2.312
29853WAT     H189801   7.182   8.098   2.359
29853WAT     H289802   7.060   8.205   2.340
29854WAT      O89803   8.093   1.772   3.661
29854WAT     H189804   8.019   1.723   3.616
29854WAT     H289805   8.076   1.776   3.760
29855WAT      O89806   8.420   7.716   8.996
29855WAT     H189807   8.442   7.628   8.955
29855WAT     H289808   8.333   7.709   9.045
29856WAT      O89809   5.522   7.684   3.620
29856WAT     H189810   5.450   7.615   3.613
29856WAT     H289811   5.517   7.746   3.542
29857WAT      O89812   2.648   4.652   5.156
29857WAT     H189813   2.618   4.651   5.060
29857WAT     H289814   2.570   4.633   5.215
29858WAT      O89815   9.342   2.562   7.584
29858WAT     H189816   9.254   2.574   7.630
29858WAT     H289817   9.332   2.583   7.487
29859WAT      O89818   3.289   1.064   4.151
29859WAT     H189819   3.333   1.136   4.204
29859WAT     H289820   3.359   1.000   4.116
29860WAT      O89821   1.263   1.999   0.175
29860WAT     H189822   1.243   1.906   0.146
29860WAT     H289823   1.343   2.033   0.126
29861WAT      O89824   6.640   9.085   6.750
29861WAT     H189825   6.560   9.120   6.798
29861WAT     H289826   6.688   9.161   6.706
29862WAT      O89827   3.079   5.146   0.785
29862WAT     H189828   2.988   5.164   0.823
29862WAT     H289829   3.090   5.048   0.768
29863WAT      O89830   9.710   3.576   3.440
29863WAT     H189831   9.637   3.518   3.475
29863WAT     H289832   9.671   3.660   3.401
29864WAT      O89833   1.255   6.967   3.201
29864WAT     H189834   1.353   6.986   3.200
29864WAT     H289835   1.238   6.876   3.240
29865WAT      O89836   4.457   9.362   1.734
29865WAT     H189837   4.362   9.386   1.756
29865WAT     H289838   4.464   9.335   1.638
29866WAT      O89839   6.595   7.095   4.269
29866WAT     H189840   6.505   7.103   4.226
29866WAT     H289841   6.638   7.185   4.273
29867WAT      O89842   2.950   6.196   8.419
29867WAT     H189843   2.952   6.273   8.354
29867WAT     H289844   3.015   6.214   8.493
29868WAT      O89845   7.414   7.920   5.735
29868WAT     H189846   7.320   7.897   5.760
29868WAT     H289847   7.478   7.874   5.797
29869WAT      O89848   5.481   0.828   2.839
29869WAT     H189849   5.515   0.911   2.885
29869WAT     H289850   5.492   0.839   2.740
29870WAT      O89851   7.288   8.430   1.034
29870WAT     H189852   7.229   8.484   0.975
29870WAT     H289853   7.285   8.334   1.005
29871WAT      O89854   1.686   5.918   4.972
29871WAT     H189855   1.628   5.837   4.984
29871WAT     H289856   1.731   5.939   5.059
29872WAT      O89857   2.728   1.291   0.139
29872WAT     H189858   2.695   1.204   0.103
29872WAT     H289859   2.817   1.312   0.098
29873WAT      O89860   7.616   6.658   8.210
29873WAT     H189861   7.569   6.577   8.177
29873WAT     H289862   7.613   6.729   8.140
29874WAT      O89863   1.623   0.938   5.700
29874WAT     H189864   1.718   0.963   5.715
29874WAT     H289865   1.587   0.988   5.621
29875WAT      O89866   1.474   3.326   3.794
29875WAT     H189867   1.467   3.237   3.840
29875WAT     H289868   1.525   3.315   3.709
29876WAT      O89869   7.536   7.412   7.396
29876WAT     H189870   7.444   7.432   7.431
29876WAT     H289871   7.548   7.313   7.389
29877WAT      O89872   5.514   0.450   9.154
29877WAT     H189873   5.430   0.442   9.100
29877WAT     H289874   5.493   0.431   9.250
29878WAT      O89875   4.144   6.807   6.907
29878WAT     H189876   4.127   6.736   6.976
29878WAT     H289877   4.195   6.768   6.830
29879WAT      O89878   1.154   5.386   1.238
29879WAT     H189879   1.106   5.346   1.316
29879WAT     H289880   1.095   5.453   1.193
29880WAT      O89881   7.606   7.611   9.482
29880WAT     H189882   7.660   7.689   9.450
29880WAT     H289883   7.528   7.643   9.536
29881WAT      O89884   8.658   4.276   8.144
29881WAT     H189885   8.572   4.241   8.179
29881WAT     H289886   8.644   4.316   8.053
29882WAT      O89887   2.303   0.309   6.852
29882WAT     H189888   2.225   0.368   6.830
29882WAT     H289889   2.282   0.253   6.931
29883WAT      O89890   0.734   4.427   0.720
29883WAT     H189891   0.809   4.472   0.769
29883WAT     H289892   0.724   4.333   0.753
29884WAT      O89893   6.786   2.024   5.665
29884WAT     H189894   6.728   1.945   5.646
29884WAT     H289895   6.756   2.102   5.610
29885WAT      O89896   5.519   0.371   9.405
29885WAT     H189897   5.554   0.288   9.447
29885WAT     H289898   5.544   0.450   9.460
29886WAT      O89899   1.841   5.801   2.874
29886WAT     H189900   1.871   5.707   2.890
29886WAT     H289901   1.749   5.801   2.836
29887WAT      O89902   2.767   9.186   0.481
29887WAT     H189903   2.707   9.162   0.557
29887WAT     H289904   2.739   9.136   0.399
29888WAT      O89905   8.901   0.057   7.954
29888WAT     H189906   8.951   0.025   7.873
29888WAT     H289907   8.901   0.157   7.956
29889WAT      O89908   4.959   8.834   4.848
29889WAT     H189909   4.958   8.906   4.918
29889WAT     H289910   5.048   8.787   4.850
29890WAT      O89911   8.266   1.971   0.949
29890WAT     H189912   8.277   2.020   1.036
29890WAT     H289913   8.334   2.002   0.884
29891WAT      O89914   4.675   6.625   9.514
29891WAT     H189915   4.724   6.709   9.493
29891WAT     H289916   4.585   6.627   9.471
29892WAT      O89917   1.437   5.475   8.756
29892WAT     H189918   1.399   5.469   8.848
29892WAT     H289919   1.533   5.449   8.758
29893WAT      O89920   3.053   7.973   0.246
29893WAT     H189921   3.060   7.967   0.147
29893WAT     H289922   3.145   7.984   0.285
29894WAT      O89923   1.739   7.140   9.633
29894WAT     H189924   1.652   7.126   9.585
29894WAT     H289925   1.811   7.161   9.566
29895WAT      O89926   8.514   7.499   0.314
29895WAT     H189927   8.539   7.482   0.219
29895WAT     H289928   8.597   7.519   0.367
29896WAT      O89929   3.913   6.304   2.420
29896WAT     H189930   3.999   6.255   2.434
29896WAT     H289931   3.846   6.242   2.380
29897WAT      O89932   1.139   3.720   8.044
29897WAT     H189933   1.226   3.755   8.078
29897WAT     H289934   1.148   3.623   8.022
29898WAT      O89935   6.515   1.825   6.479
29898WAT     H189936   6.515   1.862   6.386
29898WAT     H289937   6.504   1.726   6.475
29899WAT      O89938   2.309   3.189   3.160
29899WAT     H189939   2.297   3.287   3.149
29899WAT     H289940   2.334   3.168   3.255
29900WAT      O89941   9.718   2.046   6.316
29900WAT     H189942   9.808   2.065   6.278
29900WAT     H289943   9.699   1.948   6.308
29901WAT      O89944   8.433   4.493   9.308
29901WAT     H189945   8.379   4.558   9.254
29901WAT     H289946   8.434   4.404   9.262
29902WAT      O89947   6.191   7.923   7.676
29902WAT     H189948   6.122   7.971   7.731
29902WAT     H289949   6.145   7.861   7.613
29903WAT      O89950   4.497   8.391   7.693
29903WAT     H189951   4.411   8.407   7.643
29903WAT     H289952   4.562   8.463   7.669
29904WAT      O89953   6.827   5.301   9.123
29904WAT     H189954   6.779   5.217   9.148
29904WAT     H289955   6.785   5.379   9.170
29905WAT      O89956   0.725   9.614   5.196
29905WAT     H189957   0.788   9.652   5.127
29905WAT     H289958   0.753   9.645   5.287
29906WAT      O89959   7.733   0.986   9.687
29906WAT     H189960   7.831   1.005   9.693
29906WAT     H289961   7.714   0.895   9.724
29907WAT      O89962   7.281   4.188   1.651
29907WAT     H189963   7.320   4.267   1.699
29907WAT     H289964   7.208   4.148   1.706
29908WAT      O89965   7.326   9.059   1.742
29908WAT     H189966   7.371   9.021   1.823
29908WAT     H289967   7.378   9.138   1.709
29909WAT      O89968   4.028   7.062   1.375
29909WAT     H189969   3.988   7.059   1.284
29909WAT     H289970   3.959   7.095   1.440
29910WAT      O89971   0.318   1.071   9.137
29910WAT     H189972   0.250   1.000   9.118
29910WAT     H289973   0.331   1.128   9.056
29911WAT      O89974   1.112   8.241   3.546
29911WAT     H189975   1.016   8.243   3.576
29911WAT     H289976   1.164   8.310   3.595
29912WAT      O89977   4.785   0.306   7.877
29912WAT     H189978   4.757   0.378   7.942
29912WAT     H289979   4.718   0.301   7.803
29913WAT      O89980   1.010   7.776   6.236
29913WAT     H189981   0.952   7.847   6.196
29913WAT     H289982   1.063   7.815   6.312
29914WAT      O89983   6.269   1.217   2.641
29914WAT     H189984   6.345   1.206   2.576
29914WAT     H289985   6.202   1.281   2.603
29915WAT      O89986   3.035   4.654   9.841
29915WAT     H189987   3.033   4.573   9.900
29915WAT     H289988   3.038   4.625   9.745
29916WAT      O89989   7.378   1.377   0.887
29916WAT     H189990   7.372   1.278   0.872
29916WAT     H289991   7.388   1.395   0.985
29917WAT      O89992   1.410   7.615   4.092
29917WAT     H189993   1.478   7.602   4.021
29917WAT     H289994   1.422   7.545   4.163
29918WAT      O89995   8.549   7.634   7.847
29918WAT     H189996   8.465   7.639   7.901
29918WAT     H289997   8.598   7.721   7.853
29919WAT      O89998   4.261   8.596   9.134
29919WAT     H189999   4.323   8.590   9.055
29919WAT     H290000   4.170   8.565   9.107
29920WAT      O90001   7.833   6.297   6.149
29920WAT     H190002   7.877   6.352   6.078
29920WAT     H290003   7.812   6.206   6.112
29921WAT      O90004   7.324   8.397   4.128
29921WAT     H190005   7.375   8.341   4.063
29921WAT     H290006   7.231   8.411   4.094
29922WAT      O90007   0.361   1.942   2.739
29922WAT     H190008   0.310   2.016   2.782
29922WAT     H290009   0.423   1.981   2.671
29923WAT      O90010   2.276   3.899   9.546
29923WAT     H190011   2.196   3.879   9.604
29923WAT     H290012   2.351   3.931   9.604
29924WAT      O90013   4.377   3.617   2.361
29924WAT     H190014   4.338   3.709   2.365
29924WAT     H290015   4.304   3.549   2.373
29925WAT      O90016   0.672   7.288   3.065
29925WAT     H190017   0.665   7.272   3.164
29925WAT     H290018   0.762   7.325   3.043
29926WAT      O90019   9.141   4.705   0.263
29926WAT     H190020   9.171   4.714   0.168
29926WAT     H290021   9.132   4.795   0.304
29927WAT      O90022   5.057   1.689   1.167
29927WAT     H190023   5.139   1.718   1.217
29927WAT     H290024   4.979   1.743   1.198
29928WAT      O90025   0.440   7.163   9.115
29928WAT     H190026   0.361   7.152   9.055
29928WAT     H290027   0.442   7.257   9.150
29929WAT      O90028   5.780   5.553   5.067
29929WAT     H190029   5.792   5.639   5.117
29929WAT     H290030   5.856   5.492   5.089
29930WAT      O90031   2.353   4.988   3.122
29930WAT     H190032   2.361   5.083   3.093
29930WAT     H290033   2.419   4.970   3.195
29931WAT      O90034   6.629   3.322   2.368
29931WAT     H190035   6.667   3.300   2.458
29931WAT     H290036   6.637   3.242   2.309
29932WAT      O90037   6.987   7.590   7.107
29932WAT     H190038   7.059   7.563   7.171
29932WAT     H290039   7.006   7.681   7.071
29933WAT      O90040   1.171   8.969   6.134
29933WAT     H190041   1.161   8.871   6.153
29933WAT     H290042   1.092   9.001   6.081
29934WAT      O90043   7.555   3.339   1.449
29934WAT     H190044   7.550   3.438   1.438
29934WAT     H290045   7.631   3.316   1.510
29935WAT      O90046   8.362   4.131   6.591
29935WAT     H190047   8.449   4.168   6.560
29935WAT     H290048   8.287   4.176   6.542
29936WAT      O90049   2.521   4.065   7.383
29936WAT     H190050   2.563   3.998   7.322
29936WAT     H290051   2.538   4.039   7.478
29937WAT      O90052   9.230   9.553   1.243
29937WAT     H190053   9.184   9.473   1.205
29937WAT     H290054   9.222   9.554   1.342
29938WAT      O90055   0.934   7.973   7.393
29938WAT     H190056   0.888   7.890   7.360
29938WAT     H290057   0.960   8.030   7.315
29939WAT      O90058   6.400   9.630   8.708
29939WAT     H190059   6.445   9.571   8.641
29939WAT     H290060   6.370   9.714   8.663
29940WAT      O90061   4.376   1.901   4.610
29940WAT     H190062   4.470   1.921   4.638
29940WAT     H290063   4.320   1.984   4.616
29941WAT      O90064   1.739   9.271   0.314
29941WAT     H190065   1.720   9.298   0.408
29941WAT     H290066   1.834   9.292   0.291
29942WAT      O90067   3.191   3.664   2.219
29942WAT     H190068   3.143   3.739   2.174
29942WAT     H290069   3.183   3.581   2.164
29943WAT      O90070   3.180   9.267   0.865
29943WAT     H190071   3.279   9.253   0.873
29943WAT     H290072   3.134   9.227   0.944
29944WAT      O90073   7.587   5.177   2.945
29944WAT     H190074   7.632   5.232   3.015
29944WAT     H290075   7.609   5.080   2.959
29945WAT      O90076   1.838   6.682   4.435
29945WAT     H190077   1.826   6.606   4.500
29945WAT     H290078   1.749   6.720   4.412
29946WAT      O90079   6.522   1.629   3.399
29946WAT     H190080   6.500   1.644   3.302
29946WAT     H290081   6.442   1.589   3.445
29947WAT      O90082   9.355   3.608   9.856
29947WAT     H190083   9.380   3.552   9.935
29947WAT     H290084   9.373   3.704   9.876
29948WAT      O90085   3.944   9.795   1.087
29948WAT     H190086   3.974   9.889   1.105
29948WAT     H290087   3.957   9.740   1.170
29949WAT      O90088   1.749   1.771   0.735
29949WAT     H190089   1.822   1.839   0.731
29949WAT     H290090   1.703   1.766   0.646
29950WAT      O90091   8.385   7.408   6.420
29950WAT     H190092   8.408   7.349   6.343
29950WAT     H290093   8.372   7.352   6.502
29951WAT      O90094   5.569   5.619   0.903
29951WAT     H190095   5.570   5.562   0.984
29951WAT     H290096   5.656   5.612   0.855
29952WAT      O90097   2.781   3.691   7.496
29952WAT     H190098   2.814   3.665   7.405
29952WAT     H290099   2.800   3.617   7.560
29953WAT      O90100   5.760   2.356   2.098
29953WAT     H190101   5.678   2.346   2.041
29953WAT     H290102   5.769   2.451   2.127
29954WAT      O90103   0.763   1.321   7.899
29954WAT     H190104   0.791   1.273   7.982
29954WAT     H290105   0.736   1.255   7.830
29955WAT      O90106   0.597   8.186   7.937
29955WAT     H190107   0.608   8.233   7.849
29955WAT     H290108   0.663   8.111   7.943
29956WAT      O90109   8.971   7.996   3.636
29956WAT     H190110   9.052   7.999   3.578
29956WAT     H290111   8.890   7.980   3.579
29957WAT      O90112   1.892   8.847   3.134
29957WAT     H190113   1.812   8.900   3.108
29957WAT     H290114   1.875   8.750   3.117
29958WAT      O90115   7.763   3.748   4.745
29958WAT     H190116   7.690   3.739   4.812
29958WAT     H290117   7.736   3.813   4.674
29959WAT      O90118   6.610   9.005   3.870
29959WAT     H190119   6.651   8.922   3.906
29959WAT     H290120   6.516   9.014   3.905
29960WAT      O90121   7.830   6.825   4.685
29960WAT     H190122   7.751   6.772   4.717
29960WAT     H290123   7.876   6.775   4.612
29961WAT      O90124   2.825   9.605   1.961
29961WAT     H190125   2.840   9.508   1.980
29961WAT     H290126   2.726   9.622   1.954
29962WAT      O90127   9.456   8.076   5.346
29962WAT     H190128   9.493   8.003   5.289
29962WAT     H290129   9.437   8.156   5.290
29963WAT      O90130   8.605   5.087   2.187
29963WAT     H190131   8.527   5.032   2.218
29963WAT     H290132   8.688   5.032   2.193
29964WAT      O90133   4.630   6.934   6.449
29964WAT     H190134   4.605   6.979   6.364
29964WAT     H290135   4.660   7.002   6.516
29965WAT      O90136   2.037   0.402   0.372
29965WAT     H190137   2.117   0.457   0.392
29965WAT     H290138   2.046   0.360   0.281
29966WAT      O90139   4.027   7.159   8.014
29966WAT     H190140   4.087   7.234   7.987
29966WAT     H290141   3.951   7.195   8.069
29967WAT      O90142   0.710   5.606   7.728
29967WAT     H190143   0.667   5.609   7.818
29967WAT     H290144   0.690   5.518   7.684
29968WAT      O90145   8.092   9.122   6.124
29968WAT     H190146   8.123   9.096   6.033
29968WAT     H290147   8.120   9.216   6.143
29969WAT      O90148   2.992   1.098   0.322
29969WAT     H190149   3.035   1.087   0.232
29969WAT     H290150   3.004   1.192   0.354
29970WAT      O90151   4.680   7.294   5.285
29970WAT     H190152   4.597   7.241   5.265
29970WAT     H290153   4.759   7.233   5.286
29971WAT      O90154   7.743   8.588   7.760
29971WAT     H190155   7.700   8.502   7.732
29971WAT     H290156   7.680   8.664   7.743
29972WAT      O90157   1.439   1.052   4.286
29972WAT     H190158   1.406   1.098   4.203
29972WAT     H290159   1.435   1.116   4.363
29973WAT      O90160   6.677   3.924   1.587
29973WAT     H190161   6.654   3.883   1.499
29973WAT     H290162   6.686   4.023   1.576
29974WAT      O90163   8.551   2.105   4.874
29974WAT     H190164   8.575   2.131   4.781
29974WAT     H290165   8.458   2.135   4.895
29975WAT      O90166   2.163   9.693   2.011
29975WAT     H190167   2.064   9.680   2.003
29975WAT     H290168   2.206   9.606   2.035
29976WAT      O90169   5.681   1.065   9.477
29976WAT     H190170   5.696   1.164   9.468
29976WAT     H290171   5.699   1.037   9.571
29977WAT      O90172   3.009   6.595   0.721
29977WAT     H190173   3.009   6.590   0.621
29977WAT     H290174   2.939   6.534   0.758
29978WAT      O90175   7.582   9.255   2.108
29978WAT     H190176   7.581   9.288   2.014
29978WAT     H290177   7.488   9.242   2.140
29979WAT      O90178   6.227   6.268   2.739
29979WAT     H190179   6.177   6.352   2.718
29979WAT     H290180   6.237   6.214   2.655
29980WAT      O90181   9.570   7.482   7.029
29980WAT     H190182   9.538   7.388   7.013
29980WAT     H290183   9.669   7.482   7.042
29981WAT      O90184   7.642   8.976   3.476
29981WAT     H190185   7.619   9.073   3.472
29981WAT     H290186   7.626   8.942   3.569
29982WAT      O90187   5.081   4.881   7.164
29982WAT     H190188   5.071   4.785   7.193
29982WAT     H290189   4.998   4.910   7.117
29983WAT      O90190   8.278   8.609   1.056
29983WAT     H190191   8.315   8.532   1.108
29983WAT     H290192   8.218   8.574   0.983
29984WAT      O90193   4.655   3.532   8.787
29984WAT     H190194   4.696   3.539   8.878
29984WAT     H290195   4.702   3.459   8.736
29985WAT      O90196   4.047   8.439   5.324
29985WAT     H190197   4.100   8.447   5.239
29985WAT     H290198   3.973   8.374   5.311
29986WAT      O90199   7.584   4.180   8.454
29986WAT     H190200   7.645   4.255   8.431
29986WAT     H290201   7.604   4.102   8.395
29987WAT      O90202   3.881   8.028   4.393
29987WAT     H190203   3.895   8.062   4.486
29987WAT     H290204   3.808   7.959   4.394
29988WAT      O90205   7.521   9.613   0.552
29988WAT     H190206   7.427   9.637   0.526
29988WAT     H290207   7.573   9.587   0.471
29989WAT      O90208   1.384   8.469   7.987
29989WAT     H190209   1.334   8.403   7.931
29989WAT     H290210   1.322   8.507   8.056
29990WAT      O90211   7.859   6.739   3.565
29990WAT     H190212   7.852   6.645   3.600
29990WAT     H290213   7.955   6.767   3.566
29991WAT      O90214   0.137   2.854   9.361
29991WAT     H190215   0.164   2.802   9.280
29991WAT     H290216   0.038   2.865   9.361
29992WAT      O90217   2.261   7.570   4.921
29992WAT     H190218   2.274   7.520   5.007
29992WAT     H290219   2.244   7.505   4.847
29993WAT      O90220   9.878   1.400   6.802
29993WAT     H190221   9.818   1.477   6.821
29993WAT     H290222   9.958   1.431   6.752
29994WAT      O90223   3.388   0.913   6.028
29994WAT     H190224   3.444   0.976   6.083
29994WAT     H290225   3.304   0.892   6.076
29995WAT      O90226   5.380   0.804   6.091
29995WAT     H190227   5.395   0.867   6.015
29995WAT     H290228   5.320   0.846   6.158
29996WAT      O90229   5.535   4.106   6.331
29996WAT     H190230   5.458   4.041   6.327
29996WAT     H290231   5.620   4.056   6.348
29997WAT      O90232   3.441   3.239   3.651
29997WAT     H190233   3.360   3.184   3.629
29997WAT     H290234   3.425   3.334   3.625
29998WAT      O90235   4.851   6.551   1.309
29998WAT     H190236   4.799   6.635   1.294
29998WAT     H290237   4.796   6.472   1.281
29999WAT      O90238   6.497   2.312   1.479
29999WAT     H190239   6.449   2.287   1.564
29999WAT     H290240   6.595   2.321   1.498
30000WAT      O90241   2.508   5.449   3.339
30000WAT     H190242   2.468   5.370   3.385
30000WAT     H290243   2.602   5.428   3.310
30001WAT      O90244   1.644   8.636   8.853
30001WAT     H190245   1.674   8.542   8.873
30001WAT     H290246   1.627   8.684   8.939
30002WAT      O90247   1.976   4.827   4.444
30002WAT     H190248   1.932   4.916   4.436
30002WAT     H290249   1.908   4.757   4.467
30003WAT      O90250   7.216   3.704   3.712
30003WAT     H190251   7.138   3.746   3.666
30003WAT     H290252   7.202   3.605   3.717
30004WAT      O90253   6.144   7.077   7.732
30004WAT     H190254   6.132   6.978   7.721
30004WAT     H290255   6.067   7.113   7.784
30005WAT      O90256   2.512   5.940   9.000
30005WAT     H190257   2.437   5.926   8.936
30005WAT     H290258   2.478   5.985   9.083
30006WAT      O90259   7.130   2.149   3.349
30006WAT     H190260   7.064   2.184   3.416
30006WAT     H290261   7.081   2.109   3.272
30007WAT      O90262   3.337   1.057   0.141
30007WAT     H190263   3.250   1.017   0.169
30007WAT     H290264   3.331   1.157   0.148
30008WAT      O90265   9.787   7.817   3.311
30008WAT     H190266   9.800   7.729   3.267
30008WAT     H290267   9.710   7.812   3.374
30009WAT      O90268   3.427   6.194   7.484
30009WAT     H190269   3.466   6.204   7.393
30009WAT     H290270   3.467   6.114   7.529
30010WAT      O90271   7.987   8.146   8.470
30010WAT     H190272   7.976   8.148   8.569
30010WAT     H290273   8.009   8.238   8.437
30011WAT      O90274   4.896   5.105   7.441
30011WAT     H190275   4.952   5.101   7.359
30011WAT     H290276   4.802   5.128   7.416
30012WAT      O90277   1.229   4.607   9.354
30012WAT     H190278   1.281   4.600   9.439
30012WAT     H290279   1.277   4.666   9.290
30013WAT      O90280   3.193   9.606   3.881
30013WAT     H190281   3.094   9.620   3.885
30013WAT     H290282   3.230   9.602   3.974
30014WAT      O90283   5.237   6.505   9.105
30014WAT     H190284   5.285   6.581   9.150
30014WAT     H290285   5.300   6.428   9.094
30015WAT      O90286   0.673   2.601   7.747
30015WAT     H190287   0.657   2.566   7.655
30015WAT     H290288   0.709   2.695   7.741
30016WAT      O90289   6.970   3.175   8.358
30016WAT     H190290   7.007   3.083   8.344
30016WAT     H290291   6.909   3.199   8.282
30017WAT      O90292   0.927   6.184   0.383
30017WAT     H190293   0.849   6.236   0.349
30017WAT     H290294   0.895   6.101   0.429
30018WAT      O90295   4.529   9.040   4.883
30018WAT     H190296   4.524   8.962   4.822
30018WAT     H290297   4.439   9.081   4.893
30019WAT      O90298   5.520   3.436   3.304
30019WAT     H190299   5.512   3.507   3.374
30019WAT     H290300   5.578   3.362   3.337
30020WAT      O90301   1.095   9.556   3.339
30020WAT     H190302   1.104   9.532   3.436
30020WAT     H290303   1.180   9.534   3.291
30021WAT      O90304   1.595   8.034   5.243
30021WAT     H190305   1.509   8.000   5.282
30021WAT     H290306   1.672   7.986   5.284
30022WAT      O90307   8.307   0.025   2.335
30022WAT     H190308   8.290  -0.074   2.334
30022WAT     H290309   8.381   0.047   2.273
30023WAT      O90310   7.100   1.950   2.065
30023WAT     H190311   7.187   1.999   2.076
30023WAT     H290312   7.111   1.855   2.094
30024WAT      O90313   2.442   5.193   0.667
30024WAT     H190314   2.439   5.291   0.689
30024WAT     H290315   2.412   5.179   0.573
30025WAT      O90316   4.881   0.815   6.858
30025WAT     H190317   4.836   0.772   6.936
30025WAT     H290318   4.847   0.908   6.847
30026WAT      O90319   5.066   2.664   1.305
30026WAT     H190320   5.147   2.605   1.306
30026WAT     H290321   5.086   2.748   1.255
30027WAT      O90322   0.365   0.073   1.735
30027WAT     H190323   0.324  -0.002   1.683
30027WAT     H290324   0.345   0.159   1.688
30028WAT      O90325   4.037   8.789   8.641
30028WAT     H190326   4.114   8.727   8.628
30028WAT     H290327   4.059   8.856   8.712
30029WAT      O90328   6.737   9.498   2.273
30029WAT     H190329   6.773   9.459   2.357
30029WAT     H290330   6.662   9.442   2.239
30030WAT      O90331   4.833   7.655   6.346
30030WAT     H190332   4.842   7.635   6.248
30030WAT     H290333   4.738   7.644   6.374
30031WAT      O90334   8.450   7.841   5.211
30031WAT     H190335   8.377   7.808   5.152
30031WAT     H290336   8.456   7.783   5.293
30032WAT      O90337   0.623   1.714   7.580
30032WAT     H190338   0.528   1.694   7.556
30032WAT     H290339   0.675   1.629   7.586
30033WAT      O90340   0.487   6.183   3.039
30033WAT     H190341   0.505   6.219   2.947
30033WAT     H290342   0.450   6.256   3.097
30034WAT      O90343   0.670   3.911   8.679
30034WAT     H190344   0.652   3.918   8.581
30034WAT     H290345   0.586   3.883   8.727
30035WAT      O90346   0.676   6.600   7.405
30035WAT     H190347   0.742   6.529   7.384
30035WAT     H290348   0.634   6.583   7.494
30036WAT      O90349   5.624   9.781   3.361
30036WAT     H190350   5.700   9.842   3.339
30036WAT     H290351   5.585   9.807   3.450
30037WAT      O90352   0.124   3.606   2.568
30037WAT     H190353   0.091   3.515   2.542
30037WAT     H290354   0.110   3.620   2.666
30038WAT      O90355   0.747   2.480   4.162
30038WAT     H190356   0.759   2.409   4.092
30038WAT     H290357   0.673   2.454   4.223
30039WAT      O90358   8.672   7.263   8.832
30039WAT     H190359   8.758   7.234   8.790
30039WAT     H290360   8.653   7.358   8.806
30040WAT      O90361   2.309   5.839   1.042
30040WAT     H190362   2.249   5.873   1.115
30040WAT     H290363   2.341   5.747   1.065
30041WAT      O90364   6.430   3.676   3.121
30041WAT     H190365   6.530   3.681   3.115
30041WAT     H290366   6.391   3.768   3.121
30042WAT      O90367   2.508   5.558   2.502
30042WAT     H190368   2.599   5.558   2.461
30042WAT     H290369   2.470   5.650   2.499
30043WAT      O90370   4.709   3.979   9.798
30043WAT     H190371   4.791   4.028   9.770
30043WAT     H290372   4.679   4.012   9.887
30044WAT      O90373   3.031   3.916   9.079
30044WAT     H190374   2.998   4.005   9.047
30044WAT     H290375   3.029   3.914   9.179
30045WAT      O90376   8.297   4.331   4.210
30045WAT     H190377   8.209   4.316   4.166
30045WAT     H290378   8.371   4.320   4.143
30046WAT      O90379   7.563   3.182   7.777
30046WAT     H190380   7.657   3.165   7.804
30046WAT     H290381   7.547   3.281   7.772
30047WAT      O90382   8.945   8.548   3.014
30047WAT     H190383   8.934   8.555   2.915
30047WAT     H290384   9.000   8.467   3.035
30048WAT      O90385   7.898   2.507   5.923
30048WAT     H190386   7.809   2.519   5.878
30048WAT     H290387   7.913   2.410   5.941
30049WAT      O90388   3.810   2.449   9.258
30049WAT     H190389   3.761   2.505   9.324
30049WAT     H290390   3.873   2.506   9.206
30050WAT      O90391   4.665   8.564   9.694
30050WAT     H190392   4.617   8.648   9.719
30050WAT     H290393   4.676   8.506   9.775
30051WAT      O90394   6.301   1.916   7.990
30051WAT     H190395   6.302   1.816   7.987
30051WAT     H290396   6.297   1.946   8.085
30052WAT      O90397   4.524   2.191   3.854
30052WAT     H190398   4.618   2.169   3.878
30052WAT     H290399   4.514   2.191   3.755
30053WAT      O90400   3.967   3.025   2.430
30053WAT     H190401   3.869   3.031   2.413
30053WAT     H290402   4.004   3.117   2.447
30054WAT      O90403   4.546   5.217   8.348
30054WAT     H190404   4.617   5.164   8.394
30054WAT     H290405   4.516   5.169   8.265
30055WAT      O90406   2.350   5.698   1.602
30055WAT     H190407   2.251   5.692   1.592
30055WAT     H290408   2.374   5.780   1.654
30056WAT      O90409   5.132   3.092   2.795
30056WAT     H190410   5.197   3.063   2.725
30056WAT     H290411   5.166   3.174   2.840
30057WAT      O90412   6.932   7.945   5.930
30057WAT     H190413   6.863   7.934   5.859
30057WAT     H290414   7.023   7.943   5.888
30058WAT      O90415   4.392   7.426   2.295
30058WAT     H190416   4.418   7.514   2.336
30058WAT     H290417   4.331   7.442   2.217
30059WAT      O90418   5.541   5.427   7.493
30059WAT     H190419   5.489   5.443   7.409
30059WAT     H290420   5.522   5.500   7.558
30060WAT      O90421   7.564   9.178   3.155
30060WAT     H190422   7.591   9.179   3.251
30060WAT     H290423   7.537   9.270   3.127
30061WAT      O90424   6.290   1.617   0.125
30061WAT     H190425   6.285   1.635   0.224
30061WAT     H290426   6.210   1.659   0.081
30062WAT      O90427   7.390   9.625   8.463
30062WAT     H190428   7.473   9.619   8.408
30062WAT     H290429   7.410   9.675   8.547
30063WAT      O90430   1.604   2.480   5.793
30063WAT     H190431   1.536   2.451   5.725
30063WAT     H290432   1.608   2.580   5.795
30064WAT      O90433   6.693   8.353   2.953
30064WAT     H190434   6.594   8.338   2.952
30064WAT     H290435   6.727   8.351   2.859
30065WAT      O90436   3.226   8.600   1.179
30065WAT     H190437   3.186   8.569   1.093
30065WAT     H290438   3.202   8.537   1.253
30066WAT      O90439   6.598   7.330   7.236
30066WAT     H190440   6.617   7.417   7.190
30066WAT     H290441   6.652   7.257   7.194
30067WAT      O90442   7.609   1.974   4.549
30067WAT     H190443   7.644   1.881   4.536
30067WAT     H290444   7.521   1.983   4.503
30068WAT      O90445   5.610   4.759   7.950
30068WAT     H190446   5.577   4.671   7.917
30068WAT     H290447   5.533   4.815   7.980
30069WAT      O90448   1.126   4.160   1.511
30069WAT     H190449   1.181   4.087   1.549
30069WAT     H290450   1.143   4.245   1.561
30070WAT      O90451   8.242   3.831   1.773
30070WAT     H190452   8.162   3.827   1.714
30070WAT     H290453   8.320   3.865   1.721
30071WAT      O90454   3.569   5.278   5.258
30071WAT     H190455   3.618   5.360   5.285
30071WAT     H290456   3.633   5.202   5.249
30072WAT      O90457   4.652   0.096   2.869
30072WAT     H190458   4.586   0.021   2.862
30072WAT     H290459   4.635   0.148   2.952
30073WAT      O90460   5.240   7.814   4.406
30073WAT     H190461   5.322   7.871   4.416
30073WAT     H290462   5.248   7.759   4.323
30074WAT      O90463   9.339   1.118   0.385
30074WAT     H190464   9.381   1.200   0.348
30074WAT     H290465   9.373   1.101   0.477
30075WAT      O90466   7.502   9.443   4.403
30075WAT     H190467   7.532   9.401   4.488
30075WAT     H290468   7.441   9.380   4.354
30076WAT      O90469   5.043   6.649   7.929
30076WAT     H190470   5.021   6.554   7.951
30076WAT     H290471   5.051   6.702   8.014
30077WAT      O90472   8.653   5.303   3.094
30077WAT     H190473   8.690   5.216   3.062
30077WAT     H290474   8.562   5.318   3.056
30078WAT      O90475   2.011   7.305   5.274
30078WAT     H190476   1.980   7.209   5.274
30078WAT     H290477   2.033   7.333   5.367
30079WAT      O90478   3.701   3.054   2.331
30079WAT     H190479   3.730   3.122   2.264
30079WAT     H290480   3.682   2.968   2.285
30080WAT      O90481   4.739   0.848   2.095
30080WAT     H190482   4.797   0.861   2.015
30080WAT     H290483   4.648   0.886   2.077
30081WAT      O90484   0.403   6.867   8.311
30081WAT     H190485   0.392   6.964   8.288
30081WAT     H290486   0.440   6.859   8.404
30082WAT      O90487   5.611   6.729   2.411
30082WAT     H190488   5.628   6.672   2.491
30082WAT     H290489   5.609   6.671   2.329
30083WAT      O90490   8.046   8.872   4.127
30083WAT     H190491   8.086   8.947   4.075
30083WAT     H290492   8.095   8.861   4.213
30084WAT      O90493   9.150   0.363   2.530
30084WAT     H190494   9.055   0.393   2.538
30084WAT     H290495   9.206   0.437   2.494
30085WAT      O90496   8.263   8.903   0.881
30085WAT     H190497   8.291   8.846   0.804
30085WAT     H290498   8.168   8.883   0.904
30086WAT      O90499   3.833   9.371   2.842
30086WAT     H190500   3.862   9.460   2.807
30086WAT     H290501   3.802   9.380   2.936
30087WAT      O90502   8.740   4.970   8.486
30087WAT     H190503   8.737   5.067   8.510
30087WAT     H290504   8.675   4.952   8.413
30088WAT      O90505   8.862   5.920   4.302
30088WAT     H190506   8.882   5.944   4.397
30088WAT     H290507   8.839   5.823   4.296
30089WAT      O90508   2.720   1.028   0.352
30089WAT     H190509   2.721   0.994   0.446
30089WAT     H290510   2.810   1.064   0.329
30090WAT      O90511   8.042   4.010   5.785
30090WAT     H190512   8.124   3.962   5.755
30090WAT     H290513   7.976   4.014   5.709
30091WAT      O90514   7.486   3.817   6.608
30091WAT     H190515   7.563   3.840   6.549
30091WAT     H290516   7.401   3.820   6.554
30092WAT      O90517   7.252   9.261   5.046
30092WAT     H190518   7.310   9.221   4.975
30092WAT     H290519   7.296   9.251   5.135
30093WAT      O90520   2.907   7.743   4.942
30093WAT     H190521   2.845   7.822   4.937
30093WAT     H290522   2.960   7.738   4.857
30094WAT      O90523   4.649   8.636   3.749
30094WAT     H190524   4.728   8.691   3.776
30094WAT     H290525   4.574   8.695   3.720
30095WAT      O90526   6.128   5.084   3.482
30095WAT     H190527   6.218   5.108   3.516
30095WAT     H290528   6.060   5.096   3.555
30096WAT      O90529   2.913   0.609   5.393
30096WAT     H190530   2.937   0.706   5.382
30096WAT     H290531   2.875   0.574   5.308
30097WAT      O90532   2.537   1.496   8.924
30097WAT     H190533   2.438   1.493   8.938
30097WAT     H290534   2.562   1.440   8.845
30098WAT      O90535   7.146   4.106   4.732
30098WAT     H190536   7.081   4.076   4.663
30098WAT     H290537   7.219   4.159   4.688
30099WAT      O90538   1.348   7.868   8.031
30099WAT     H190539   1.428   7.885   8.088
30099WAT     H290540   1.267   7.908   8.073
30100WAT      O90541   2.487   7.811   5.963
30100WAT     H190542   2.419   7.879   5.991
30100WAT     H290543   2.464   7.723   6.005
30101WAT      O90544   7.548   3.371   3.901
30101WAT     H190545   7.513   3.318   3.823
30101WAT     H290546   7.600   3.310   3.961
30102WAT      O90547   2.154   2.589   0.473
30102WAT     H190548   2.087   2.515   0.479
30102WAT     H290549   2.220   2.569   0.401
30103WAT      O90550   8.001   4.657   8.757
30103WAT     H190551   7.975   4.677   8.852
30103WAT     H290552   7.943   4.584   8.721
30104WAT      O90553   7.818   9.253   0.319
30104WAT     H190554   7.890   9.291   0.261
30104WAT     H290555   7.764   9.187   0.267
30105WAT      O90556   6.027   7.506   6.807
30105WAT     H190557   5.983   7.417   6.816
30105WAT     H290558   6.121   7.500   6.842
30106WAT      O90559   3.097   4.762   2.092
30106WAT     H190560   3.098   4.792   1.996
30106WAT     H290561   3.113   4.841   2.151
30107WAT      O90562   6.469   0.621   1.503
30107WAT     H190563   6.382   0.615   1.453
30107WAT     H290564   6.452   0.659   1.594
30108WAT      O90565   5.015   9.275   5.839
30108WAT     H190566   4.981   9.184   5.862
30108WAT     H290567   5.095   9.266   5.780
30109WAT      O90568   7.665   9.033   2.961
30109WAT     H190569   7.712   9.115   2.926
30109WAT     H290570   7.605   9.059   3.036
30110WAT      O90571   6.226   1.549   0.855
30110WAT     H190572   6.238   1.463   0.804
30110WAT     H290573   6.270   1.541   0.945
30111WAT      O90574   6.247   2.227   3.590
30111WAT     H190575   6.195   2.249   3.508
30111WAT     H290576   6.329   2.285   3.595
30112WAT      O90577   9.743   5.099   9.053
30112WAT     H190578   9.695   5.015   9.080
30112WAT     H290579   9.834   5.076   9.020
30113WAT      O90580   6.883   0.818   0.953
30113WAT     H190581   6.785   0.827   0.969
30113WAT     H290582   6.934   0.852   1.032
30114WAT      O90583   8.186   5.568   7.663
30114WAT     H190584   8.217   5.561   7.758
30114WAT     H290585   8.089   5.545   7.658
30115WAT      O90586   8.033   0.476   5.396
30115WAT     H190587   8.129   0.448   5.394
30115WAT     H290588   8.018   0.546   5.326
30116WAT      O90589   1.644   5.330   6.038
30116WAT     H190590   1.600   5.248   6.075
30116WAT     H290591   1.743   5.315   6.033
30117WAT      O90592   3.682   0.394   4.263
30117WAT     H190593   3.769   0.435   4.291
30117WAT     H290594   3.663   0.418   4.168
30118WAT      O90595   8.186   6.065   1.713
30118WAT     H190596   8.215   6.084   1.807
30118WAT     H290597   8.096   6.021   1.715
30119WAT      O90598   3.152   0.120   9.638
30119WAT     H190599   3.162   0.109   9.737
30119WAT     H290600   3.090   0.196   9.619
30120WAT      O90601   5.764   2.353   7.137
30120WAT     H190602   5.674   2.323   7.105
30120WAT     H290603   5.812   2.275   7.179
30121WAT      O90604   1.312   6.135   3.875
30121WAT     H190605   1.324   6.209   3.941
30121WAT     H290606   1.390   6.132   3.813
30122WAT      O90607   4.863   9.245   6.688
30122WAT     H190608   4.773   9.215   6.658
30122WAT     H290609   4.934   9.188   6.645
30123WAT      O90610   6.308   6.349   1.138
30123WAT     H190611   6.381   6.282   1.122
30123WAT     H290612   6.223   6.316   1.099
30124WAT      O90613   4.462   2.999   6.297
30124WAT     H190614   4.544   2.951   6.265
30124WAT     H290615   4.483   3.095   6.312
30125WAT      O90616   5.221   5.307   4.127
30125WAT     H190617   5.215   5.339   4.033
30125WAT     H290618   5.195   5.380   4.190
30126WAT      O90619   8.992   2.719   8.235
30126WAT     H190620   9.079   2.767   8.237
30126WAT     H290621   8.979   2.669   8.321
30127WAT      O90622   0.488   3.932   2.430
30127WAT     H190623   0.410   3.969   2.380
30127WAT     H290624   0.456   3.868   2.499
30128WAT      O90625   4.967   1.210   1.117
30128WAT     H190626   4.899   1.174   1.181
30128WAT     H290627   4.950   1.172   1.026
30129WAT      O90628   3.021   9.294   5.815
30129WAT     H190629   3.016   9.277   5.913
30129WAT     H290630   2.969   9.224   5.766
30130WAT      O90631   6.334   2.838   1.011
30130WAT     H190632   6.390   2.903   1.063
30130WAT     H290633   6.369   2.830   0.918
30131WAT      O90634   5.663   5.713   8.464
30131WAT     H190635   5.735   5.781   8.457
30131WAT     H290636   5.703   5.621   8.462
30132WAT      O90637   6.395   4.988   4.096
30132WAT     H190638   6.383   5.060   4.028
30132WAT     H290639   6.325   4.918   4.084
30133WAT      O90640   3.606   9.809   7.153
30133WAT     H190641   3.686   9.867   7.140
30133WAT     H290642   3.628   9.715   7.127
30134WAT      O90643   3.904   7.998   3.315
30134WAT     H190644   3.882   7.948   3.232
30134WAT     H290645   3.976   7.950   3.365
30135WAT      O90646   2.619   5.949   6.064
30135WAT     H190647   2.586   6.014   5.995
30135WAT     H290648   2.716   5.929   6.048
30136WAT      O90649   0.277   8.890   0.242
30136WAT     H190650   0.271   8.957   0.168
30136WAT     H290651   0.368   8.893   0.283
30137WAT      O90652   2.830   0.398   7.807
30137WAT     H190653   2.863   0.388   7.901
30137WAT     H290654   2.760   0.329   7.789
30138WAT      O90655   3.222   6.342   1.711
30138WAT     H190656   3.275   6.329   1.795
30138WAT     H290657   3.181   6.255   1.683
30139WAT      O90658   0.968   0.133   4.399
30139WAT     H190659   1.031   0.062   4.432
30139WAT     H290660   0.874   0.109   4.425
30140WAT      O90661   6.276   1.761   1.647
30140WAT     H190662   6.177   1.747   1.659
30140WAT     H290663   6.324   1.725   1.727
30141WAT      O90664   9.015   2.456   1.935
30141WAT     H190665   9.047   2.362   1.925
30141WAT     H290666   9.045   2.492   2.023
30142WAT      O90667   9.485   8.825   5.280
30142WAT     H190668   9.440   8.817   5.191
30142WAT     H290669   9.447   8.903   5.330
30143WAT      O90670   1.447   7.861   1.662
30143WAT     H190671   1.435   7.900   1.753
30143WAT     H290672   1.401   7.918   1.594
30144WAT      O90673   9.535   6.758   5.558
30144WAT     H190674   9.440   6.746   5.533
30144WAT     H290675   9.549   6.727   5.652
30145WAT      O90676   2.378   8.046   2.785
30145WAT     H190677   2.464   8.087   2.817
30145WAT     H290678   2.317   8.032   2.864
30146WAT      O90679   8.488   6.437   6.179
30146WAT     H190680   8.533   6.360   6.224
30146WAT     H290681   8.543   6.520   6.192
30147WAT      O90682   8.692   4.995   9.472
30147WAT     H190683   8.759   5.053   9.427
30147WAT     H290684   8.615   4.979   9.411
30148WAT      O90685   6.520   3.243   2.960
30148WAT     H190686   6.581   3.294   3.020
30148WAT     H290687   6.430   3.287   2.959
30149WAT      O90688   3.620   8.176   2.127
30149WAT     H190689   3.662   8.175   2.036
30149WAT     H290690   3.691   8.183   2.197
30150WAT      O90691   8.916   3.512   4.501
30150WAT     H190692   8.834   3.569   4.513
30150WAT     H290693   8.996   3.571   4.493
30151WAT      O90694   0.376   3.090   8.872
30151WAT     H190695   0.399   3.187   8.866
30151WAT     H290696   0.379   3.050   8.781
30152WAT      O90697   1.175   2.467   6.182
30152WAT     H190698   1.136   2.548   6.226
30152WAT     H290699   1.256   2.494   6.130
30153WAT      O90700   5.347   1.518   2.595
30153WAT     H190701   5.344   1.422   2.568
30153WAT     H290702   5.430   1.535   2.648
30154WAT      O90703   9.530   0.817   8.223
30154WAT     H190704   9.476   0.756   8.281
30154WAT     H290705   9.557   0.898   8.277
30155WAT      O90706   7.515   0.262   6.424
30155WAT     H190707   7.433   0.215   6.389
30155WAT     H290708   7.548   0.326   6.355
30156WAT      O90709   5.301   2.057   6.130
30156WAT     H190710   5.269   2.140   6.177
30156WAT     H290711   5.322   1.987   6.197
30157WAT      O90712   1.465   3.083   0.994
30157WAT     H190713   1.477   3.179   1.019
30157WAT     H290714   1.390   3.074   0.929
30158WAT      O90715   3.691   7.708   6.556
30158WAT     H190716   3.735   7.658   6.631
30158WAT     H290717   3.762   7.740   6.493
30159WAT      O90718   7.856   1.691   3.008
30159WAT     H190719   7.810   1.613   3.051
30159WAT     H290720   7.790   1.743   2.954
30160WAT      O90721   3.856   2.256   3.797
30160WAT     H190722   3.784   2.236   3.863
30160WAT     H290723   3.904   2.339   3.825
30161WAT      O90724   5.903   2.094   7.259
30161WAT     H190725   5.926   2.103   7.356
30161WAT     H290726   5.984   2.114   7.203
30162WAT      O90727   5.577   3.675   1.356
30162WAT     H190728   5.611   3.633   1.273
30162WAT     H290729   5.485   3.640   1.376
30163WAT      O90730   4.501   3.533   6.862
30163WAT     H190731   4.544   3.481   6.789
30163WAT     H290732   4.420   3.483   6.895
30164WAT      O90733   9.825   2.694   4.489
30164WAT     H190734   9.894   2.626   4.463
30164WAT     H290735   9.760   2.653   4.553
30165WAT      O90736   7.206   3.809   5.965
30165WAT     H190737   7.202   3.726   5.911
30165WAT     H290738   7.289   3.809   6.021
30166WAT      O90739   5.408   4.414   9.151
30166WAT     H190740   5.380   4.375   9.063
30166WAT     H290741   5.355   4.497   9.169
30167WAT      O90742   8.592   4.237   7.099
30167WAT     H190743   8.685   4.202   7.093
30167WAT     H290744   8.544   4.191   7.174
30168WAT      O90745   2.645   5.977   2.433
30168WAT     H190746   2.697   5.978   2.518
30168WAT     H290747   2.706   5.956   2.357
30169WAT      O90748   8.643   9.658   8.247
30169WAT     H190749   8.649   9.699   8.156
30169WAT     H290750   8.735   9.632   8.277
30170WAT      O90751   5.981   6.464   3.218
30170WAT     H190752   6.069   6.457   3.265
30170WAT     H290753   5.991   6.522   3.137
30171WAT      O90754   8.390   9.718   7.147
30171WAT     H190755   8.433   9.808   7.149
30171WAT     H290756   8.387   9.680   7.239
30172WAT      O90757   0.285   8.732   1.378
30172WAT     H190758   0.208   8.784   1.413
30172WAT     H290759   0.370   8.765   1.419
30173WAT      O90760   5.000   5.947   4.681
30173WAT     H190761   4.990   5.848   4.670
30173WAT     H290762   4.910   5.987   4.702
30174WAT      O90763   1.115   1.818   8.168
30174WAT     H190764   1.073   1.727   8.168
30174WAT     H290765   1.057   1.882   8.219
30175WAT      O90766   9.002   9.163   5.671
30175WAT     H190767   9.032   9.167   5.576
30175WAT     H290768   9.079   9.140   5.730
30176WAT      O90769   7.945   3.342   3.103
30176WAT     H190770   7.963   3.244   3.087
30176WAT     H290771   7.865   3.370   3.051
30177WAT      O90772   2.480   3.786   7.460
30177WAT     H190773   2.470   3.863   7.522
30177WAT     H290774   2.558   3.730   7.489
30178WAT      O90775   3.284   7.456   7.595
30178WAT     H190776   3.313   7.360   7.593
30178WAT     H290777   3.272   7.486   7.690
30179WAT      O90778   5.188   0.062   7.905
30179WAT     H190779   5.269   0.030   7.856
30179WAT     H290780   5.200   0.047   8.003
30180WAT      O90781   7.921   9.612   4.826
30180WAT     H190782   7.984   9.550   4.780
30180WAT     H290783   7.885   9.678   4.760
30181WAT      O90784   3.243   6.529   1.538
30181WAT     H190785   3.327   6.513   1.486
30181WAT     H290786   3.233   6.459   1.608
30182WAT      O90787   6.751   7.724   6.226
30182WAT     H190788   6.806   7.722   6.143
30182WAT     H290789   6.671   7.783   6.211
30183WAT      O90790   2.059   9.043   6.173
30183WAT     H190791   2.116   9.089   6.241
30183WAT     H290792   2.088   8.948   6.163
30184WAT      O90793   1.327   8.787   7.671
30184WAT     H190794   1.361   8.774   7.764
30184WAT     H290795   1.230   8.808   7.673
30185WAT      O90796   3.226   3.077   6.054
30185WAT     H190797   3.153   3.048   6.117
30185WAT     H290798   3.301   3.117   6.107
30186WAT      O90799   4.743   3.020   9.401
30186WAT     H190800   4.670   3.000   9.466
30186WAT     H290801   4.819   3.065   9.448
30187WAT      O90802   8.395   7.373   5.425
30187WAT     H190803   8.314   7.393   5.370
30187WAT     H290804   8.415   7.275   5.420
30188WAT      O90805   1.923   6.095   2.197
30188WAT     H190806   1.897   6.073   2.103
30188WAT     H290807   1.925   6.011   2.252
30189WAT      O90808   7.365   0.049   2.964
30189WAT     H190809   7.304  -0.018   2.921
30189WAT     H290810   7.344   0.140   2.931
30190WAT      O90811   7.589   3.776   0.564
30190WAT     H190812   7.574   3.687   0.520
30190WAT     H290813   7.614   3.761   0.660
30191WAT      O90814   6.473   2.297   7.680
30191WAT     H190815   6.492   2.296   7.778
30191WAT     H290816   6.444   2.389   7.653
30192WAT      O90817   7.653   7.876   6.747
30192WAT     H190818   7.624   7.811   6.817
30192WAT     H290819   7.584   7.882   6.676
30193WAT      O90820   3.079   0.865   4.916
30193WAT     H190821   3.000   0.892   4.860
30193WAT     H290822   3.161   0.862   4.859
30194WAT      O90823   8.581   7.199   9.824
30194WAT     H190824   8.547   7.220   9.732
30194WAT     H290825   8.644   7.122   9.819
30195WAT      O90826   4.296   7.005   6.139
30195WAT     H190827   4.322   7.015   6.043
30195WAT     H290828   4.289   6.908   6.161
30196WAT      O90829   2.748   2.357   5.911
30196WAT     H190830   2.792   2.413   5.841
30196WAT     H290831   2.805   2.356   5.993
30197WAT      O90832   0.969   2.392   5.584
30197WAT     H190833   0.889   2.341   5.555
30197WAT     H290834   0.965   2.406   5.683
30198WAT      O90835   2.417   7.696   8.986
30198WAT     H190836   2.434   7.711   9.083
30198WAT     H290837   2.319   7.682   8.972
30199WAT      O90838   3.145   2.197   6.117
30199WAT     H190839   3.213   2.194   6.044
30199WAT     H290840   3.191   2.198   6.205
30200WAT      O90841   1.414   3.118   2.076
30200WAT     H190842   1.420   3.216   2.094
30200WAT     H290843   1.488   3.071   2.122
30201WAT      O90844   6.298   8.496   2.417
30201WAT     H190845   6.359   8.474   2.493
30201WAT     H290846   6.336   8.459   2.332
30202WAT      O90847   0.851   7.029   9.276
30202WAT     H190848   0.804   7.116   9.293
30202WAT     H290849   0.945   7.047   9.247
30203WAT      O90850   3.395   0.894   1.175
30203WAT     H190851   3.371   0.906   1.079
30203WAT     H290852   3.476   0.836   1.182
30204WAT      O90853   1.921   7.587   3.679
30204WAT     H190854   1.888   7.656   3.615
30204WAT     H290855   1.908   7.496   3.640
30205WAT      O90856   5.420   4.972   9.818
30205WAT     H190857   5.443   5.014   9.730
30205WAT     H290858   5.371   5.038   9.875
30206WAT      O90859   1.448   8.489   0.706
30206WAT     H190860   1.518   8.561   0.706
30206WAT     H290861   1.490   8.401   0.684
30207WAT      O90862   4.901   2.675   8.455
30207WAT     H190863   4.898   2.760   8.402
30207WAT     H290864   4.992   2.663   8.493
30208WAT      O90865   4.081   9.755   2.657
30208WAT     H190866   4.111   9.773   2.564
30208WAT     H290867   4.069   9.841   2.706
30209WAT      O90868   1.274   1.345   2.517
30209WAT     H190869   1.247   1.340   2.613
30209WAT     H290870   1.197   1.378   2.462
30210WAT      O90871   7.657   2.223   1.547
30210WAT     H190872   7.705   2.210   1.633
30210WAT     H290873   7.559   2.212   1.562
30211WAT      O90874   8.397   9.089   1.546
30211WAT     H190875   8.458   9.046   1.480
30211WAT     H290876   8.443   9.168   1.587
30212WAT      O90877   1.077   6.505   7.793
30212WAT     H190878   1.056   6.438   7.864
30212WAT     H290879   1.114   6.458   7.713
30213WAT      O90880   2.585   9.502   2.171
30213WAT     H190881   2.594   9.454   2.258
30213WAT     H290882   2.668   9.487   2.116
30214WAT      O90883   7.841   7.494   8.690
30214WAT     H190884   7.794   7.578   8.663
30214WAT     H290885   7.790   7.414   8.656
30215WAT      O90886   0.733   2.663   5.381
30215WAT     H190887   0.797   2.686   5.454
30215WAT     H290888   0.711   2.565   5.386
30216WAT      O90889   2.283   0.779   3.190
30216WAT     H190890   2.380   0.756   3.187
30216WAT     H290891   2.271   0.867   3.235
30217WAT      O90892   6.730   8.949   5.706
30217WAT     H190893   6.830   8.953   5.699
30217WAT     H290894   6.693   8.908   5.623
30218WAT      O90895   9.655   1.859   1.322
30218WAT     H190896   9.671   1.815   1.233
30218WAT     H290897   9.656   1.958   1.311
30219WAT      O90898   8.692   2.963   9.616
30219WAT     H190899   8.634   2.967   9.698
30219WAT     H290900   8.657   2.892   9.554
30220WAT      O90901   7.966   2.051   6.580
30220WAT     H190902   8.016   1.966   6.566
30220WAT     H290903   7.939   2.059   6.676
30221WAT      O90904   7.036   5.021   3.511
30221WAT     H190905   7.127   5.001   3.546
30221WAT     H290906   6.968   4.967   3.561
30222WAT      O90907   1.331   9.273   3.586
30222WAT     H190908   1.401   9.328   3.540
30222WAT     H290909   1.328   9.182   3.544
30223WAT      O90910   7.959   8.489   1.932
30223WAT     H190911   8.038   8.539   1.897
30223WAT     H290912   7.878   8.547   1.928
30224WAT      O90913   6.270   5.099   2.378
30224WAT     H190914   6.193   5.062   2.327
30224WAT     H290915   6.259   5.198   2.388
30225WAT      O90916   5.826   1.862   9.174
30225WAT     H190917   5.794   1.888   9.083
30225WAT     H290918   5.838   1.944   9.230
30226WAT      O90919   0.812   4.435   9.306
30226WAT     H190920   0.872   4.497   9.255
30226WAT     H290921   0.853   4.344   9.310
30227WAT      O90922   2.048   6.150   6.575
30227WAT     H190923   2.049   6.105   6.664
30227WAT     H290924   2.091   6.240   6.582
30228WAT      O90925   5.800   7.589   7.775
30228WAT     H190926   5.852   7.551   7.699
30228WAT     H290927   5.708   7.551   7.775
30229WAT      O90928   6.738   7.791   0.847
30229WAT     H190929   6.653   7.783   0.796
30229WAT     H290930   6.807   7.836   0.790
30230WAT      O90931   0.878   9.429   8.965
30230WAT     H190932   0.782   9.455   8.977
30230WAT     H290933   0.898   9.350   9.023
30231WAT      O90934   0.971   1.766   7.105
30231WAT     H190935   1.027   1.761   7.187
30231WAT     H290936   1.025   1.806   7.030
30232WAT      O90937   7.954   4.738   0.201
30232WAT     H190938   7.934   4.830   0.235
30232WAT     H290939   7.871   4.698   0.162
30233WAT      O90940   0.179   7.782   6.061
30233WAT     H190941   0.250   7.799   5.993
30233WAT     H290942   0.221   7.742   6.143
30234WAT      O90943   1.771   9.045   6.187
30234WAT     H190944   1.749   8.999   6.273
30234WAT     H290945   1.868   9.070   6.187
30235WAT      O90946   6.086   4.687   7.502
30235WAT     H190947   6.055   4.592   7.512
30235WAT     H290948   6.154   4.708   7.572
30236WAT      O90949   9.437   0.277   3.247
30236WAT     H190950   9.516   0.327   3.209
30236WAT     H290951   9.409   0.322   3.332
30237WAT      O90952   8.000   7.333   7.360
30237WAT     H190953   7.946   7.343   7.277
30237WAT     H290954   8.043   7.242   7.361
30238WAT      O90955   0.309   1.993   8.065
30238WAT     H190956   0.392   2.015   8.015
30238WAT     H290957   0.284   1.898   8.050
30239WAT      O90958   7.889   3.512   6.406
30239WAT     H190959   7.949   3.555   6.473
30239WAT     H290960   7.798   3.553   6.412
30240WAT      O90961   4.902   5.163   0.736
30240WAT     H190962   4.856   5.212   0.810
30240WAT     H290963   4.958   5.227   0.683
30241WAT      O90964   7.062   9.138   4.067
30241WAT     H190965   7.136   9.070   4.064
30241WAT     H290966   7.081   9.203   4.141
30242WAT      O90967   8.533   7.690   1.063
30242WAT     H190968   8.497   7.609   1.015
30242WAT     H290969   8.531   7.673   1.162
30243WAT      O90970   2.529   0.956   4.899
30243WAT     H190971   2.450   0.959   4.960
30243WAT     H290972   2.594   1.027   4.926
30244WAT      O90973   1.692   2.345   9.263
30244WAT     H190974   1.725   2.341   9.169
30244WAT     H290975   1.614   2.282   9.274
30245WAT      O90976   7.459   2.565   8.520
30245WAT     H190977   7.427   2.612   8.602
30245WAT     H290978   7.382   2.543   8.461
30246WAT      O90979   8.856   2.953   1.743
30246WAT     H190980   8.789   2.883   1.768
30246WAT     H290981   8.869   3.016   1.820
30247WAT      O90982   1.101   0.330   5.006
30247WAT     H190983   1.132   0.395   5.075
30247WAT     H290984   1.132   0.238   5.030
30248WAT      O90985   6.421   7.363   8.192
30248WAT     H190986   6.357   7.335   8.120
30248WAT     H290987   6.420   7.462   8.201
30249WAT      O90988   9.254   7.128   7.077
30249WAT     H190989   9.328   7.168   7.132
30249WAT     H290990   9.213   7.051   7.126
30250WAT      O90991   7.553   4.511   0.648
30250WAT     H190992   7.518   4.435   0.593
30250WAT     H290993   7.477   4.568   0.678
30251WAT      O90994   7.736   5.113   3.826
30251WAT     H190995   7.736   5.197   3.880
30251WAT     H290996   7.653   5.061   3.844
30252WAT      O90997   7.924   4.778   3.830
30252WAT     H190998   7.952   4.866   3.793
30252WAT     H290999   8.001   4.735   3.876
30253WAT      O91000   9.068   3.130   2.655
30253WAT     H191001   9.073   3.114   2.754
30253WAT     H291002   9.117   3.213   2.632
30254WAT      O91003   3.564   2.865   0.342
30254WAT     H191004   3.501   2.919   0.398
30254WAT     H291005   3.645   2.840   0.396
30255WAT      O91006   8.381   9.739   1.045
30255WAT     H191007   8.473   9.721   1.081
30255WAT     H291008   8.337   9.808   1.102
30256WAT      O91009   1.298   2.493   8.022
30256WAT     H191010   1.380   2.438   8.007
30256WAT     H291011   1.324   2.583   8.057
30257WAT      O91012   2.162   8.050   3.803
30257WAT     H191013   2.212   7.997   3.871
30257WAT     H291014   2.066   8.057   3.830
30258WAT      O91015   1.804   7.035   6.910
30258WAT     H191016   1.725   7.096   6.906
30258WAT     H291017   1.804   6.975   6.830
30259WAT      O91018   2.120   3.163   2.952
30259WAT     H191019   2.166   3.149   3.040
30259WAT     H291020   2.027   3.128   2.958
30260WAT      O91021   9.809   0.090   4.374
30260WAT     H191022   9.780   0.181   4.345
30260WAT     H291023   9.732   0.041   4.413
30261WAT      O91024   0.984   5.609   7.506
30261WAT     H191025   1.029   5.566   7.428
30261WAT     H291026   0.975   5.542   7.580
30262WAT      O91027   0.152   4.846   7.446
30262WAT     H191028   0.125   4.753   7.472
30262WAT     H291029   0.162   4.852   7.347
30263WAT      O91030   3.784   1.871   3.974
30263WAT     H191031   3.752   1.928   4.049
30263WAT     H291032   3.861   1.814   4.006
30264WAT      O91033   5.250   2.733   8.274
30264WAT     H191034   5.183   2.738   8.200
30264WAT     H291035   5.215   2.673   8.347
30265WAT      O91036   9.181   1.614   4.630
30265WAT     H191037   9.186   1.517   4.652
30265WAT     H291038   9.191   1.626   4.532
30266WAT      O91039   9.187   7.268   8.053
30266WAT     H191040   9.171   7.277   7.955
30266WAT     H291041   9.106   7.299   8.103
30267WAT      O91042   3.627   3.126   5.934
30267WAT     H191043   3.726   3.136   5.929
30267WAT     H291044   3.588   3.128   5.842
30268WAT      O91045   0.225   5.535   4.970
30268WAT     H191046   0.230   5.635   4.972
30268WAT     H291047   0.139   5.505   5.010
30269WAT      O91048   9.605   3.901   8.693
30269WAT     H191049   9.690   3.946   8.663
30269WAT     H291050   9.527   3.959   8.671
30270WAT      O91051   6.126   4.877   9.495
30270WAT     H191052   6.053   4.946   9.500
30270WAT     H291053   6.184   4.896   9.416
30271WAT      O91054   0.660   2.998   4.658
30271WAT     H191055   0.734   2.971   4.597
30271WAT     H291056   0.682   2.970   4.752
30272WAT      O91057   3.787   3.041   9.763
30272WAT     H191058   3.865   2.980   9.773
30272WAT     H291059   3.724   3.003   9.695
30273WAT      O91060   8.440   8.324   7.738
30273WAT     H191061   8.393   8.240   7.709
30273WAT     H291062   8.417   8.342   7.834
30274WAT      O91063   9.467   3.595   7.831
30274WAT     H191064   9.505   3.666   7.772
30274WAT     H291065   9.538   3.561   7.893
30275WAT      O91066   6.938   9.262   4.482
30275WAT     H191067   7.013   9.218   4.531
30275WAT     H291068   6.854   9.209   4.495
30276WAT      O91069   0.697   5.555   9.403
30276WAT     H191070   0.742   5.476   9.363
30276WAT     H291071   0.689   5.542   9.502
30277WAT      O91072   0.609   2.360   4.409
30277WAT     H191073   0.550   2.433   4.374
30277WAT     H291074   0.582   2.337   4.503
30278WAT      O91075   6.137   5.883   2.417
30278WAT     H191076   6.121   5.931   2.331
30278WAT     H291077   6.201   5.808   2.401
30279WAT      O91078   0.934   6.651   2.815
30279WAT     H191079   0.860   6.616   2.872
30279WAT     H291080   0.980   6.574   2.770
30280WAT      O91081   5.052   7.108   5.757
30280WAT     H191082   4.991   7.133   5.682
30280WAT     H291083   5.001   7.111   5.843
30281WAT      O91084   3.618   7.114   1.022
30281WAT     H191085   3.618   7.144   1.117
30281WAT     H291086   3.638   7.016   1.018
30282WAT      O91087   0.236   2.519   8.979
30282WAT     H191088   0.279   2.592   9.031
30282WAT     H291089   0.264   2.525   8.883
30283WAT      O91090   0.363   2.899   0.923
30283WAT     H191091   0.414   2.980   0.894
30283WAT     H291092   0.353   2.837   0.845
30284WAT      O91093   2.201   8.624   9.225
30284WAT     H191094   2.157   8.640   9.314
30284WAT     H291095   2.176   8.533   9.192
30285WAT      O91096   7.029   4.623   7.670
30285WAT     H191097   7.117   4.577   7.667
30285WAT     H291098   7.019   4.671   7.757
30286WAT      O91099   1.507   0.181   5.369
30286WAT     H191100   1.588   0.129   5.394
30286WAT     H291101   1.514   0.210   5.273
30287WAT      O91102   5.836   7.058   3.526
30287WAT     H191103   5.773   7.101   3.591
30287WAT     H291104   5.816   7.090   3.433
30288WAT      O91105   8.634   2.237   4.658
30288WAT     H191106   8.724   2.236   4.614
30288WAT     H291107   8.630   2.313   4.723
30289WAT      O91108   1.002   4.614   6.153
30289WAT     H191109   1.078   4.654   6.203
30289WAT     H291110   0.959   4.543   6.208
30290WAT      O91111   1.340   2.597   8.888
30290WAT     H191112   1.334   2.627   8.983
30290WAT     H291113   1.435   2.573   8.866
30291WAT      O91114   5.293   9.703   2.541
30291WAT     H191115   5.322   9.793   2.508
30291WAT     H291116   5.373   9.652   2.574
30292WAT      O91117   7.530   3.820   5.599
30292WAT     H191118   7.436   3.800   5.627
30292WAT     H291119   7.533   3.911   5.556
30293WAT      O91120   6.279   7.736   8.461
30293WAT     H191121   6.377   7.716   8.458
30293WAT     H291122   6.257   7.806   8.394
30294WAT      O91123   9.345   4.635   6.081
30294WAT     H191124   9.434   4.598   6.109
30294WAT     H291125   9.340   4.637   5.981
30295WAT      O91126   5.536   7.951   7.838
30295WAT     H191127   5.536   8.032   7.780
30295WAT     H291128   5.595   7.881   7.798
30296WAT      O91129   6.036   1.459   3.343
30296WAT     H191130   6.026   1.381   3.281
30296WAT     H291131   6.009   1.543   3.296
30297WAT      O91132   7.402   6.809   6.711
30297WAT     H191133   7.415   6.710   6.707
30297WAT     H291134   7.304   6.830   6.707
30298WAT      O91135   3.315   2.487   1.375
30298WAT     H191136   3.255   2.414   1.342
30298WAT     H291137   3.298   2.501   1.473
30299WAT      O91138   2.475   5.589   2.791
30299WAT     H191139   2.494   5.519   2.859
30299WAT     H291140   2.464   5.547   2.701
30300WAT      O91141   1.359   9.402   6.290
30300WAT     H191142   1.379   9.310   6.256
30300WAT     H291143   1.332   9.460   6.213
30301WAT      O91144   5.387   7.076   6.823
30301WAT     H191145   5.311   7.103   6.883
30301WAT     H291146   5.473   7.106   6.863
30302WAT      O91147   5.462   3.210   1.247
30302WAT     H191148   5.538   3.254   1.199
30302WAT     H291149   5.412   3.150   1.184
30303WAT      O91150   5.888   3.567   1.449
30303WAT     H191151   5.984   3.543   1.433
30303WAT     H291152   5.856   3.625   1.374
30304WAT      O91153   1.442   9.449   5.091
30304WAT     H191154   1.542   9.457   5.085
30304WAT     H291155   1.415   9.431   5.185
30305WAT      O91156   0.400   3.501   9.451
30305WAT     H191157   0.440   3.421   9.496
30305WAT     H291158   0.448   3.517   9.365
30306WAT      O91159   1.888   4.915   5.458
30306WAT     H191160   1.930   4.866   5.382
30306WAT     H291161   1.788   4.905   5.453
30307WAT      O91162   4.409   6.332   0.249
30307WAT     H191163   4.393   6.431   0.255
30307WAT     H291164   4.488   6.314   0.190
30308WAT      O91165   3.322   0.831   4.799
30308WAT     H191166   3.293   0.776   4.720
30308WAT     H291167   3.344   0.770   4.875
30309WAT      O91168   1.810   6.600   4.171
30309WAT     H191169   1.820   6.640   4.262
30309WAT     H291170   1.735   6.535   4.172
30310WAT      O91171   4.793   0.687   0.231
30310WAT     H191172   4.802   0.729   0.321
30310WAT     H291173   4.833   0.596   0.232
30311WAT      O91174   3.476   8.121   1.541
30311WAT     H191175   3.490   8.103   1.638
30311WAT     H291176   3.554   8.087   1.489
30312WAT      O91177   6.562   8.329   8.800
30312WAT     H191178   6.577   8.339   8.898
30312WAT     H291179   6.651   8.317   8.754
30313WAT      O91180   0.948   8.041   1.664
30313WAT     H191181   0.913   8.122   1.618
30313WAT     H291182   1.041   8.059   1.697
30314WAT      O91183   7.611   8.327   4.117
30314WAT     H191184   7.682   8.380   4.070
30314WAT     H291185   7.574   8.258   4.055
30315WAT      O91186   2.943   4.611   4.538
30315WAT     H191187   2.899   4.602   4.449
30315WAT     H291188   3.030   4.562   4.538
30316WAT      O91189   1.389   8.248   5.818
30316WAT     H191190   1.435   8.334   5.842
30316WAT     H291191   1.437   8.172   5.860
30317WAT      O91192   7.680   4.618   7.711
30317WAT     H191193   7.648   4.550   7.778
30317WAT     H291194   7.703   4.703   7.758
30318WAT      O91195   8.759   7.535   2.829
30318WAT     H191196   8.734   7.632   2.826
30318WAT     H291197   8.687   7.482   2.784
30319WAT      O91198   4.279   7.049   0.851
30319WAT     H191199   4.230   6.967   0.881
30319WAT     H291200   4.352   7.022   0.788
30320WAT      O91201   1.758   4.561   6.638
30320WAT     H191202   1.761   4.556   6.738
30320WAT     H291203   1.763   4.468   6.600
30321WAT      O91204   4.307   5.880   9.636
30321WAT     H191205   4.393   5.869   9.688
30321WAT     H291206   4.230   5.854   9.694
30322WAT      O91207   5.347   8.630   5.961
30322WAT     H191208   5.291   8.630   6.044
30322WAT     H291209   5.310   8.697   5.896
30323WAT      O91210   2.502   0.662   4.794
30323WAT     H191211   2.466   0.632   4.706
30323WAT     H291212   2.487   0.760   4.804
30324WAT      O91213   1.573   7.370   7.062
30324WAT     H191214   1.544   7.357   7.156
30324WAT     H291215   1.526   7.304   7.003
30325WAT      O91216   4.545   4.181   3.831
30325WAT     H191217   4.604   4.109   3.795
30325WAT     H291218   4.449   4.158   3.814
30326WAT      O91219   0.292   7.278   1.596
30326WAT     H191220   0.310   7.199   1.655
30326WAT     H291221   0.375   7.301   1.546
30327WAT      O91222   9.290   0.359   2.014
30327WAT     H191223   9.240   0.445   2.010
30327WAT     H291224   9.362   0.359   1.946
30328WAT      O91225   4.773   7.959   9.676
30328WAT     H191226   4.779   8.057   9.656
30328WAT     H291227   4.733   7.946   9.767
30329WAT      O91228   7.666   2.802   5.208
30329WAT     H191229   7.684   2.751   5.124
30329WAT     H291230   7.568   2.821   5.215
30330WAT      O91231   1.236   9.686   7.046
30330WAT     H191232   1.330   9.711   7.070
30330WAT     H291233   1.235   9.591   7.015
30331WAT      O91234   6.105   5.330   0.146
30331WAT     H191235   6.160   5.303   0.225
30331WAT     H291236   6.058   5.250   0.109
30332WAT      O91237   4.361   2.570   4.563
30332WAT     H191238   4.378   2.508   4.639
30332WAT     H291239   4.354   2.517   4.478
30333WAT      O91240   5.914   0.215   6.858
30333WAT     H191241   5.956   0.126   6.837
30333WAT     H291242   5.941   0.281   6.788
30334WAT      O91243   2.495   9.163   1.274
30334WAT     H191244   2.447   9.075   1.283
30334WAT     H291245   2.433   9.237   1.298
30335WAT      O91246   9.735   3.541   1.649
30335WAT     H191247   9.690   3.492   1.724
30335WAT     H291248   9.818   3.491   1.622
30336WAT      O91249   8.173   3.528   6.833
30336WAT     H191250   8.159   3.432   6.859
30336WAT     H291251   8.137   3.588   6.904
30337WAT      O91252   6.892   4.910   6.214
30337WAT     H191253   6.987   4.878   6.211
30337WAT     H291254   6.849   4.877   6.298
30338WAT      O91255   2.846   4.644   2.602
30338WAT     H191256   2.923   4.678   2.656
30338WAT     H291257   2.875   4.633   2.506
30339WAT      O91258   3.505   5.574   8.563
30339WAT     H191259   3.541   5.509   8.496
30339WAT     H291260   3.406   5.582   8.551
30340WAT      O91261   1.252   0.649   4.847
30340WAT     H191262   1.237   0.563   4.799
30340WAT     H291263   1.188   0.718   4.813
30341WAT      O91264   5.800   4.673   2.460
30341WAT     H191265   5.790   4.766   2.423
30341WAT     H291266   5.726   4.616   2.424
30342WAT      O91267   2.192   1.762   7.207
30342WAT     H191268   2.119   1.702   7.240
30342WAT     H291269   2.281   1.724   7.232
30343WAT      O91270   9.310   7.630   7.764
30343WAT     H191271   9.389   7.582   7.727
30343WAT     H291272   9.238   7.636   7.695
30344WAT      O91273   1.013   1.719   2.432
30344WAT     H191274   1.012   1.708   2.531
30344WAT     H291275   1.046   1.810   2.408
30345WAT      O91276   8.978   7.954   6.358
30345WAT     H191277   8.911   7.897   6.406
30345WAT     H291278   9.018   8.019   6.423
30346WAT      O91279   5.106   1.541   6.168
30346WAT     H191280   5.066   1.604   6.101
30346WAT     H291281   5.172   1.481   6.122
30347WAT      O91282   2.904   2.403   9.687
30347WAT     H191283   2.860   2.486   9.723
30347WAT     H291284   2.990   2.388   9.735
30348WAT      O91285   0.121   2.800   2.779
30348WAT     H191286   0.047   2.770   2.719
30348WAT     H291287   0.083   2.854   2.854
30349WAT      O91288   8.169   1.058   7.583
30349WAT     H191289   8.134   1.032   7.493
30349WAT     H291290   8.110   1.018   7.654
30350WAT      O91291   5.919   8.837   7.487
30350WAT     H191292   5.925   8.905   7.560
30350WAT     H291293   5.865   8.759   7.519
30351WAT      O91294   8.708   8.320   7.668
30351WAT     H191295   8.785   8.321   7.732
30351WAT     H291296   8.624   8.342   7.717
30352WAT      O91297   2.402   0.163   4.886
30352WAT     H191298   2.466   0.088   4.872
30352WAT     H291299   2.320   0.148   4.829
30353WAT      O91300   7.188   3.465   0.606
30353WAT     H191301   7.218   3.558   0.625
30353WAT     H291302   7.255   3.419   0.548
30354WAT      O91303   8.521   3.734   3.614
30354WAT     H191304   8.576   3.802   3.661
30354WAT     H291305   8.577   3.687   3.545
30355WAT      O91306   9.279   8.473   9.031
30355WAT     H191307   9.239   8.413   8.962
30355WAT     H291308   9.229   8.560   9.033
30356WAT      O91309   7.667   9.541   7.252
30356WAT     H191310   7.596   9.501   7.308
30356WAT     H291311   7.743   9.571   7.310
30357WAT      O91312   6.342   6.037   4.583
30357WAT     H191313   6.258   5.990   4.557
30357WAT     H291314   6.420   5.975   4.574
30358WAT      O91315   3.605   9.308   7.835
30358WAT     H191316   3.573   9.267   7.920
30358WAT     H291317   3.693   9.352   7.850
30359WAT      O91318   1.083   2.696   0.234
30359WAT     H191319   1.093   2.597   0.240
30359WAT     H291320   0.996   2.723   0.277
30360WAT      O91321   3.707   6.156   3.927
30360WAT     H191322   3.737   6.064   3.951
30360WAT     H291323   3.638   6.152   3.855
30361WAT      O91324   0.446   3.373   3.920
30361WAT     H191325   0.517   3.318   3.963
30361WAT     H291326   0.419   3.331   3.833
30362WAT      O91327   7.234   1.567   7.058
30362WAT     H191328   7.236   1.587   6.960
30362WAT     H291329   7.205   1.472   7.073
30363WAT      O91330   9.786   1.840   9.155
30363WAT     H191331   9.753   1.913   9.096
30363WAT     H291332   9.795   1.874   9.249
30364WAT      O91333   2.794   6.431   0.818
30364WAT     H191334   2.709   6.451   0.868
30364WAT     H291335   2.772   6.401   0.726
30365WAT      O91336   6.513   2.744   7.901
30365WAT     H191337   6.512   2.823   7.961
30365WAT     H291338   6.603   2.701   7.904
30366WAT      O91339   2.479   8.244   8.418
30366WAT     H191340   2.448   8.264   8.510
30366WAT     H291341   2.529   8.157   8.417
30367WAT      O91342   8.353   5.727   4.714
30367WAT     H191343   8.374   5.686   4.802
30367WAT     H291344   8.382   5.666   4.640
30368WAT      O91345   0.219   8.148   1.927
30368WAT     H191346   0.244   8.176   2.019
30368WAT     H291347   0.225   8.048   1.919
30369WAT      O91348   1.532   1.354   3.039
30369WAT     H191349   1.595   1.324   2.967
30369WAT     H291350   1.575   1.428   3.091
30370WAT      O91351   6.454   8.418   6.482
30370WAT     H191352   6.420   8.510   6.498
30370WAT     H291353   6.437   8.392   6.387
30371WAT      O91354   4.571   3.319   6.032
30371WAT     H191355   4.569   3.394   6.098
30371WAT     H291356   4.497   3.255   6.052
30372WAT      O91357   6.301   6.344   6.134
30372WAT     H191358   6.202   6.337   6.121
30372WAT     H291359   6.335   6.261   6.177
30373WAT      O91360   5.479   6.052   2.579
30373WAT     H191361   5.397   5.995   2.571
30373WAT     H291362   5.502   6.065   2.676
30374WAT      O91363   4.708   8.279   8.850
30374WAT     H191364   4.768   8.209   8.811
30374WAT     H291365   4.613   8.249   8.843
30375WAT      O91366   6.363   3.858   7.139
30375WAT     H191367   6.326   3.939   7.186
30375WAT     H291368   6.383   3.787   7.206
30376WAT      O91369   1.862   7.440   1.571
30376WAT     H191370   1.923   7.498   1.517
30376WAT     H291371   1.835   7.489   1.654
30377WAT      O91372   4.269   3.837   4.108
30377WAT     H191373   4.267   3.837   4.208
30377WAT     H291374   4.222   3.918   4.073
30378WAT      O91375   7.584   4.806   7.001
30378WAT     H191376   7.674   4.806   6.956
30378WAT     H291377   7.528   4.879   6.962
30379WAT      O91378   0.958   7.033   9.780
30379WAT     H191379   0.950   6.981   9.695
30379WAT     H291380   0.911   6.985   9.853
30380WAT      O91381   9.017   8.070   4.966
30380WAT     H191382   9.071   7.990   4.993
30380WAT     H291383   8.921   8.043   4.957
30381WAT      O91384   0.582   4.655   3.994
30381WAT     H191385   0.578   4.604   4.080
30381WAT     H291386   0.615   4.596   3.921
30382WAT      O91387   1.298   4.951   2.992
30382WAT     H191388   1.385   4.981   3.029
30382WAT     H291389   1.242   4.911   3.065
30383WAT      O91390   8.959   5.159   2.088
30383WAT     H191391   8.891   5.155   2.015
30383WAT     H291392   8.922   5.210   2.166
30384WAT      O91393   9.742   2.720   7.779
30384WAT     H191394   9.835   2.684   7.789
30384WAT     H291395   9.679   2.644   7.760
30385WAT      O91396   9.018   2.591   9.360
30385WAT     H191397   8.945   2.588   9.427
30385WAT     H291398   9.073   2.507   9.366
30386WAT      O91399   8.633   8.326   2.654
30386WAT     H191400   8.536   8.314   2.636
30386WAT     H291401   8.645   8.372   2.743
30387WAT      O91402   8.761   7.191   2.709
30387WAT     H191403   8.851   7.234   2.697
30387WAT     H291404   8.774   7.096   2.740
30388WAT      O91405   0.352   5.175   4.381
30388WAT     H191406   0.399   5.260   4.360
30388WAT     H291407   0.398   5.128   4.456
30389WAT      O91408   4.613   6.216   7.111
30389WAT     H191409   4.672   6.138   7.134
30389WAT     H291410   4.535   6.219   7.174
30390WAT      O91411   1.612   7.772   7.157
30390WAT     H191412   1.709   7.794   7.145
30390WAT     H291413   1.592   7.760   7.254
30391WAT      O91414   4.804   5.121   2.918
30391WAT     H191415   4.890   5.098   2.872
30391WAT     H291416   4.733   5.058   2.888
30392WAT      O91417   2.365   1.728   5.097
30392WAT     H191418   2.381   1.678   5.182
30392WAT     H291419   2.342   1.823   5.119
30393WAT      O91420   2.392   5.932   8.575
30393WAT     H191421   2.450   5.859   8.611
30393WAT     H291422   2.450   6.002   8.531
30394WAT      O91423   6.863   7.985   3.035
30394WAT     H191424   6.890   7.978   3.131
30394WAT     H291425   6.934   8.031   2.983
30395WAT      O91426   6.710   4.418   0.859
30395WAT     H191427   6.764   4.483   0.805
30395WAT     H291428   6.656   4.361   0.797
30396WAT      O91429   8.236   0.850   1.041
30396WAT     H191430   8.314   0.829   1.100
30396WAT     H291431   8.201   0.941   1.063
30397WAT      O91432   0.919   1.936   3.823
30397WAT     H191433   0.910   1.994   3.743
30397WAT     H291434   1.006   1.953   3.868
30398WAT      O91435   0.357   2.930   0.235
30398WAT     H191436   0.320   2.998   0.173
30398WAT     H291437   0.344   2.960   0.329
30399WAT      O91438   7.613   4.596   8.134
30399WAT     H191439   7.707   4.590   8.102
30399WAT     H291440   7.602   4.680   8.188
30400WAT      O91441   4.970   6.832   5.133
30400WAT     H191442   4.967   6.732   5.139
30400WAT     H291443   4.904   6.864   5.065
30401WAT      O91444   6.901   5.171   6.403
30401WAT     H191445   6.892   5.124   6.315
30401WAT     H291446   6.908   5.269   6.388
30402WAT      O91447   5.264   7.887   9.632
30402WAT     H191448   5.180   7.848   9.670
30402WAT     H291449   5.312   7.938   9.704
30403WAT      O91450   9.141   0.434   3.250
30403WAT     H191451   9.223   0.380   3.232
30403WAT     H291452   9.139   0.513   3.190
30404WAT      O91453   2.197   5.474   2.966
30404WAT     H191454   2.218   5.417   2.886
30404WAT     H291455   2.281   5.494   3.015
30405WAT      O91456   3.696   1.212   1.369
30405WAT     H191457   3.763   1.189   1.440
30405WAT     H291458   3.683   1.311   1.366
30406WAT      O91459   8.370   3.965   9.746
30406WAT     H191460   8.428   3.920   9.814
30406WAT     H291461   8.343   3.898   9.676
30407WAT      O91462   7.098   5.262   9.202
30407WAT     H191463   7.107   5.171   9.242
30407WAT     H291464   7.020   5.263   9.139
30408WAT      O91465   7.536   7.052   9.765
30408WAT     H191466   7.590   6.974   9.736
30408WAT     H291467   7.441   7.040   9.734
30409WAT      O91468   9.398   6.348   3.024
30409WAT     H191469   9.471   6.393   2.972
30409WAT     H291470   9.324   6.414   3.041
30410WAT      O91471   1.421   6.385   5.964
30410WAT     H191472   1.347   6.393   5.897
30410WAT     H291473   1.420   6.464   6.025
30411WAT      O91474   2.233   0.063   6.721
30411WAT     H191475   2.212   0.051   6.624
30411WAT     H291476   2.258   0.158   6.739
30412WAT      O91477   8.265   3.977   8.034
30412WAT     H191478   8.186   3.957   8.091
30412WAT     H291479   8.240   3.969   7.937
30413WAT      O91480   8.856   3.012   9.165
30413WAT     H191481   8.869   3.110   9.182
30413WAT     H291482   8.779   3.000   9.102
30414WAT      O91483   0.986   0.047   3.435
30414WAT     H191484   0.984  -0.044   3.393
30414WAT     H291485   1.058   0.101   3.393
30415WAT      O91486   6.018   2.324   8.381
30415WAT     H191487   5.997   2.256   8.311
30415WAT     H291488   6.117   2.328   8.395
30416WAT      O91489   3.745   4.551   4.632
30416WAT     H191490   3.809   4.492   4.681
30416WAT     H291491   3.759   4.646   4.660
30417WAT      O91492   5.461   2.382   7.903
30417WAT     H191493   5.398   2.456   7.879
30417WAT     H291494   5.507   2.403   7.989
30418WAT      O91495   4.352   3.213   7.168
30418WAT     H191496   4.436   3.237   7.119
30418WAT     H291497   4.372   3.206   7.266
30419WAT      O91498   6.429   9.730   8.055
30419WAT     H191499   6.430   9.704   7.959
30419WAT     H291500   6.350   9.688   8.100
30420WAT      O91501   7.208   2.276   9.114
30420WAT     H191502   7.296   2.316   9.088
30420WAT     H291503   7.221   2.181   9.144
30421WAT      O91504   1.905   4.696   9.254
30421WAT     H191505   1.984   4.698   9.193
30421WAT     H291506   1.838   4.630   9.220
30422WAT      O91507   0.337   0.065   0.940
30422WAT     H191508   0.294  -0.022   0.918
30422WAT     H291509   0.343   0.121   0.858
30423WAT      O91510   9.851   3.361   2.531
30423WAT     H191511   9.904   3.291   2.484
30423WAT     H291512   9.785   3.401   2.467
30424WAT      O91513   6.800   1.214   1.866
30424WAT     H191514   6.839   1.286   1.807
30424WAT     H291515   6.734   1.160   1.814
30425WAT      O91516   2.551   8.757   4.767
30425WAT     H191517   2.545   8.800   4.857
30425WAT     H291518   2.488   8.680   4.763
30426WAT      O91519   4.709   3.748   7.709
30426WAT     H191520   4.737   3.823   7.649
30426WAT     H291521   4.616   3.719   7.685
30427WAT      O91522   5.740   3.041   2.681
30427WAT     H191523   5.719   2.950   2.646
30427WAT     H291524   5.717   3.109   2.612
30428WAT      O91525   4.445   8.785   2.128
30428WAT     H191526   4.487   8.876   2.132
30428WAT     H291527   4.436   8.749   2.221
30429WAT      O91528   1.504   2.947   4.852
30429WAT     H191529   1.412   2.985   4.864
30429WAT     H291530   1.518   2.924   4.756
30430WAT      O91531   7.115   5.173   0.684
30430WAT     H191532   7.211   5.160   0.659
30430WAT     H291533   7.061   5.096   0.650
30431WAT      O91534   1.399   1.185   6.637
30431WAT     H191535   1.335   1.110   6.618
30431WAT     H291536   1.356   1.250   6.700
30432WAT      O91537   3.466   5.534   3.455
30432WAT     H191538   3.564   5.539   3.471
30432WAT     H291539   3.417   5.556   3.540
30433WAT      O91540   3.578   2.457   3.969
30433WAT     H191541   3.635   2.483   4.047
30433WAT     H291542   3.629   2.474   3.884
30434WAT      O91543   8.319   5.280   7.746
30434WAT     H191544   8.343   5.311   7.654
30434WAT     H291545   8.392   5.306   7.809
30435WAT      O91546   4.387   7.819   2.777
30435WAT     H191547   4.404   7.895   2.840
30435WAT     H291548   4.451   7.825   2.700
30436WAT      O91549   5.709   5.449   7.868
30436WAT     H191550   5.808   5.438   7.860
30436WAT     H291551   5.689   5.515   7.941
30437WAT      O91552   2.873   6.426   1.794
30437WAT     H191553   2.909   6.428   1.701
30437WAT     H291554   2.944   6.393   1.856
30438WAT      O91555   4.651   4.131   7.738
30438WAT     H191556   4.611   4.222   7.746
30438WAT     H291557   4.624   4.091   7.650
30439WAT      O91558   2.216   2.454   7.898
30439WAT     H191559   2.301   2.401   7.896
30439WAT     H291560   2.139   2.394   7.921
30440WAT      O91561   7.113   9.697   0.823
30440WAT     H191562   7.104   9.611   0.872
30440WAT     H291563   7.182   9.754   0.869
30441WAT      O91564   4.835   7.963   7.450
30441WAT     H191565   4.834   8.008   7.539
30441WAT     H291566   4.835   7.864   7.463
30442WAT      O91567   5.098   0.841   7.994
30442WAT     H191568   5.150   0.899   7.930
30442WAT     H291569   5.100   0.747   7.961
30443WAT      O91570   2.239   0.125   3.240
30443WAT     H191571   2.206   0.100   3.149
30443WAT     H291572   2.173   0.187   3.283
30444WAT      O91573   5.798   7.979   8.980
30444WAT     H191574   5.838   8.048   9.040
30444WAT     H291575   5.870   7.916   8.949
30445WAT      O91576   2.642   6.189   3.434
30445WAT     H191577   2.608   6.223   3.521
30445WAT     H291578   2.645   6.264   3.367
30446WAT      O91579   3.535   5.580   3.886
30446WAT     H191580   3.615   5.593   3.945
30446WAT     H291581   3.452   5.585   3.940
30447WAT      O91582   6.508   4.534   4.664
30447WAT     H191583   6.541   4.575   4.579
30447WAT     H291584   6.535   4.591   4.742
30448WAT      O91585   6.480   3.140   9.135
30448WAT     H191586   6.401   3.105   9.084
30448WAT     H291587   6.521   3.065   9.187
30449WAT      O91588   3.176   0.338   8.424
30449WAT     H191589   3.146   0.429   8.394
30449WAT     H291590   3.258   0.346   8.481
30450WAT      O91591   3.225   3.562   0.993
30450WAT     H191592   3.216   3.651   0.949
30450WAT     H291593   3.299   3.511   0.949
30451WAT      O91594   1.627   5.981   8.579
30451WAT     H191595   1.708   5.934   8.545
30451WAT     H291596   1.616   6.069   8.533
30452WAT      O91597   1.513   5.317   8.411
30452WAT     H191598   1.503   5.392   8.346
30452WAT     H291599   1.425   5.271   8.423
30453WAT      O91600   5.489   1.469   7.098
30453WAT     H191601   5.563   1.428   7.044
30453WAT     H291602   5.516   1.561   7.126
30454WAT      O91603   0.222   7.798   6.531
30454WAT     H191604   0.128   7.797   6.565
30454WAT     H291605   0.285   7.816   6.606
30455WAT      O91606   5.607   4.312   6.161
30455WAT     H191607   5.553   4.391   6.188
30455WAT     H291608   5.600   4.241   6.232
30456WAT      O91609   8.258   5.862   2.074
30456WAT     H191610   8.195   5.786   2.058
30456WAT     H291611   8.302   5.849   2.163
30457WAT      O91612   8.329   5.888   2.356
30457WAT     H191613   8.378   5.957   2.409
30457WAT     H291614   8.384   5.805   2.349
30458WAT      O91615   6.241   9.194   6.423
30458WAT     H191616   6.180   9.200   6.344
30458WAT     H291617   6.309   9.123   6.407
30459WAT      O91618   6.003   5.383   3.684
30459WAT     H191619   5.975   5.376   3.780
30459WAT     H291620   6.097   5.416   3.679
30460WAT      O91621   3.120   5.826   9.889
30460WAT     H191622   3.169   5.846   9.804
30460WAT     H291623   3.118   5.909   9.945
30461WAT      O91624   1.722   0.942   2.838
30461WAT     H191625   1.763   0.919   2.750
30461WAT     H291626   1.638   0.890   2.851
30462WAT      O91627   0.101   1.228   2.031
30462WAT     H191628   0.090   1.323   2.000
30462WAT     H291629   0.172   1.224   2.102
30463WAT      O91630   8.999   3.418   9.442
30463WAT     H191631   9.037   3.496   9.393
30463WAT     H291632   9.011   3.431   9.541
30464WAT      O91633   7.005   2.207   4.672
30464WAT     H191634   6.925   2.264   4.691
30464WAT     H291635   7.080   2.266   4.642
30465WAT      O91636   2.779   9.221   7.037
30465WAT     H191637   2.822   9.293   6.983
30465WAT     H291638   2.785   9.244   7.134
30466WAT      O91639   1.107   2.002   8.818
30466WAT     H191640   1.129   1.913   8.778
30466WAT     H291641   1.105   2.071   8.745
30467WAT      O91642   0.092   4.497   1.178
30467WAT     H191643   0.135   4.565   1.119
30467WAT     H291644   0.037   4.544   1.247
30468WAT      O91645   1.752   8.163   3.695
30468WAT     H191646   1.689   8.167   3.773
30468WAT     H291647   1.740   8.244   3.638
30469WAT      O91648   3.345   3.731   9.328
30469WAT     H191649   3.362   3.652   9.388
30469WAT     H291650   3.257   3.719   9.282
30470WAT      O91651   8.038   9.518   3.167
30470WAT     H191652   8.006   9.517   3.262
30470WAT     H291653   8.119   9.575   3.160
30471WAT      O91654   9.666   0.677   5.225
30471WAT     H191655   9.713   0.714   5.305
30471WAT     H291656   9.637   0.753   5.166
30472WAT      O91657   9.074   4.076   0.401
30472WAT     H191658   9.087   4.087   0.303
30472WAT     H291659   8.994   4.019   0.419
30473WAT      O91660   7.538   5.605   3.239
30473WAT     H191661   7.476   5.596   3.161
30473WAT     H291662   7.577   5.697   3.240
30474WAT      O91663   5.799   8.249   1.328
30474WAT     H191664   5.830   8.206   1.413
30474WAT     H291665   5.874   8.252   1.262
30475WAT      O91666   5.003   0.576   3.300
30475WAT     H191667   4.922   0.633   3.315
30475WAT     H291668   5.059   0.617   3.228
30476WAT      O91669   1.471   7.417   2.319
30476WAT     H191670   1.375   7.443   2.321
30476WAT     H291671   1.506   7.409   2.412
30477WAT      O91672   8.284   9.028   5.131
30477WAT     H191673   8.198   9.079   5.136
30477WAT     H291674   8.265   8.932   5.114
30478WAT      O91675   5.799   1.421   1.345
30478WAT     H191676   5.729   1.391   1.280
30478WAT     H291677   5.831   1.512   1.320
30479WAT      O91678   0.388   7.999   7.323
30479WAT     H191679   0.448   8.005   7.403
30479WAT     H291680   0.442   7.971   7.243
30480WAT      O91681   2.567   1.998   7.514
30480WAT     H191682   2.604   2.081   7.473
30480WAT     H291683   2.482   1.973   7.468
30481WAT      O91684   4.727   3.042   3.451
30481WAT     H191685   4.653   3.019   3.515
30481WAT     H291686   4.697   3.024   3.358
30482WAT      O91687   8.646   5.445   0.689
30482WAT     H191688   8.575   5.444   0.759
30482WAT     H291689   8.649   5.536   0.646
30483WAT      O91690   7.099   6.132   2.436
30483WAT     H191691   7.165   6.087   2.496
30483WAT     H291692   7.098   6.230   2.455
30484WAT      O91693   7.500   4.865   2.762
30484WAT     H191694   7.487   4.807   2.682
30484WAT     H291695   7.594   4.900   2.762
30485WAT      O91696   4.209   6.746   2.109
30485WAT     H191697   4.235   6.826   2.163
30485WAT     H291698   4.230   6.762   2.013
30486WAT      O91699   3.928   1.299   6.102
30486WAT     H191700   3.966   1.379   6.055
30486WAT     H291701   3.978   1.217   6.074
30487WAT      O91702   8.257   2.622   0.066
30487WAT     H191703   8.162   2.591   0.070
30487WAT     H291704   8.310   2.580   0.140
30488WAT      O91705   3.074   6.333   0.234
30488WAT     H191706   3.116   6.392   0.165
30488WAT     H291707   3.111   6.356   0.324
30489WAT      O91708   5.738   6.654   2.114
30489WAT     H191709   5.647   6.689   2.092
30489WAT     H291710   5.730   6.573   2.172
30490WAT      O91711   3.329   4.585   1.580
30490WAT     H191712   3.416   4.538   1.568
30490WAT     H291713   3.345   4.673   1.624
30491WAT      O91714   8.411   2.016   0.726
30491WAT     H191715   8.388   1.991   0.632
30491WAT     H291716   8.490   1.962   0.756
30492WAT      O91717   5.606   3.905   9.215
30492WAT     H191718   5.541   3.900   9.291
30492WAT     H291719   5.596   3.992   9.167
30493WAT      O91720   2.943   6.401   3.177
30493WAT     H191721   3.012   6.334   3.203
30493WAT     H291722   2.852   6.365   3.195
30494WAT      O91723   1.710   4.474   4.899
30494WAT     H191724   1.614   4.448   4.909
30494WAT     H291725   1.765   4.426   4.967
30495WAT      O91726   0.300   8.415   9.016
30495WAT     H191727   0.397   8.395   9.024
30495WAT     H291728   0.269   8.465   9.097
30496WAT      O91729   3.933   5.248   0.959
30496WAT     H191730   3.983   5.161   0.962
30496WAT     H291731   3.852   5.239   0.901
30497WAT      O91732   9.526   9.683   0.862
30497WAT     H191733   9.623   9.699   0.841
30497WAT     H291734   9.498   9.742   0.937
30498WAT      O91735   5.488   8.437   9.580
30498WAT     H191736   5.515   8.341   9.583
30498WAT     H291737   5.566   8.495   9.605
30499WAT      O91738   6.601   4.763   7.995
30499WAT     H191739   6.586   4.856   8.028
30499WAT     H291740   6.513   4.717   7.983
30500WAT      O91741   4.561   1.021   6.818
30500WAT     H191742   4.484   1.077   6.787
30500WAT     H291743   4.555   0.930   6.776
30501WAT      O91744   7.016   9.271   0.130
30501WAT     H191745   7.048   9.242   0.040
30501WAT     H291746   6.923   9.237   0.145
30502WAT      O91747   2.971   8.998   0.590
30502WAT     H191748   2.984   9.095   0.612
30502WAT     H291749   2.936   8.989   0.497
30503WAT      O91750   5.113   5.805   6.405
30503WAT     H191751   5.117   5.705   6.404
30503WAT     H291752   5.095   5.838   6.312
30504WAT      O91753   9.004   3.422   6.174
30504WAT     H191754   9.077   3.435   6.241
30504WAT     H291755   8.994   3.324   6.154
30505WAT      O91756   0.787   3.925   6.685
30505WAT     H191757   0.748   3.929   6.778
30505WAT     H291758   0.768   4.010   6.637
30506WAT      O91759   0.154   6.830   3.243
30506WAT     H191760   0.210   6.754   3.209
30506WAT     H291761   0.057   6.803   3.243
30507WAT      O91762   9.346   7.484   8.318
30507WAT     H191763   9.309   7.559   8.374
30507WAT     H291764   9.352   7.513   8.223
30508WAT      O91765   7.560   8.990   1.302
30508WAT     H191766   7.544   9.063   1.236
30508WAT     H291767   7.476   8.972   1.354
30509WAT      O91768   9.449   1.521   4.199
30509WAT     H191769   9.393   1.602   4.219
30509WAT     H291770   9.439   1.496   4.103
30510WAT      O91771   8.348   9.403   9.519
30510WAT     H191772   8.300   9.340   9.458
30510WAT     H291773   8.443   9.374   9.530
30511WAT      O91774   6.628   5.873   6.086
30511WAT     H191775   6.604   5.942   6.018
30511WAT     H291776   6.688   5.805   6.045
30512WAT      O91777   4.956   3.418   3.605
30512WAT     H191778   5.006   3.475   3.671
30512WAT     H291779   4.869   3.461   3.583
30513WAT      O91780   7.834   3.771   6.624
30513WAT     H191781   7.927   3.742   6.603
30513WAT     H291782   7.794   3.709   6.691
30514WAT      O91783   5.108   3.183   0.732
30514WAT     H191784   5.195   3.143   0.703
30514WAT     H291785   5.104   3.186   0.832
30515WAT      O91786   4.483   7.257   5.950
30515WAT     H191787   4.467   7.347   5.910
30515WAT     H291788   4.408   7.196   5.927
30516WAT      O91789   0.387   0.814   7.036
30516WAT     H191790   0.318   0.757   6.992
30516WAT     H291791   0.398   0.786   7.131
30517WAT      O91792   6.809   3.527   5.342
30517WAT     H191793   6.752   3.606   5.318
30517WAT     H291794   6.750   3.449   5.364
30518WAT      O91795   5.776   9.395   1.555
30518WAT     H191796   5.837   9.410   1.633
30518WAT     H291797   5.682   9.387   1.587
30519WAT      O91798   4.637   1.223   5.075
30519WAT     H191799   4.631   1.249   5.171
30519WAT     H291800   4.723   1.174   5.058
30520WAT      O91801   1.772   6.861   8.910
30520WAT     H191802   1.822   6.775   8.913
30520WAT     H291803   1.695   6.857   8.973
30521WAT      O91804   0.113   2.921   5.259
30521WAT     H191805   0.016   2.945   5.264
30521WAT     H291806   0.123   2.822   5.253
30522WAT      O91807   1.476   6.147   5.071
30522WAT     H191808   1.567   6.149   5.112
30522WAT     H291809   1.411   6.107   5.136
30523WAT      O91810   0.288   5.126   6.414
30523WAT     H191811   0.235   5.124   6.498
30523WAT     H291812   0.275   5.040   6.364
30524WAT      O91813   8.935   7.484   7.400
30524WAT     H191814   8.908   7.518   7.490
30524WAT     H291815   8.964   7.561   7.343
30525WAT      O91816   5.704   0.019   4.977
30525WAT     H191817   5.781  -0.041   5.000
30525WAT     H291818   5.661  -0.012   4.893
30526WAT      O91819   2.728   2.757   9.433
30526WAT     H191820   2.761   2.733   9.525
30526WAT     H291821   2.640   2.712   9.417
30527WAT      O91822   5.191   7.473   5.272
30527WAT     H191823   5.108   7.425   5.244
30527WAT     H291824   5.170   7.570   5.285
30528WAT      O91825   2.796   7.123   0.625
30528WAT     H191826   2.739   7.134   0.706
30528WAT     H291827   2.778   7.198   0.561
30529WAT      O91828   0.822   2.117   2.895
30529WAT     H191829   0.749   2.185   2.895
30529WAT     H291830   0.832   2.077   2.804
30530WAT      O91831   4.836   4.359   0.924
30530WAT     H191832   4.927   4.347   0.884
30530WAT     H291833   4.824   4.453   0.954
30531WAT      O91834   6.059   5.877   8.115
30531WAT     H191835   6.144   5.853   8.161
30531WAT     H291836   6.037   5.973   8.134
30532WAT      O91837   2.174   4.848   9.670
30532WAT     H191838   2.188   4.758   9.710
30532WAT     H291839   2.114   4.840   9.590
30533WAT      O91840   2.810   4.557   4.274
30533WAT     H191841   2.728   4.614   4.285
30533WAT     H291842   2.797   4.470   4.321
30534WAT      O91843   9.330   8.613   9.744
30534WAT     H191844   9.423   8.650   9.740
30534WAT     H291845   9.316   8.547   9.671
30535WAT      O91846   3.289   5.603   2.154
30535WAT     H191847   3.344   5.644   2.227
30535WAT     H291848   3.276   5.669   2.081
30536WAT      O91849   8.794   2.246   6.968
30536WAT     H191850   8.824   2.160   7.010
30536WAT     H291851   8.768   2.311   7.040
30537WAT      O91852   7.023   4.565   1.063
30537WAT     H191853   6.981   4.626   0.996
30537WAT     H291854   6.964   4.485   1.077
30538WAT      O91855   1.882   1.748   9.786
30538WAT     H191856   1.825   1.778   9.863
30538WAT     H291857   1.856   1.655   9.760
30539WAT      O91858   9.585   4.077   7.187
30539WAT     H191859   9.674   4.032   7.177
30539WAT     H291860   9.515   4.007   7.205
30540WAT      O91861   5.339   4.845   3.786
30540WAT     H191862   5.274   4.860   3.860
30540WAT     H291863   5.316   4.760   3.739
30541WAT      O91864   1.501   4.208   0.276
30541WAT     H191865   1.569   4.252   0.333
30541WAT     H291866   1.466   4.127   0.323
30542WAT      O91867   5.034   9.567   6.912
30542WAT     H191868   5.061   9.644   6.971
30542WAT     H291869   4.996   9.494   6.968
30543WAT      O91870   5.302   2.758   1.016
30543WAT     H191871   5.290   2.668   0.972
30543WAT     H291872   5.389   2.760   1.064
30544WAT      O91873   5.054   6.157   2.001
30544WAT     H191874   5.134   6.101   1.979
30544WAT     H291875   4.998   6.169   1.919
30545WAT      O91876   2.562   4.595   2.556
30545WAT     H191877   2.523   4.679   2.519
30545WAT     H291878   2.662   4.600   2.551
30546WAT      O91879   2.270   5.136   0.136
30546WAT     H191880   2.170   5.142   0.136
30546WAT     H291881   2.300   5.081   0.058
30547WAT      O91882   4.429   5.031   4.996
30547WAT     H191883   4.338   4.990   5.005
30547WAT     H291884   4.498   4.960   5.008
30548WAT      O91885   6.841   0.610   1.213
30548WAT     H191886   6.786   0.556   1.150
30548WAT     H291887   6.813   0.592   1.307
30549WAT      O91888   7.284   3.023   2.373
30549WAT     H191889   7.267   3.058   2.280
30549WAT     H291890   7.379   3.041   2.398
30550WAT      O91891   5.725   4.925   6.695
30550WAT     H191892   5.770   4.848   6.740
30550WAT     H291893   5.654   4.891   6.633
30551WAT      O91894   0.403   3.063   4.770
30551WAT     H191895   0.479   3.022   4.720
30551WAT     H291896   0.365   3.139   4.717
30552WAT      O91897   5.058   4.895   1.745
30552WAT     H191898   5.097   4.933   1.661
30552WAT     H291899   5.127   4.895   1.817
30553WAT      O91900   5.891   8.134   5.539
30553WAT     H191901   5.863   8.139   5.635
30553WAT     H291902   5.971   8.192   5.524
30554WAT      O91903   5.551   4.710   6.860
30554WAT     H191904   5.500   4.796   6.856
30554WAT     H291905   5.642   4.728   6.898
30555WAT      O91906   9.473   1.406   3.951
30555WAT     H191907   9.573   1.400   3.949
30555WAT     H291908   9.441   1.455   3.871
30556WAT      O91909   5.591   5.288   8.497
30556WAT     H191910   5.518   5.309   8.432
30556WAT     H291911   5.562   5.313   8.590
30557WAT      O91912   7.057   0.916   1.414
30557WAT     H191913   7.073   0.860   1.496
30557WAT     H291914   7.145   0.943   1.375
30558WAT      O91915   4.595   3.521   2.520
30558WAT     H191916   4.537   3.556   2.447
30558WAT     H291917   4.553   3.539   2.608
30559WAT      O91918   1.406   3.370   1.866
30559WAT     H191919   1.443   3.463   1.865
30559WAT     H291920   1.476   3.306   1.835
30560WAT      O91921   5.205   2.570   3.768
30560WAT     H191922   5.240   2.527   3.685
30560WAT     H291923   5.214   2.506   3.845
30561WAT      O91924   6.612   9.555   5.060
30561WAT     H191925   6.643   9.474   5.011
30561WAT     H291926   6.646   9.638   5.015
30562WAT      O91927   4.091   4.486   2.175
30562WAT     H191928   4.066   4.576   2.211
30562WAT     H291929   4.009   4.428   2.170
30563WAT      O91930   5.812   2.524   4.167
30563WAT     H191931   5.731   2.534   4.110
30563WAT     H291932   5.887   2.578   4.129
30564WAT      O91933   0.040   2.972   7.124
30564WAT     H191934  -0.043   3.012   7.085
30564WAT     H291935   0.050   2.878   7.090
30565WAT      O91936   7.655   9.031   1.755
30565WAT     H191937   7.620   8.973   1.828
30565WAT     H291938   7.726   8.982   1.705
30566WAT      O91939   0.257   6.999   3.424
30566WAT     H191940   0.226   7.094   3.431
30566WAT     H291941   0.203   6.952   3.354
30567WAT      O91942   2.962   0.126   9.272
30567WAT     H191943   2.949   0.065   9.193
30567WAT     H291944   2.904   0.094   9.347
30568WAT      O91945   0.967   7.376   2.488
30568WAT     H191946   0.949   7.348   2.582
30568WAT     H291947   0.884   7.366   2.433
30569WAT      O91948   7.342   5.544   2.126
30569WAT     H191949   7.272   5.609   2.155
30569WAT     H291950   7.330   5.458   2.176
30570WAT      O91951   1.573   3.799   7.832
30570WAT     H191952   1.673   3.792   7.836
30570WAT     H291953   1.545   3.893   7.850
30571WAT      O91954   1.580   7.600   6.128
30571WAT     H191955   1.661   7.624   6.182
30571WAT     H291956   1.552   7.679   6.074
30572WAT      O91957   1.897   5.626   0.418
30572WAT     H191958   1.841   5.554   0.377
30572WAT     H291959   1.916   5.603   0.514
30573WAT      O91960   7.875   2.945   8.447
30573WAT     H191961   7.892   3.043   8.443
30573WAT     H291962   7.890   2.905   8.357
30574WAT      O91963   6.206   3.554   3.636
30574WAT     H191964   6.302   3.564   3.609
30574WAT     H291965   6.200   3.553   3.736
30575WAT      O91966   7.618   3.598   9.730
30575WAT     H191967   7.546   3.634   9.670
30575WAT     H291968   7.637   3.662   9.803
30576WAT      O91969   2.886   5.942   5.944
30576WAT     H191970   2.905   5.914   5.850
30576WAT     H291971   2.969   5.978   5.985
30577WAT      O91972   5.158   1.000   1.910
30577WAT     H191973   5.131   1.096   1.924
30577WAT     H291974   5.239   0.980   1.966
30578WAT      O91975   0.674   7.766   4.266
30578WAT     H191976   0.579   7.765   4.235
30578WAT     H291977   0.698   7.676   4.302
30579WAT      O91978   3.516   6.820   2.626
30579WAT     H191979   3.522   6.876   2.709
30579WAT     H291980   3.586   6.749   2.629
30580WAT      O91981   5.428   4.497   6.958
30580WAT     H191982   5.474   4.576   6.918
30580WAT     H291983   5.376   4.450   6.887
30581WAT      O91984   1.716   5.750   7.544
30581WAT     H191985   1.683   5.751   7.638
30581WAT     H291986   1.639   5.736   7.482
30582WAT      O91987   2.474   1.856   1.596
30582WAT     H191988   2.557   1.812   1.630
30582WAT     H291989   2.441   1.807   1.515
30583WAT      O91990   2.967   8.906   1.866
30583WAT     H191991   3.046   8.964   1.884
30583WAT     H291992   2.975   8.867   1.774
30584WAT      O91993   1.685   3.315   2.218
30584WAT     H191994   1.752   3.325   2.144
30584WAT     H291995   1.663   3.218   2.230
30585WAT      O91996   1.657   8.424   8.021
30585WAT     H191997   1.560   8.447   8.020
30585WAT     H291998   1.700   8.454   7.936
30586WAT      O91999   9.263   7.725   6.369
30586WAT     H192000   9.260   7.825   6.377
30586WAT     H292001   9.181   7.686   6.411
30587WAT      O92002   4.151   3.679   8.630
30587WAT     H192003   4.150   3.581   8.608
30587WAT     H292004   4.202   3.694   8.715
30588WAT      O92005   9.384   1.016   6.497
30588WAT     H192006   9.462   0.958   6.474
30588WAT     H292007   9.415   1.091   6.556
30589WAT      O92008   2.429   7.828   7.980
30589WAT     H192009   2.442   7.897   8.051
30589WAT     H292010   2.395   7.744   8.021
30590WAT      O92011   1.394   3.554   8.936
30590WAT     H192012   1.300   3.566   8.967
30590WAT     H292013   1.397   3.485   8.864
30591WAT      O92014   7.641   3.717   3.072
30591WAT     H192015   7.653   3.716   2.973
30591WAT     H292016   7.690   3.795   3.111
30592WAT      O92017   7.450   8.966   8.957
30592WAT     H192018   7.490   8.894   8.901
30592WAT     H292019   7.410   9.036   8.898
30593WAT      O92020   9.121   0.213   3.811
30593WAT     H192021   9.052   0.152   3.772
30593WAT     H292022   9.154   0.275   3.740
30594WAT      O92023   9.441   6.024   0.580
30594WAT     H192024   9.493   5.995   0.499
30594WAT     H292025   9.368   5.958   0.599
30595WAT      O92026   3.345   2.494   4.533
30595WAT     H192027   3.258   2.496   4.583
30595WAT     H292028   3.420   2.482   4.598
30596WAT      O92029   3.320   8.574   9.002
30596WAT     H192030   3.353   8.668   8.994
30596WAT     H292031   3.322   8.546   9.098
30597WAT      O92032   8.935   8.858   9.351
30597WAT     H192033   8.847   8.887   9.387
30597WAT     H292034   8.922   8.780   9.290
30598WAT      O92035   6.267   4.414   4.470
30598WAT     H192036   6.318   4.332   4.497
30598WAT     H292037   6.209   4.444   4.545
30599WAT      O92038   7.623   8.801   6.038
30599WAT     H192039   7.541   8.851   6.009
30599WAT     H292040   7.697   8.866   6.056
30600WAT      O92041   1.082   1.469   2.345
30600WAT     H192042   0.998   1.416   2.337
30600WAT     H292043   1.060   1.560   2.380
30601WAT      O92044   4.685   2.409   9.715
30601WAT     H192045   4.781   2.394   9.692
30601WAT     H292046   4.660   2.504   9.692
30602WAT      O92047   7.048   6.784   1.154
30602WAT     H192048   6.977   6.720   1.125
30602WAT     H292049   7.018   6.832   1.237
30603WAT      O92050   4.065   3.480   7.893
30603WAT     H192051   4.059   3.396   7.947
30603WAT     H292052   3.977   3.499   7.848
30604WAT      O92053   7.169   0.196   2.268
30604WAT     H192054   7.120   0.271   2.312
30604WAT     H292055   7.141   0.190   2.172
30605WAT      O92056   2.573   3.312   2.597
30605WAT     H192057   2.522   3.228   2.613
30605WAT     H292058   2.643   3.322   2.668
30606WAT      O92059   0.638   4.189   1.450
30606WAT     H192060   0.710   4.122   1.466
30606WAT     H292061   0.671   4.258   1.385
30607WAT      O92062   5.737   2.635   3.576
30607WAT     H192063   5.826   2.637   3.621
30607WAT     H292064   5.726   2.548   3.528
30608WAT      O92065   5.677   8.754   9.430
30608WAT     H192066   5.595   8.707   9.396
30608WAT     H292067   5.710   8.819   9.361
30609WAT      O92068   0.394   9.518   7.722
30609WAT     H192069   0.431   9.543   7.632
30609WAT     H292070   0.307   9.566   7.737
30610WAT      O92071   6.088   6.770   7.523
30610WAT     H192072   6.032   6.800   7.600
30610WAT     H292073   6.078   6.834   7.447
30611WAT      O92074   5.547   1.905   4.862
30611WAT     H192075   5.491   1.841   4.915
30611WAT     H292076   5.638   1.865   4.848
30612WAT      O92077   9.646   9.555   5.546
30612WAT     H192078   9.652   9.652   5.526
30612WAT     H292079   9.550   9.528   5.554
30613WAT      O92080   8.485   8.001   2.422
30613WAT     H192081   8.548   7.989   2.498
30613WAT     H292082   8.516   8.077   2.364
30614WAT      O92083   4.112   5.317   8.032
30614WAT     H192084   4.047   5.301   7.958
30614WAT     H292085   4.062   5.344   8.115
30615WAT      O92086   1.293   7.644   6.584
30615WAT     H192087   1.351   7.617   6.508
30615WAT     H292088   1.296   7.573   6.655
30616WAT      O92089   5.134   6.752   6.188
30616WAT     H192090   5.163   6.846   6.170
30616WAT     H292091   5.141   6.732   6.285
30617WAT      O92092   0.787   7.624   8.678
30617WAT     H192093   0.834   7.653   8.761
30617WAT     H292094   0.817   7.532   8.652
30618WAT      O92095   1.254   2.732   9.553
30618WAT     H192096   1.158   2.708   9.539
30618WAT     H292097   1.260   2.821   9.599
30619WAT      O92098   1.600   5.828   3.665
30619WAT     H192099   1.626   5.866   3.576
30619WAT     H292100   1.501   5.825   3.673
30620WAT      O92101   0.410   7.277   0.352
30620WAT     H192102   0.365   7.298   0.265
30620WAT     H292103   0.348   7.297   0.428
30621WAT      O92104   5.384   8.544   4.816
30621WAT     H192105   5.419   8.529   4.723
30621WAT     H292106   5.390   8.459   4.868
30622WAT      O92107   0.781   4.810   6.445
30622WAT     H192108   0.840   4.734   6.416
30622WAT     H292109   0.838   4.890   6.466
30623WAT      O92110   3.536   7.547   3.947
30623WAT     H192111   3.553   7.449   3.951
30623WAT     H292112   3.440   7.564   3.926
30624WAT      O92113   0.529   8.035   0.972
30624WAT     H192114   0.571   7.946   0.987
30624WAT     H292115   0.471   8.058   1.050
30625WAT      O92116   3.882   7.776   7.768
30625WAT     H192117   3.784   7.787   7.783
30625WAT     H292118   3.898   7.690   7.719
30626WAT      O92119   4.418   9.767   9.643
30626WAT     H192120   4.347   9.700   9.663
30626WAT     H292121   4.394   9.817   9.559
30627WAT      O92122   4.331   6.410   5.949
30627WAT     H192123   4.272   6.475   5.995
30627WAT     H292124   4.276   6.341   5.902
30628WAT      O92125   9.607   5.412   8.414
30628WAT     H192126   9.655   5.399   8.500
30628WAT     H292127   9.590   5.510   8.399
30629WAT      O92128   5.615   3.333   1.867
30629WAT     H192129   5.714   3.340   1.873
30629WAT     H292130   5.586   3.346   1.772
30630WAT      O92131   4.330   3.798   3.044
30630WAT     H192132   4.388   3.871   3.009
30630WAT     H292133   4.272   3.763   2.970
30631WAT      O92134   6.742   8.367   2.503
30631WAT     H192135   6.766   8.321   2.589
30631WAT     H292136   6.652   8.410   2.513
30632WAT      O92137   2.559   2.086   2.484
30632WAT     H192138   2.520   2.006   2.531
30632WAT     H292139   2.625   2.130   2.544
30633WAT      O92140   7.268   8.010   0.541
30633WAT     H192141   7.361   8.035   0.568
30633WAT     H292142   7.272   7.945   0.465
30634WAT      O92143   5.992   3.543   1.010
30634WAT     H192144   6.038   3.454   1.015
30634WAT     H292145   5.988   3.573   0.914
30635WAT      O92146   8.656   6.221   9.865
30635WAT     H192147   8.678   6.318   9.856
30635WAT     H292148   8.731   6.173   9.911
30636WAT      O92149   4.076   6.937   7.315
30636WAT     H192150   4.024   6.852   7.314
30636WAT     H292151   4.039   6.999   7.245
30637WAT      O92152   3.077   7.249   8.654
30637WAT     H192153   2.999   7.306   8.680
30637WAT     H292154   3.045   7.177   8.592
30638WAT      O92155   7.550   8.865   6.468
30638WAT     H192156   7.605   8.789   6.434
30638WAT     H292157   7.564   8.945   6.409
30639WAT      O92158   2.005   8.686   8.878
30639WAT     H192159   1.942   8.707   8.953
30639WAT     H292160   2.091   8.735   8.892
30640WAT      O92161   3.906   2.160   7.784
30640WAT     H192162   3.851   2.182   7.864
30640WAT     H292163   3.876   2.214   7.706
30641WAT      O92164   0.208   5.020   8.549
30641WAT     H192165   0.220   4.971   8.635
30641WAT     H292166   0.249   4.967   8.475
30642WAT      O92167   4.639   9.474   7.130
30642WAT     H192168   4.593   9.415   7.197
30642WAT     H292169   4.643   9.568   7.165
30643WAT      O92170   6.259   4.955   8.212
30643WAT     H192171   6.207   4.999   8.285
30643WAT     H292172   6.355   4.948   8.238
30644WAT      O92173   5.043   8.002   4.420
30644WAT     H192174   5.096   7.917   4.424
30644WAT     H292175   5.105   8.079   4.409
30645WAT      O92176   1.702   8.846   3.429
30645WAT     H192177   1.691   8.936   3.470
30645WAT     H292178   1.630   8.832   3.361
30646WAT      O92179   4.067   6.037   3.606
30646WAT     H192180   4.157   6.072   3.581
30646WAT     H292181   3.997   6.101   3.574
30647WAT      O92182   0.876   4.327   9.673
30647WAT     H192183   0.858   4.416   9.630
30647WAT     H292184   0.824   4.256   9.626
30648WAT      O92185   0.165   4.947   4.883
30648WAT     H192186   0.210   4.917   4.968
30648WAT     H292187   0.217   5.023   4.843
30649WAT      O92188   6.692   0.828   3.217
30649WAT     H192189   6.786   0.851   3.193
30649WAT     H292190   6.652   0.904   3.269
30650WAT      O92191   7.791   5.116   0.590
30650WAT     H192192   7.737   5.089   0.669
30650WAT     H292193   7.730   5.150   0.518
30651WAT      O92194   4.885   0.640   4.265
30651WAT     H192195   4.897   0.544   4.293
30651WAT     H292196   4.974   0.678   4.238
30652WAT      O92197   6.912   4.590   8.493
30652WAT     H192198   6.884   4.677   8.532
30652WAT     H292199   6.910   4.519   8.564
30653WAT      O92200   0.953   4.091   3.796
30653WAT     H192201   0.898   4.024   3.846
30653WAT     H292202   0.904   4.120   3.714
30654WAT      O92203   1.797   2.600   9.640
30654WAT     H192204   1.762   2.559   9.724
30654WAT     H292205   1.818   2.527   9.574
30655WAT      O92206   2.983   6.343   4.243
30655WAT     H192207   2.963   6.436   4.270
30655WAT     H292208   3.043   6.344   4.162
30656WAT      O92209   9.231   1.240   9.676
30656WAT     H192210   9.135   1.216   9.667
30656WAT     H292211   9.258   1.234   9.772
30657WAT      O92212   2.580   2.416   7.400
30657WAT     H192213   2.507   2.455   7.456
30657WAT     H292214   2.669   2.448   7.434
30658WAT      O92215   2.565   9.483   0.512
30658WAT     H192216   2.604   9.551   0.450
30658WAT     H292217   2.518   9.413   0.458
30659WAT      O92218   3.004   0.262   8.610
30659WAT     H192219   2.913   0.302   8.606
30659WAT     H292220   3.057   0.289   8.530
30660WAT      O92221   5.510   4.655   4.136
30660WAT     H192222   5.580   4.720   4.107
30660WAT     H292223   5.552   4.567   4.156
30661WAT      O92224   7.791   2.201   9.234
30661WAT     H192225   7.780   2.114   9.187
30661WAT     H292226   7.886   2.231   9.227
30662WAT      O92227   6.518   8.560   0.167
30662WAT     H192228   6.419   8.547   0.157
30662WAT     H292229   6.561   8.558   0.077
30663WAT      O92230   0.926   0.349   4.249
30663WAT     H192231   1.012   0.399   4.236
30663WAT     H292232   0.940   0.278   4.319
30664WAT      O92233   4.844   6.791   1.716
30664WAT     H192234   4.753   6.816   1.682
30664WAT     H292235   4.873   6.859   1.784
30665WAT      O92236   3.521   2.693   9.772
30665WAT     H192237   3.442   2.656   9.723
30665WAT     H292238   3.563   2.766   9.718
30666WAT      O92239   0.026   8.669   9.307
30666WAT     H192240   0.074   8.708   9.385
30666WAT     H292241  -0.066   8.643   9.334
30667WAT      O92242   6.975   7.781   1.198
30667WAT     H192243   7.022   7.796   1.285
30667WAT     H292244   7.041   7.791   1.123
30668WAT      O92245   1.232   6.708   7.899
30668WAT     H192246   1.179   6.636   7.855
30668WAT     H292247   1.245   6.783   7.834
30669WAT      O92248   9.359   9.586   3.146
30669WAT     H192249   9.327   9.681   3.157
30669WAT     H292250   9.305   9.526   3.205
30670WAT      O92251   7.406   7.672   1.829
30670WAT     H192252   7.365   7.585   1.801
30670WAT     H292253   7.427   7.726   1.747
30671WAT      O92254   1.603   1.780   8.130
30671WAT     H192255   1.620   1.721   8.051
30671WAT     H292256   1.506   1.779   8.153
30672WAT      O92257   1.694   8.731   0.979
30672WAT     H192258   1.665   8.650   1.030
30672WAT     H292259   1.679   8.813   1.034
30673WAT      O92260   9.033   4.274   9.184
30673WAT     H192261   8.939   4.267   9.219
30673WAT     H292262   9.088   4.328   9.247
30674WAT      O92263   3.948   8.883   5.282
30674WAT     H192264   3.902   8.796   5.264
30674WAT     H292265   3.971   8.889   5.379
30675WAT      O92266   0.306   4.135   9.688
30675WAT     H192267   0.272   4.203   9.623
30675WAT     H292268   0.259   4.147   9.776
30676WAT      O92269   4.172   3.869   3.707
30676WAT     H192270   4.205   3.807   3.778
30676WAT     H292271   4.084   3.837   3.673
30677WAT      O92272   2.634   7.855   7.484
30677WAT     H192273   2.608   7.951   7.499
30677WAT     H292274   2.558   7.796   7.509
30678WAT      O92275   0.001   1.061   0.768
30678WAT     H192276   0.014   1.156   0.799
30678WAT     H292277   0.076   1.005   0.803
30679WAT      O92278   7.858   6.078   8.465
30679WAT     H192279   7.877   6.174   8.443
30679WAT     H292280   7.763   6.057   8.444
30680WAT      O92281   2.466   5.490   3.072
30680WAT     H192282   2.529   5.565   3.055
30680WAT     H292283   2.464   5.469   3.170
30681WAT      O92284   5.578   7.877   8.854
30681WAT     H192285   5.661   7.894   8.907
30681WAT     H292286   5.598   7.812   8.780
30682WAT      O92287   3.548   6.301   0.692
30682WAT     H192288   3.586   6.322   0.782
30682WAT     H292289   3.448   6.295   0.699
30683WAT      O92290   5.804   8.785   6.798
30683WAT     H192291   5.758   8.700   6.773
30683WAT     H292292   5.883   8.798   6.737
30684WAT      O92293   4.258   7.858   8.911
30684WAT     H192294   4.354   7.857   8.885
30684WAT     H292295   4.221   7.765   8.907
30685WAT      O92296   1.154   1.991   9.102
30685WAT     H192297   1.157   1.901   9.145
30685WAT     H292298   1.181   1.984   9.006
30686WAT      O92299   7.765   9.082   7.690
30686WAT     H192300   7.859   9.055   7.669
30686WAT     H292301   7.706   9.060   7.612
30687WAT      O92302   3.686   2.717   9.097
30687WAT     H192303   3.587   2.703   9.103
30687WAT     H292304   3.707   2.813   9.112
30688WAT      O92305   3.349   2.179   2.068
30688WAT     H192306   3.440   2.206   2.035
30688WAT     H292307   3.352   2.085   2.101
30689WAT      O92308   8.919   8.537   8.499
30689WAT     H192309   8.828   8.502   8.524
30689WAT     H292310   8.988   8.467   8.518
30690WAT      O92311   3.033   4.853   4.679
30690WAT     H192312   3.088   4.906   4.615
30690WAT     H292313   3.002   4.769   4.635
30691WAT      O92314   5.479   6.715   2.069
30691WAT     H192315   5.455   6.786   2.135
30691WAT     H292316   5.410   6.643   2.071
30692WAT      O92317   4.071   3.294   2.181
30692WAT     H192318   4.154   3.266   2.133
30692WAT     H292319   4.094   3.328   2.272
30693WAT      O92320   4.893   9.142   6.970
30693WAT     H192321   4.891   9.221   7.032
30693WAT     H292322   4.914   9.172   6.878
30694WAT      O92323   6.403   3.787   6.166
30694WAT     H192324   6.423   3.726   6.243
30694WAT     H292325   6.313   3.764   6.128
30695WAT      O92326   3.833   5.080   5.280
30695WAT     H192327   3.933   5.077   5.276
30695WAT     H292328   3.803   5.055   5.373
30696WAT      O92329   4.196   7.863   9.359
30696WAT     H192330   4.241   7.903   9.279
30696WAT     H292331   4.193   7.931   9.432
30697WAT      O92332   7.333   6.432   9.581
30697WAT     H192333   7.241   6.430   9.620
30697WAT     H292334   7.337   6.503   9.510
30698WAT      O92335   5.305   1.389   0.567
30698WAT     H192336   5.221   1.381   0.513
30698WAT     H292337   5.384   1.377   0.507
30699WAT      O92338   9.152   3.284   0.767
30699WAT     H192339   9.226   3.338   0.806
30699WAT     H292340   9.066   3.336   0.772
30700WAT      O92341   5.218   2.549   5.341
30700WAT     H192342   5.242   2.457   5.370
30700WAT     H292343   5.125   2.550   5.304
30701WAT      O92344   4.025   4.244   0.962
30701WAT     H192345   4.034   4.335   0.922
30701WAT     H292346   4.054   4.246   1.057
30702WAT      O92347   6.448   0.795   7.436
30702WAT     H192348   6.521   0.855   7.403
30702WAT     H292349   6.371   0.800   7.373
30703WAT      O92350   2.790   0.758   7.444
30703WAT     H192351   2.765   0.681   7.385
30703WAT     H292352   2.767   0.737   7.539
30704WAT      O92353   4.732   4.897   6.847
30704WAT     H192354   4.775   4.807   6.855
30704WAT     H292355   4.761   4.940   6.762
30705WAT      O92356   8.419   9.314   4.867
30705WAT     H192357   8.345   9.351   4.923
30705WAT     H292358   8.473   9.389   4.829
30706WAT      O92359   3.013   1.977   6.065
30706WAT     H192360   3.064   2.059   6.089
30706WAT     H292361   2.994   1.977   5.967
30707WAT      O92362   7.823   3.160   3.787
30707WAT     H192363   7.742   3.147   3.844
30707WAT     H292364   7.844   3.075   3.739
30708WAT      O92365   7.054   1.345   6.995
30708WAT     H192366   7.030   1.352   6.898
30708WAT     H292367   6.983   1.390   7.050
30709WAT      O92368   5.834   3.710   9.542
30709WAT     H192369   5.801   3.802   9.561
30709WAT     H292370   5.810   3.649   9.617
30710WAT      O92371   3.323   1.897   2.161
30710WAT     H192372   3.412   1.854   2.148
30710WAT     H292373   3.309   1.914   2.259
30711WAT      O92374   5.801   2.150   3.364
30711WAT     H192375   5.895   2.151   3.330
30711WAT     H292376   5.802   2.154   3.464
30712WAT      O92377   9.344   4.334   6.184
30712WAT     H192378   9.366   4.429   6.162
30712WAT     H292379   9.354   4.278   6.103
30713WAT      O92380   4.158   0.567   2.624
30713WAT     H192381   4.190   0.587   2.717
30713WAT     H292382   4.085   0.499   2.628
30714WAT      O92383   9.577   7.610   2.160
30714WAT     H192384   9.511   7.642   2.092
30714WAT     H292385   9.544   7.525   2.202
30715WAT      O92386   6.823   0.926   3.798
30715WAT     H192387   6.882   0.987   3.851
30715WAT     H292388   6.757   0.883   3.859
30716WAT      O92389   7.801   3.903   7.066
30716WAT     H192390   7.800   3.883   7.164
30716WAT     H292391   7.859   3.983   7.049
30717WAT      O92392   8.920   4.625   5.032
30717WAT     H192393   8.897   4.528   5.033
30717WAT     H292394   8.862   4.672   4.964
30718WAT      O92395   1.304   0.082   5.083
30718WAT     H192396   1.298   0.045   4.990
30718WAT     H292397   1.391   0.129   5.095
30719WAT      O92398   6.900   8.999   0.550
30719WAT     H192399   6.827   9.067   0.548
30719WAT     H292400   6.864   8.912   0.583
30720WAT      O92401   6.479   0.054   0.000
30720WAT     H192402   6.435  -0.036  -0.001
30720WAT     H292403   6.409   0.125   0.004
30721WAT      O92404   7.788   6.384   4.525
30721WAT     H192405   7.835   6.421   4.605
30721WAT     H292406   7.766   6.288   4.540
30722WAT      O92407   6.847   1.491   5.987
30722WAT     H192408   6.762   1.463   5.942
30722WAT     H292409   6.911   1.526   5.919
30723WAT      O92410   0.880   3.479   6.956
30723WAT     H192411   0.847   3.416   7.027
30723WAT     H292412   0.811   3.550   6.940
30724WAT      O92413   7.598   0.378   6.171
30724WAT     H192414   7.558   0.302   6.120
30724WAT     H292415   7.603   0.459   6.113
30725WAT      O92416   4.468   0.489   9.802
30725WAT     H192417   4.401   0.547   9.756
30725WAT     H292418   4.521   0.544   9.867
30726WAT      O92419   0.261   0.949   0.848
30726WAT     H192420   0.317   0.965   0.767
30726WAT     H292421   0.249   0.851   0.861
30727WAT      O92422   7.457   2.996   7.019
30727WAT     H192423   7.478   2.925   6.951
30727WAT     H292424   7.478   3.086   6.981
30728WAT      O92425   2.200   1.962   3.992
30728WAT     H192426   2.171   1.955   4.088
30728WAT     H292427   2.159   2.043   3.951
30729WAT      O92428   3.694   9.604   8.817
30729WAT     H192429   3.762   9.634   8.883
30729WAT     H292430   3.612   9.661   8.824
30730WAT      O92431   0.942   9.753   5.086
30730WAT     H192432   0.988   9.734   5.173
30730WAT     H292433   0.895   9.841   5.092
30731WAT      O92434   9.874   0.044   2.510
30731WAT     H192435   9.786   0.061   2.553
30731WAT     H292436   9.948   0.074   2.571
30732WAT      O92437   7.805   0.358   0.791
30732WAT     H192438   7.779   0.433   0.731
30732WAT     H292439   7.904   0.349   0.794
30733WAT      O92440   6.372   9.288   4.177
30733WAT     H192441   6.323   9.206   4.149
30733WAT     H292442   6.319   9.369   4.153
30734WAT      O92443   2.619   7.729   8.425
30734WAT     H192444   2.666   7.744   8.337
30734WAT     H292445   2.538   7.787   8.430
30735WAT      O92446   2.634   7.651   9.240
30735WAT     H192447   2.733   7.650   9.228
30735WAT     H292448   2.603   7.559   9.267
30736WAT      O92449   9.837   5.247   7.312
30736WAT     H192450   9.884   5.163   7.284
30736WAT     H292451   9.892   5.326   7.288
30737WAT      O92452   2.989   5.421   7.519
30737WAT     H192453   2.965   5.405   7.615
30737WAT     H292454   2.995   5.519   7.502
30738WAT      O92455   7.093   1.986   1.612
30738WAT     H192456   7.191   1.997   1.594
30738WAT     H292457   7.057   1.910   1.558
30739WAT      O92458   2.647   3.787   7.775
30739WAT     H192459   2.743   3.789   7.749
30739WAT     H292460   2.631   3.711   7.838
30740WAT      O92461   8.784   7.133   1.386
30740WAT     H192462   8.822   7.223   1.362
30740WAT     H292463   8.856   7.077   1.427
30741WAT      O92464   0.082   0.600   6.105
30741WAT     H192465   0.040   0.690   6.095
30741WAT     H292466   0.012   0.531   6.123
30742WAT      O92467   4.941   1.177   8.223
30742WAT     H192468   4.895   1.215   8.303
30742WAT     H292469   4.938   1.077   8.227
30743WAT      O92470   2.480   1.071   8.222
30743WAT     H192471   2.491   1.170   8.215
30743WAT     H292472   2.518   1.040   8.309
30744WAT      O92473   1.701   2.364   1.908
30744WAT     H192474   1.767   2.397   1.841
30744WAT     H292475   1.733   2.386   2.000
30745WAT      O92476   2.505   5.684   6.001
30745WAT     H192477   2.434   5.713   6.065
30745WAT     H292478   2.564   5.762   5.979
30746WAT      O92479   5.853   1.235   6.634
30746WAT     H192480   5.925   1.254   6.700
30746WAT     H292481   5.804   1.319   6.612
30747WAT      O92482   4.455   3.292   3.036
30747WAT     H192483   4.468   3.252   3.126
30747WAT     H292484   4.391   3.235   2.983
30748WAT      O92485   1.334   0.946   5.272
30748WAT     H192486   1.296   0.929   5.363
30748WAT     H292487   1.284   0.893   5.204
30749WAT      O92488   2.768   2.785   7.110
30749WAT     H192489   2.688   2.743   7.153
30749WAT     H292490   2.811   2.718   7.049
30750WAT      O92491   1.763   3.935   6.372
30750WAT     H192492   1.724   3.896   6.455
30750WAT     H292493   1.762   3.866   6.299
30751WAT      O92494   0.999   2.471   3.455
30751WAT     H192495   0.938   2.528   3.510
30751WAT     H292496   1.049   2.408   3.515
30752WAT      O92497   7.613   2.446   7.424
30752WAT     H192498   7.685   2.385   7.391
30752WAT     H292499   7.555   2.473   7.347
30753WAT      O92500   7.403   1.148   6.899
30753WAT     H192501   7.321   1.170   6.846
30753WAT     H292502   7.395   1.185   6.991
30754WAT      O92503   7.024   3.209   1.475
30754WAT     H192504   6.999   3.165   1.389
30754WAT     H292505   7.111   3.257   1.464
30755WAT      O92506   4.792   8.434   6.951
30755WAT     H192507   4.787   8.368   7.026
30755WAT     H292508   4.774   8.388   6.864
30756WAT      O92509   2.119   3.116   4.876
30756WAT     H192510   2.096   3.147   4.968
30756WAT     H292511   2.036   3.113   4.819
30757WAT      O92512   3.460   5.117   0.040
30757WAT     H192513   3.465   5.050   0.114
30757WAT     H292514   3.477   5.072  -0.048
30758WAT      O92515   3.622   9.108   5.662
30758WAT     H192516   3.651   9.031   5.604
30758WAT     H292517   3.610   9.076   5.756
30759WAT      O92518   9.710   9.540   3.078
30759WAT     H192519   9.804   9.575   3.080
30759WAT     H292520   9.700   9.477   3.001
30760WAT      O92521   5.495   7.797   5.863
30760WAT     H192522   5.511   7.844   5.777
30760WAT     H292523   5.532   7.852   5.938
30761WAT      O92524   5.325   7.164   6.573
30761WAT     H192525   5.324   7.129   6.667
30761WAT     H292526   5.339   7.263   6.575
30762WAT      O92527   3.597   4.697   0.620
30762WAT     H192528   3.605   4.708   0.521
30762WAT     H292529   3.571   4.784   0.661
30763WAT      O92530   7.591   8.669   5.101
30763WAT     H192531   7.558   8.576   5.090
30763WAT     H292532   7.681   8.678   5.058
30764WAT      O92533   1.167   0.674   1.881
30764WAT     H192534   1.108   0.624   1.818
30764WAT     H292535   1.111   0.731   1.941
30765WAT      O92536   0.648   0.526   9.781
30765WAT     H192537   0.653   0.576   9.695
30765WAT     H292538   0.677   0.585   9.856
30766WAT      O92539   1.538   3.584   1.034
30766WAT     H192540   1.541   3.645   1.114
30766WAT     H292541   1.595   3.623   0.961
30767WAT      O92542   1.346   5.147   3.470
30767WAT     H192543   1.369   5.052   3.449
30767WAT     H292544   1.366   5.165   3.566
30768WAT      O92545   3.523   5.839   8.078
30768WAT     H192546   3.573   5.923   8.057
30768WAT     H292547   3.469   5.813   7.998
30769WAT      O92548   5.242   5.267   3.362
30769WAT     H192549   5.149   5.280   3.328
30769WAT     H292550   5.253   5.317   3.448
30770WAT      O92551   7.720   2.573   8.421
30770WAT     H192552   7.630   2.574   8.464
30770WAT     H292553   7.715   2.617   8.332
30771WAT      O92554   4.463   8.813   5.851
30771WAT     H192555   4.471   8.716   5.873
30771WAT     H292556   4.379   8.851   5.891
30772WAT      O92557   8.008   5.310   4.304
30772WAT     H192558   8.098   5.353   4.293
30772WAT     H292559   7.971   5.287   4.214
30773WAT      O92560   1.552   4.175   3.349
30773WAT     H192561   1.616   4.165   3.425
30773WAT     H292562   1.547   4.271   3.322
30774WAT      O92563   0.001   4.074   1.301
30774WAT     H192564   0.066   4.011   1.258
30774WAT     H292565   0.051   4.148   1.345
30775WAT      O92566   5.770   4.339   1.980
30775WAT     H192567   5.779   4.386   2.067
30775WAT     H292568   5.693   4.275   1.983
30776WAT      O92569   0.172   2.142   1.642
30776WAT     H192570   0.216   2.178   1.725
30776WAT     H292571   0.238   2.139   1.567
30777WAT      O92572   5.569   9.797   4.034
30777WAT     H192573   5.520   9.811   3.948
30777WAT     H292574   5.510   9.825   4.110
30778WAT      O92575   0.828   3.433   3.469
30778WAT     H192576   0.733   3.404   3.486
30778WAT     H292577   0.839   3.453   3.371
30779WAT      O92578   7.097   5.057   5.389
30779WAT     H192579   7.156   4.989   5.344
30779WAT     H292580   7.111   5.054   5.488
30780WAT      O92581   5.984   6.463   9.662
30780WAT     H192582   5.988   6.376   9.710
30780WAT     H292583   5.954   6.447   9.568
30781WAT      O92584   2.981   1.583   8.440
30781WAT     H192585   3.046   1.536   8.380
30781WAT     H292586   2.953   1.669   8.398
30782WAT      O92587   6.335   1.655   5.946
30782WAT     H192588   6.359   1.597   6.024
30782WAT     H292589   6.240   1.638   5.920
30783WAT      O92590   7.250   6.937   3.841
30783WAT     H192591   7.206   6.990   3.768
30783WAT     H292592   7.276   6.999   3.916
30784WAT      O92593   8.282   5.174   1.647
30784WAT     H192594   8.349   5.117   1.599
30784WAT     H292595   8.329   5.239   1.706
30785WAT      O92596   0.878   1.310   2.592
30785WAT     H192597   0.852   1.234   2.651
30785WAT     H292598   0.880   1.280   2.497
30786WAT      O92599   6.473   5.008   6.797
30786WAT     H192600   6.435   5.013   6.889
30786WAT     H292601   6.415   4.949   6.741
30787WAT      O92602   5.524   8.019   0.265
30787WAT     H192603   5.512   8.113   0.294
30787WAT     H292604   5.539   7.960   0.345
30788WAT      O92605   5.611   5.808   2.436
30788WAT     H192606   5.630   5.840   2.529
30788WAT     H292607   5.599   5.887   2.376
30789WAT      O92608   8.292   2.236   6.170
30789WAT     H192609   8.247   2.163   6.120
30789WAT     H292610   8.228   2.277   6.235
30790WAT      O92611   0.293   8.431   7.738
30790WAT     H192612   0.336   8.451   7.826
30790WAT     H292613   0.313   8.506   7.674
30791WAT      O92614   5.008   9.174   3.225
30791WAT     H192615   5.008   9.223   3.138
30791WAT     H292616   4.915   9.170   3.261
30792WAT      O92617   0.279   9.220   1.588
30792WAT     H192618   0.199   9.230   1.528
30792WAT     H292619   0.253   9.167   1.669
30793WAT      O92620   5.646   2.689   1.946
30793WAT     H192621   5.644   2.657   2.041
30793WAT     H292622   5.703   2.771   1.939
30794WAT      O92623   2.414   3.946   2.407
30794WAT     H192624   2.395   3.979   2.499
30794WAT     H292625   2.438   3.849   2.411
30795WAT      O92626   8.453   0.031   8.661
30795WAT     H192627   8.493   0.006   8.749
30795WAT     H292628   8.492  -0.027   8.589
30796WAT      O92629   1.101   0.967   5.859
30796WAT     H192630   1.103   0.867   5.865
30796WAT     H292631   1.058   0.993   5.773
30797WAT      O92632   8.482   5.010   7.885
30797WAT     H192633   8.555   5.018   7.817
30797WAT     H292634   8.396   4.991   7.839
30798WAT      O92635   5.345   4.811   6.178
30798WAT     H192636   5.409   4.748   6.220
30798WAT     H292637   5.252   4.776   6.189
30799WAT      O92638   8.009   0.765   3.457
30799WAT     H192639   8.021   0.736   3.552
30799WAT     H292640   7.911   0.765   3.434
30800WAT      O92641   6.430   4.562   1.309
30800WAT     H192642   6.375   4.645   1.315
30800WAT     H292643   6.391   4.500   1.241
30801WAT      O92644   7.016   0.740   8.002
30801WAT     H192645   7.016   0.817   8.066
30801WAT     H292646   6.928   0.693   8.007
30802WAT      O92647   8.981   7.461   2.487
30802WAT     H192648   8.929   7.546   2.498
30802WAT     H292649   8.978   7.409   2.572
30803WAT      O92650   2.174   8.546   1.808
30803WAT     H192651   2.186   8.635   1.765
30803WAT     H292652   2.236   8.480   1.766
30804WAT      O92653   7.992   0.558   9.433
30804WAT     H192654   8.033   0.470   9.408
30804WAT     H292655   8.061   0.615   9.477
30805WAT      O92656   0.964   2.151   0.420
30805WAT     H192657   0.897   2.225   0.430
30805WAT     H292658   1.009   2.158   0.331
30806WAT      O92659   9.152   4.449   4.319
30806WAT     H192660   9.126   4.545   4.308
30806WAT     H292661   9.184   4.434   4.413
30807WAT      O92662   2.039   9.178   1.258
30807WAT     H192663   2.107   9.208   1.325
30807WAT     H292664   1.974   9.117   1.302
30808WAT      O92665   6.965   1.606   9.414
30808WAT     H192666   6.891   1.652   9.366
30808WAT     H292667   7.035   1.674   9.440
30809WAT      O92668   1.456   8.098   8.286
30809WAT     H192669   1.514   8.150   8.223
30809WAT     H292670   1.470   8.000   8.270
30810WAT      O92671   5.765   5.590   6.321
30810WAT     H192672   5.781   5.664   6.257
30810WAT     H292673   5.668   5.566   6.322
30811WAT      O92674   8.198   6.082   0.081
30811WAT     H192675   8.182   6.115   0.174
30811WAT     H292676   8.118   6.102   0.025
30812WAT      O92677   1.224   8.063   6.636
30812WAT     H192678   1.154   8.125   6.672
30812WAT     H292679   1.258   8.004   6.710
30813WAT      O92680   8.120   6.549   0.070
30813WAT     H192681   8.193   6.491   0.106
30813WAT     H292682   8.107   6.627   0.131
30814WAT      O92683   1.300   7.212   9.067
30814WAT     H192684   1.397   7.187   9.071
30814WAT     H292685   1.291   7.311   9.060
30815WAT      O92686   2.236   6.194   4.395
30815WAT     H192687   2.191   6.200   4.306
30815WAT     H292688   2.293   6.112   4.398
30816WAT      O92689   1.231   1.161   0.202
30816WAT     H192690   1.223   1.259   0.183
30816WAT     H292691   1.233   1.146   0.301
30817WAT      O92692   2.591   2.775   3.508
30817WAT     H192693   2.493   2.776   3.487
30817WAT     H292694   2.626   2.681   3.503
30818WAT      O92695   6.366   0.928   5.671
30818WAT     H192696   6.323   0.967   5.589
30818WAT     H292697   6.398   0.836   5.650
30819WAT      O92698   6.338   0.840   4.538
30819WAT     H192699   6.316   0.921   4.483
30819WAT     H292700   6.255   0.810   4.586
30820WAT      O92701   9.434   3.462   3.991
30820WAT     H192702   9.491   3.516   4.052
30820WAT     H292703   9.432   3.504   3.900
30821WAT      O92704   4.042   0.893   7.695
30821WAT     H192705   4.058   0.913   7.598
30821WAT     H292706   4.020   0.796   7.705
30822WAT      O92707   4.201   3.592   0.377
30822WAT     H192708   4.214   3.684   0.340
30822WAT     H292709   4.248   3.525   0.320
30823WAT      O92710   2.915   2.176   7.609
30823WAT     H192711   2.902   2.084   7.572
30823WAT     H292712   2.920   2.242   7.535
30824WAT      O92713   7.672   6.865   6.090
30824WAT     H192714   7.749   6.853   6.152
30824WAT     H292715   7.607   6.929   6.130
30825WAT      O92716   0.705   4.460   3.844
30825WAT     H192717   0.791   4.490   3.803
30825WAT     H292718   0.637   4.445   3.772
30826WAT      O92719   3.494   6.811   7.879
30826WAT     H192720   3.430   6.871   7.928
30826WAT     H292721   3.566   6.781   7.941
30827WAT      O92722   8.526   3.015   3.915
30827WAT     H192723   8.515   3.100   3.863
30827WAT     H292724   8.510   3.033   4.012
30828WAT      O92725   4.656   3.478   0.586
30828WAT     H192726   4.741   3.500   0.634
30828WAT     H292727   4.585   3.456   0.653
30829WAT      O92728   7.650   5.995   1.847
30829WAT     H192729   7.585   6.068   1.824
30829WAT     H292730   7.626   5.912   1.796
30830WAT      O92731   3.471   8.044   3.456
30830WAT     H192732   3.510   7.971   3.399
30830WAT     H292733   3.472   8.130   3.404
30831WAT      O92734   7.355   8.016   4.186
30831WAT     H192735   7.280   7.975   4.237
30831WAT     H292736   7.442   7.998   4.233
30832WAT      O92737   5.360   8.063   5.556
30832WAT     H192738   5.399   8.048   5.648
30832WAT     H292739   5.306   8.147   5.557
30833WAT      O92740   6.095   8.979   1.986
30833WAT     H192741   6.010   9.012   2.027
30833WAT     H292742   6.101   8.880   1.998
30834WAT      O92743   0.245   0.297   0.539
30834WAT     H192744   0.287   0.245   0.613
30834WAT     H292745   0.314   0.321   0.471
30835WAT      O92746   5.967   2.575   6.614
30835WAT     H192747   6.060   2.611   6.614
30835WAT     H292748   5.961   2.497   6.676
30836WAT      O92749   3.555   9.516   7.409
30836WAT     H192750   3.521   9.607   7.434
30836WAT     H292751   3.586   9.518   7.313
30837WAT      O92752   1.699   9.635   5.814
30837WAT     H192753   1.766   9.568   5.844
30837WAT     H292754   1.746   9.709   5.765
30838WAT      O92755   4.159   9.373   7.061
30838WAT     H192756   4.191   9.280   7.079
30838WAT     H292757   4.185   9.400   6.968
30839WAT      O92758   5.215   6.651   3.021
30839WAT     H192759   5.241   6.586   3.093
30839WAT     H292760   5.178   6.734   3.064
30840WAT      O92761   3.804   3.856   0.667
30840WAT     H192762   3.768   3.948   0.682
30840WAT     H292763   3.885   3.843   0.725
30841WAT      O92764   6.186   2.986   4.138
30841WAT     H192765   6.206   3.084   4.139
30841WAT     H292766   6.210   2.947   4.049
30842WAT      O92767   4.966   4.669   2.910
30842WAT     H192768   4.958   4.726   2.992
30842WAT     H292769   4.925   4.580   2.928
30843WAT      O92770   8.802   8.711   6.897
30843WAT     H192771   8.803   8.657   6.981
30843WAT     H292772   8.709   8.718   6.863
30844WAT      O92773   5.450   0.976   9.077
30844WAT     H192774   5.542   0.937   9.069
30844WAT     H292775   5.390   0.934   9.009
30845WAT      O92776   9.132   8.891   7.371
30845WAT     H192777   9.217   8.943   7.365
30845WAT     H292778   9.105   8.882   7.466
30846WAT      O92779   2.787   0.490   5.149
30846WAT     H192780   2.689   0.470   5.151
30846WAT     H292781   2.818   0.491   5.054
30847WAT      O92782   7.082   4.351   4.926
30847WAT     H192783   7.023   4.398   4.861
30847WAT     H292784   7.050   4.257   4.938
30848WAT      O92785   0.485   0.550   2.264
30848WAT     H192786   0.439   0.476   2.314
30848WAT     H292787   0.583   0.528   2.256
30849WAT      O92788   4.703   7.662   3.036
30849WAT     H192789   4.714   7.599   3.113
30849WAT     H292790   4.717   7.613   2.950
30850WAT      O92791   1.679   8.762   4.141
30850WAT     H192792   1.583   8.743   4.120
30850WAT     H292793   1.732   8.764   4.057
30851WAT      O92794   1.612   7.372   1.098
30851WAT     H192795   1.678   7.362   1.024
30851WAT     H292796   1.556   7.289   1.104
30852WAT      O92797   6.983   6.976   2.229
30852WAT     H192798   6.888   6.949   2.216
30852WAT     H292799   6.988   7.057   2.288
30853WAT      O92800   9.639   0.243   8.776
30853WAT     H192801   9.609   0.334   8.805
30853WAT     H292802   9.648   0.183   8.856
30854WAT      O92803   9.591   2.860   8.544
30854WAT     H192804   9.620   2.845   8.638
30854WAT     H292805   9.658   2.821   8.481
30855WAT      O92806   8.710   2.705   1.019
30855WAT     H192807   8.625   2.743   0.982
30855WAT     H292808   8.770   2.678   0.943
30856WAT      O92809   5.038   1.570   0.920
30856WAT     H192810   5.055   1.614   1.009
30856WAT     H292811   4.964   1.503   0.929
30857WAT      O92812   1.051   2.126   3.383
30857WAT     H192813   0.978   2.150   3.319
30857WAT     H292814   1.068   2.028   3.379
30858WAT      O92815   2.210   4.971   0.963
30858WAT     H192816   2.145   5.012   0.898
30858WAT     H292817   2.245   4.885   0.925
30859WAT      O92818   5.831   0.105   9.286
30859WAT     H192819   5.890   0.028   9.259
30859WAT     H292820   5.863   0.188   9.241
30860WAT      O92821   3.104   6.077   6.030
30860WAT     H192822   3.099   6.151   5.963
30860WAT     H292823   3.126   6.115   6.120
30861WAT      O92824   0.574   4.292   2.865
30861WAT     H192825   0.529   4.294   2.776
30861WAT     H292826   0.671   4.313   2.854
30862WAT      O92827   0.550   1.763   5.080
30862WAT     H192828   0.620   1.829   5.107
30862WAT     H292829   0.574   1.723   4.991
30863WAT      O92830   2.005   2.682   0.104
30863WAT     H192831   1.951   2.598   0.114
30863WAT     H292832   1.971   2.752   0.166
30864WAT      O92833   7.990   1.033   8.169
30864WAT     H192834   8.086   1.006   8.171
30864WAT     H292835   7.971   1.096   8.244
30865WAT      O92836   0.310   1.311   3.249
30865WAT     H192837   0.398   1.350   3.222
30865WAT     H292838   0.257   1.380   3.298
30866WAT      O92839   1.521   6.043   5.670
30866WAT     H192840   1.551   6.056   5.764
30866WAT     H292841   1.430   6.084   5.658
30867WAT      O92842   4.833   2.489   7.815
30867WAT     H192843   4.828   2.567   7.753
30867WAT     H292844   4.745   2.441   7.816
30868WAT      O92845   4.288   4.346   0.763
30868WAT     H192846   4.252   4.252   0.759
30868WAT     H292847   4.300   4.381   0.671
30869WAT      O92848   8.604   2.459   5.908
30869WAT     H192849   8.650   2.448   5.996
30869WAT     H292850   8.506   2.447   5.921
30870WAT      O92851   8.772   8.014   0.470
30870WAT     H192852   8.685   8.013   0.419
30870WAT     H292853   8.831   7.941   0.436
30871WAT      O92854   9.085   3.712   8.966
30871WAT     H192855   9.128   3.725   9.055
30871WAT     H292856   9.155   3.686   8.899
30872WAT      O92857   7.834   7.002   8.056
30872WAT     H192858   7.854   7.049   8.142
30872WAT     H292859   7.823   7.070   7.983
30873WAT      O92860   4.834   5.183   9.653
30873WAT     H192861   4.830   5.241   9.735
30873WAT     H292862   4.820   5.240   9.572
30874WAT      O92863   0.682   3.357   5.169
30874WAT     H192864   0.702   3.322   5.077
30874WAT     H292865   0.745   3.316   5.235
30875WAT      O92866   4.922   3.214   4.367
30875WAT     H192867   4.896   3.307   4.391
30875WAT     H292868   4.851   3.172   4.311
30876WAT      O92869   1.164   3.938   5.090
30876WAT     H192870   1.085   3.909   5.144
30876WAT     H292871   1.218   3.858   5.065
30877WAT      O92872   3.327   1.797   0.427
30877WAT     H192873   3.300   1.720   0.486
30877WAT     H292874   3.410   1.773   0.377
30878WAT      O92875   1.352   7.661   4.462
30878WAT     H192876   1.443   7.651   4.501
30878WAT     H292877   1.329   7.579   4.410
30879WAT      O92878   1.954   5.680   7.958
30879WAT     H192879   1.870   5.732   7.966
30879WAT     H292880   2.003   5.681   8.046
30880WAT      O92881   3.638   9.530   7.146
30880WAT     H192882   3.605   9.486   7.062
30880WAT     H292883   3.733   9.504   7.162
30881WAT      O92884   7.585   8.508   3.483
30881WAT     H192885   7.650   8.568   3.438
30881WAT     H292886   7.582   8.420   3.437
30882WAT      O92887   5.926   9.018   5.123
30882WAT     H192888   5.886   8.961   5.051
30882WAT     H292889   6.001   8.967   5.166
30883WAT      O92890   0.774   2.768   9.292
30883WAT     H192891   0.709   2.729   9.227
30883WAT     H292892   0.835   2.832   9.245
30884WAT      O92893   1.138   8.343   5.456
30884WAT     H192894   1.130   8.276   5.382
30884WAT     H292895   1.221   8.397   5.443
30885WAT      O92896   6.140   6.979   8.573
30885WAT     H192897   6.185   7.050   8.519
30885WAT     H292898   6.054   7.014   8.608
30886WAT      O92899   2.909   6.078   3.790
30886WAT     H192900   2.933   6.027   3.707
30886WAT     H292901   2.847   6.022   3.845
30887WAT      O92902   3.357   5.571   5.272
30887WAT     H192903   3.294   5.642   5.303
30887WAT     H292904   3.306   5.490   5.245
30888WAT      O92905   3.164   6.931   8.586
30888WAT     H192906   3.182   6.836   8.609
30888WAT     H292907   3.065   6.947   8.583
30889WAT      O92908   1.417   0.005   8.315
30889WAT     H192909   1.351   0.076   8.289
30889WAT     H292910   1.367  -0.077   8.343
30890WAT      O92911   1.104   1.328   7.285
30890WAT     H192912   1.122   1.259   7.355
30890WAT     H292913   1.180   1.394   7.283
30891WAT      O92914   0.257   3.014   8.007
30891WAT     H192915   0.227   2.976   8.094
30891WAT     H292916   0.356   3.025   8.008
30892WAT      O92917   8.854   3.075   3.877
30892WAT     H192918   8.823   2.982   3.895
30892WAT     H292919   8.806   3.111   3.797
30893WAT      O92920   5.584   9.262   2.900
30893WAT     H192921   5.487   9.247   2.882
30893WAT     H292922   5.637   9.191   2.853
30894WAT      O92923   1.197   5.981   0.048
30894WAT     H192924   1.260   5.989   0.126
30894WAT     H292925   1.242   5.934  -0.027
30895WAT      O92926   5.519   5.842   1.308
30895WAT     H192927   5.526   5.936   1.343
30895WAT     H292928   5.605   5.817   1.264
30896WAT      O92929   7.807   7.567   2.517
30896WAT     H192930   7.789   7.553   2.614
30896WAT     H292931   7.737   7.521   2.463
30897WAT      O92932   6.795   5.112   8.630
30897WAT     H192933   6.831   5.179   8.696
30897WAT     H292934   6.818   5.141   8.537
30898WAT      O92935   5.930   7.452   2.000
30898WAT     H192936   5.959   7.411   2.087
30898WAT     H292937   5.836   7.487   2.010
30899WAT      O92938   0.486   6.920   6.027
30899WAT     H192939   0.523   6.863   5.954
30899WAT     H292940   0.439   6.999   5.987
30900WAT      O92941   2.875   3.415   7.617
30900WAT     H192942   2.798   3.405   7.555
30900WAT     H292943   2.860   3.359   7.699
30901WAT      O92944   1.373   1.781   0.622
30901WAT     H192945   1.429   1.772   0.704
30901WAT     H292946   1.407   1.719   0.551
30902WAT      O92947   4.039   9.016   9.120
30902WAT     H192948   3.993   8.962   9.190
30902WAT     H292949   4.098   8.957   9.064
30903WAT      O92950   5.652   5.699   7.505
30903WAT     H192951   5.639   5.756   7.586
30903WAT     H292952   5.637   5.754   7.423
30904WAT      O92953   2.449   3.584   8.210
30904WAT     H192954   2.487   3.605   8.300
30904WAT     H292955   2.356   3.620   8.204
30905WAT      O92956   5.017   2.503   1.066
30905WAT     H192957   5.060   2.414   1.049
30905WAT     H292958   5.023   2.525   1.163
30906WAT      O92959   8.981   6.278   3.816
30906WAT     H192960   8.964   6.266   3.914
30906WAT     H292961   8.915   6.223   3.764
30907WAT      O92962   3.135   8.667   8.225
30907WAT     H192963   3.135   8.763   8.252
30907WAT     H292964   3.095   8.657   8.134
30908WAT      O92965   9.128   0.532   7.705
30908WAT     H192966   9.125   0.590   7.786
30908WAT     H292967   9.036   0.520   7.669
30909WAT      O92968   9.700   2.545   2.383
30909WAT     H192969   9.681   2.632   2.337
30909WAT     H292970   9.634   2.477   2.353
30910WAT      O92971   3.867   6.561   7.002
30910WAT     H192972   3.780   6.533   7.041
30910WAT     H292973   3.857   6.575   6.903
30911WAT      O92974   0.045   5.922   0.517
30911WAT     H192975  -0.044   5.889   0.547
30911WAT     H292976   0.077   5.994   0.579
30912WAT      O92977   4.024   2.025   5.509
30912WAT     H192978   4.083   1.945   5.521
30912WAT     H292979   3.934   2.006   5.547
30913WAT      O92980   2.982   6.253   9.766
30913WAT     H192981   2.888   6.225   9.787
30913WAT     H292982   3.045   6.208   9.828
30914WAT      O92983   5.863   6.493   8.510
30914WAT     H192984   5.770   6.498   8.547
30914WAT     H292985   5.904   6.584   8.510
30915WAT      O92986   9.849   6.536   1.689
30915WAT     H192987   9.793   6.609   1.650
30915WAT     H292988   9.940   6.571   1.708
30916WAT      O92989   9.368   9.312   4.056
30916WAT     H192990   9.363   9.241   3.987
30916WAT     H292991   9.277   9.347   4.075
30917WAT      O92992   0.462   0.773   8.622
30917WAT     H192993   0.386   0.835   8.604
30917WAT     H292994   0.503   0.744   8.535
30918WAT      O92995   6.887   2.192   3.499
30918WAT     H192996   6.822   2.224   3.429
30918WAT     H292997   6.840   2.130   3.561
30919WAT      O92998   4.224   2.359   2.324
30919WAT     H192999   4.258   2.453   2.326
30919WAT     H293000   4.202   2.330   2.417
30920WAT      O93001   6.629   0.858   1.804
30920WAT     H193002   6.562   0.788   1.778
30920WAT     H293003   6.628   0.931   1.736
30921WAT      O93004   5.255   5.258   2.677
30921WAT     H193005   5.176   5.256   2.738
30921WAT     H293006   5.338   5.269   2.731
30922WAT      O93007   1.714   4.307   1.240
30922WAT     H193008   1.639   4.241   1.242
30922WAT     H293009   1.799   4.261   1.267
30923WAT      O93010   9.873   8.926   7.430
30923WAT     H193011   9.941   8.961   7.366
30923WAT     H293012   9.876   8.826   7.431
30924WAT      O93013   2.627   0.206   0.481
30924WAT     H193014   2.595   0.172   0.569
30924WAT     H293015   2.717   0.167   0.460
30925WAT      O93016   4.416   5.144   3.206
30925WAT     H193017   4.450   5.050   3.213
30925WAT     H293018   4.490   5.208   3.227
30926WAT      O93019   2.222   4.867   0.334
30926WAT     H193020   2.293   4.802   0.363
30926WAT     H293021   2.252   4.914   0.251
30927WAT      O93022   7.213   8.827   0.888
30927WAT     H193023   7.157   8.900   0.849
30927WAT     H293024   7.287   8.867   0.942
30928WAT      O93025   4.823   6.357   3.965
30928WAT     H193026   4.750   6.293   3.940
30928WAT     H293027   4.912   6.312   3.957
30929WAT      O93028   1.801   1.544   1.854
30929WAT     H193029   1.834   1.532   1.760
30929WAT     H293030   1.762   1.635   1.864
30930WAT      O93031   6.408   2.572   9.836
30930WAT     H193032   6.328   2.629   9.855
30930WAT     H293033   6.467   2.569   9.916
30931WAT      O93034   0.248   5.460   2.716
30931WAT     H193035   0.231   5.496   2.624
30931WAT     H293036   0.333   5.498   2.751
30932WAT      O93037   1.211   7.233   7.324
30932WAT     H193038   1.167   7.322   7.309
30932WAT     H293039   1.159   7.161   7.278
30933WAT      O93040   6.765   8.597   3.437
30933WAT     H193041   6.826   8.631   3.508
30933WAT     H293042   6.712   8.520   3.472
30934WAT      O93043   8.459   4.583   4.036
30934WAT     H193044   8.490   4.494   4.069
30934WAT     H293045   8.448   4.646   4.113
30935WAT      O93046   1.760   3.715   3.338
30935WAT     H193047   1.719   3.770   3.266
30935WAT     H293048   1.765   3.769   3.422
30936WAT      O93049   8.441   7.961   2.776
30936WAT     H193050   8.439   8.011   2.863
30936WAT     H293051   8.361   7.987   2.721
30937WAT      O93052   4.858   5.321   0.974
30937WAT     H193053   4.856   5.252   1.046
30937WAT     H293054   4.951   5.358   0.965
30938WAT      O93055   1.359   5.247   3.750
30938WAT     H193056   1.379   5.261   3.847
30938WAT     H293057   1.422   5.303   3.695
30939WAT      O93058   7.770   1.897   4.164
30939WAT     H193059   7.780   1.817   4.105
30939WAT     H293060   7.839   1.965   4.140
30940WAT      O93061   8.612   4.473   5.135
30940WAT     H193062   8.695   4.448   5.085
30940WAT     H293063   8.601   4.413   5.214
30941WAT      O93064   8.916   6.735   5.869
30941WAT     H193065   8.833   6.751   5.815
30941WAT     H293066   8.984   6.689   5.812
30942WAT      O93067   7.925   1.421   8.792
30942WAT     H193068   7.995   1.409   8.863
30942WAT     H293069   7.969   1.456   8.709
30943WAT      O93070   3.091   7.102   6.483
30943WAT     H193071   3.070   7.105   6.581
30943WAT     H293072   3.100   7.007   6.453
30944WAT      O93073   9.470   7.039   7.833
30944WAT     H193074   9.489   7.060   7.929
30944WAT     H293075   9.472   7.124   7.780
30945WAT      O93076   4.619   1.944   8.496
30945WAT     H193077   4.703   1.902   8.531
30945WAT     H293078   4.628   2.044   8.500
30946WAT      O93079   9.040   2.831   8.886
30946WAT     H193080   8.991   2.806   8.969
30946WAT     H293081   8.980   2.816   8.807
30947WAT      O93082   8.292   8.273   4.036
30947WAT     H193083   8.392   8.265   4.035
30947WAT     H293084   8.267   8.369   4.038
30948WAT      O93085   7.978   6.202   7.944
30948WAT     H193086   8.044   6.196   8.019
30948WAT     H293087   8.001   6.134   7.874
30949WAT      O93088   3.854   4.243   0.048
30949WAT     H193089   3.828   4.148   0.027
30949WAT     H293090   3.817   4.268   0.137
30950WAT      O93091   0.968   8.290   6.461
30950WAT     H193092   0.879   8.335   6.446
30950WAT     H293093   1.031   8.317   6.388
30951WAT      O93094   5.508   6.279   6.900
30951WAT     H193095   5.438   6.226   6.948
30951WAT     H293096   5.524   6.238   6.810
30952WAT      O93097   4.452   3.345   5.547
30952WAT     H193098   4.485   3.275   5.611
30952WAT     H293099   4.390   3.303   5.480
30953WAT      O93100   7.668   5.031   0.024
30953WAT     H193101   7.674   5.129   0.007
30953WAT     H293102   7.732   5.006   0.097
30954WAT      O93103   7.950   3.040   0.521
30954WAT     H193104   7.998   3.081   0.598
30954WAT     H293105   8.013   2.980   0.471
30955WAT      O93106   2.859   5.371   2.802
30955WAT     H193107   2.931   5.435   2.828
30955WAT     H293108   2.897   5.279   2.797
30956WAT      O93109   3.962   0.805   3.233
30956WAT     H193110   4.018   0.739   3.283
30956WAT     H293111   3.910   0.757   3.162
30957WAT      O93112   9.075   2.969   1.582
30957WAT     H193113   8.997   2.970   1.644
30957WAT     H293114   9.140   2.899   1.610
30958WAT      O93115   4.977   0.800   5.548
30958WAT     H193116   4.957   0.842   5.459
30958WAT     H293117   4.990   0.702   5.536
30959WAT      O93118   8.876   4.405   4.682
30959WAT     H193119   8.887   4.392   4.780
30959WAT     H293120   8.937   4.478   4.651
30960WAT      O93121   3.600   2.056   0.315
30960WAT     H193122   3.598   2.147   0.357
30960WAT     H293123   3.510   2.034   0.278
30961WAT      O93124   5.705   7.213   3.943
30961WAT     H193125   5.713   7.123   3.987
30961WAT     H293126   5.751   7.282   3.999
30962WAT      O93127   1.493   8.735   2.093
30962WAT     H193128   1.571   8.673   2.086
30962WAT     H293129   1.509   8.802   2.166
30963WAT      O93130   4.078   2.883   5.810
30963WAT     H193131   3.982   2.858   5.824
30963WAT     H293132   4.087   2.983   5.816
30964WAT      O93133   0.476   4.898   7.948
30964WAT     H193134   0.511   4.841   8.023
30964WAT     H293135   0.393   4.856   7.911
30965WAT      O93136   3.004   7.561   1.256
30965WAT     H193137   2.922   7.514   1.290
30965WAT     H293138   3.081   7.542   1.317
30966WAT      O93139   4.116   2.337   2.557
30966WAT     H193140   4.026   2.380   2.556
30966WAT     H293141   4.178   2.389   2.615
30967WAT      O93142   3.844   5.061   8.110
30967WAT     H193143   3.934   5.078   8.070
30967WAT     H293144   3.811   5.143   8.156
30968WAT      O93145   6.560   4.921   8.354
30968WAT     H193146   6.548   4.855   8.428
30968WAT     H293147   6.647   4.904   8.308
30969WAT      O93148   8.258   7.201   2.527
30969WAT     H193149   8.356   7.216   2.532
30969WAT     H293150   8.211   7.269   2.582
30970WAT      O93151   6.691   4.245   5.909
30970WAT     H193152   6.750   4.298   5.970
30970WAT     H293153   6.734   4.157   5.888
30971WAT      O93154   7.946   4.767   4.335
30971WAT     H193155   7.920   4.851   4.287
30971WAT     H293156   7.947   4.784   4.433
30972WAT      O93157   6.475   5.274   9.334
30972WAT     H193158   6.506   5.215   9.409
30972WAT     H293159   6.502   5.369   9.353
30973WAT      O93160   5.233   1.015   0.925
30973WAT     H193161   5.302   1.048   0.862
30973WAT     H293162   5.277   0.976   1.006
30974WAT      O93163   5.300   1.559   6.928
30974WAT     H193164   5.380   1.541   6.985
30974WAT     H293165   5.294   1.490   6.855
30975WAT      O93166   2.076   6.765   7.462
30975WAT     H193167   2.092   6.667   7.471
30975WAT     H293168   1.980   6.784   7.483
30976WAT      O93169   8.064   3.649   6.558
30976WAT     H193170   8.100   3.635   6.650
30976WAT     H293171   8.135   3.628   6.490
30977WAT      O93172   5.435   8.581   7.018
30977WAT     H193173   5.440   8.539   7.109
30977WAT     H293174   5.411   8.511   6.951
30978WAT      O93175   0.966   2.151   9.176
30978WAT     H193176   1.034   2.081   9.153
30978WAT     H293177   0.980   2.231   9.119
30979WAT      O93178   4.083   5.325   1.397
30979WAT     H193179   4.157   5.262   1.371
30979WAT     H293180   4.009   5.318   1.330
30980WAT      O93181   2.293   3.569   1.521
30980WAT     H193182   2.374   3.564   1.581
30980WAT     H293183   2.225   3.503   1.553
30981WAT      O93184   7.910   7.331   6.184
30981WAT     H193185   7.928   7.244   6.137
30981WAT     H293186   7.990   7.358   6.237
30982WAT      O93187   0.792   4.925   3.015
30982WAT     H193188   0.820   5.021   3.006
30982WAT     H293189   0.695   4.920   3.037
30983WAT      O93190   4.687   0.086   7.490
30983WAT     H193191   4.680   0.026   7.570
30983WAT     H293192   4.736   0.039   7.417
30984WAT      O93193   5.098   9.747   7.096
30984WAT     H193194   5.152   9.827   7.121
30984WAT     H293195   5.087   9.687   7.176
30985WAT      O93196   4.228   7.433   6.424
30985WAT     H193197   4.225   7.533   6.433
30985WAT     H293198   4.204   7.391   6.512
30986WAT      O93199   1.200   8.063   2.580
30986WAT     H193200   1.117   8.032   2.534
30986WAT     H293201   1.177   8.093   2.673
30987WAT      O93202   4.765   9.557   3.223
30987WAT     H193203   4.861   9.529   3.223
30987WAT     H293204   4.713   9.496   3.163
30988WAT      O93205   3.235   6.656   8.664
30988WAT     H193206   3.297   6.726   8.701
30988WAT     H293207   3.236   6.576   8.723
30989WAT      O93208   9.472  -0.002   8.477
30989WAT     H193209   9.402   0.065   8.503
30989WAT     H293210   9.555   0.046   8.448
30990WAT      O93211   6.520   7.108   3.074
30990WAT     H193212   6.602   7.065   3.112
30990WAT     H293213   6.478   7.166   3.144
30991WAT      O93214   3.580   4.802   1.070
30991WAT     H193215   3.586   4.858   1.153
30991WAT     H293216   3.661   4.818   1.014
30992WAT      O93217   5.892   4.826   3.237
30992WAT     H193218   5.990   4.841   3.249
30992WAT     H293219   5.874   4.729   3.224
30993WAT      O93220   6.192   2.701   5.983
30993WAT     H193221   6.146   2.790   5.983
30993WAT     H293222   6.125   2.628   5.975
30994WAT      O93223   1.858   8.549   1.343
30994WAT     H193224   1.899   8.476   1.290
30994WAT     H293225   1.823   8.513   1.429
30995WAT      O93226   9.052   1.078   8.084
30995WAT     H193227   8.988   1.154   8.080
30995WAT     H293228   9.143   1.112   8.111
30996WAT      O93229   3.499   0.517   9.175
30996WAT     H193230   3.552   0.505   9.091
30996WAT     H293231   3.456   0.607   9.175
30997WAT      O93232   8.498   8.502   2.397
30997WAT     H193233   8.420   8.473   2.343
30997WAT     H293234   8.556   8.563   2.343
30998WAT      O93235   4.381   1.235   6.790
30998WAT     H193236   4.362   1.312   6.730
30998WAT     H293237   4.310   1.228   6.860
30999WAT      O93238   8.973   5.465   2.788
30999WAT     H193239   8.930   5.485   2.700
30999WAT     H293240   8.971   5.367   2.804
31000WAT      O93241   7.845   9.703   5.061
31000WAT     H193242   7.861   9.667   4.969
31000WAT     H293243   7.871   9.634   5.129
31001WAT      O93244   8.862   3.305   5.682
31001WAT     H193245   8.840   3.337   5.590
31001WAT     H293246   8.828   3.212   5.693
31002WAT      O93247   5.661   2.844   0.088
31002WAT     H193248   5.645   2.828   0.186
31002WAT     H293249   5.706   2.764   0.049
31003WAT      O93250   4.343   9.647   4.522
31003WAT     H193251   4.244   9.655   4.526
31003WAT     H293252   4.372   9.635   4.427
31004WAT      O93253   5.660   1.910   2.220
31004WAT     H193254   5.716   1.835   2.255
31004WAT     H293255   5.571   1.911   2.266
31005WAT      O93256   0.336   7.930   2.806
31005WAT     H193257   0.358   7.845   2.758
31005WAT     H293258   0.402   7.944   2.880
31006WAT      O93259   8.368   2.119   1.165
31006WAT     H193260   8.391   2.081   1.255
31006WAT     H293261   8.452   2.135   1.114
31007WAT      O93262   7.381   6.133   5.838
31007WAT     H193263   7.467   6.171   5.875
31007WAT     H293264   7.316   6.120   5.913
31008WAT      O93265   3.599   1.051   3.872
31008WAT     H193266   3.688   1.093   3.890
31008WAT     H293267   3.527   1.120   3.876
31009WAT      O93268   1.108   6.847   4.844
31009WAT     H193269   1.195   6.894   4.829
31009WAT     H293270   1.034   6.902   4.807
31010WAT      O93271   1.720   3.420   0.872
31010WAT     H193272   1.812   3.381   0.881
31010WAT     H293273   1.656   3.366   0.926
31011WAT      O93274   4.487   0.895   8.047
31011WAT     H193275   4.474   0.923   7.952
31011WAT     H293276   4.476   0.975   8.107
31012WAT      O93277   2.682   5.694   7.602
31012WAT     H193278   2.694   5.678   7.504
31012WAT     H293279   2.587   5.720   7.620
31013WAT      O93280   3.433   3.952   0.631
31013WAT     H193281   3.450   4.034   0.577
31013WAT     H293282   3.382   3.886   0.575
31014WAT      O93283   2.071   1.448   9.397
31014WAT     H193284   2.159   1.445   9.445
31014WAT     H293285   2.036   1.355   9.386
31015WAT      O93286   6.922   9.665   9.367
31015WAT     H193287   6.836   9.671   9.316
31015WAT     H293288   6.903   9.639   9.462
31016WAT      O93289   5.954   4.985   1.979
31016WAT     H193290   5.985   4.942   1.894
31016WAT     H293291   5.868   5.033   1.962
31017WAT      O93292   6.817   4.901   1.921
31017WAT     H193293   6.774   4.991   1.918
31017WAT     H293294   6.917   4.911   1.924
31018WAT      O93295   7.346   4.209   8.541
31018WAT     H193296   7.305   4.119   8.530
31018WAT     H293297   7.434   4.212   8.494
31019WAT      O93298   6.700   6.855   0.066
31019WAT     H193299   6.688   6.924   0.137
31019WAT     H293300   6.643   6.879  -0.013
31020WAT      O93301   5.134   0.178   2.534
31020WAT     H193302   5.181   0.115   2.596
31020WAT     H293303   5.155   0.272   2.559
31021WAT      O93304   7.655   5.667   9.264
31021WAT     H193305   7.676   5.703   9.173
31021WAT     H293306   7.698   5.577   9.275
31022WAT      O93307   2.869   7.812   1.617
31022WAT     H193308   2.922   7.892   1.646
31022WAT     H293309   2.902   7.731   1.666
31023WAT      O93310   1.403   5.954   6.810
31023WAT     H193311   1.489   5.916   6.774
31023WAT     H293312   1.326   5.915   6.760
31024WAT      O93313   8.279   8.308   0.793
31024WAT     H193314   8.236   8.260   0.870
31024WAT     H293315   8.255   8.263   0.707
31025WAT      O93316   0.434   0.086   2.672
31025WAT     H193317   0.343   0.116   2.646
31025WAT     H293318   0.501   0.116   2.604
31026WAT      O93319   7.561   6.354   5.299
31026WAT     H193320   7.544   6.396   5.389
31026WAT     H293321   7.474   6.328   5.258
31027WAT      O93322   3.731   7.401   4.166
31027WAT     H193323   3.829   7.416   4.175
31027WAT     H293324   3.713   7.306   4.141
31028WAT      O93325   1.426   0.646   1.814
31028WAT     H193326   1.333   0.673   1.837
31028WAT     H293327   1.425   0.564   1.757
31029WAT      O93328   1.349   3.119   4.203
31029WAT     H193329   1.345   3.219   4.196
31029WAT     H293330   1.435   3.086   4.164
31030WAT      O93331   3.816   4.780   2.540
31030WAT     H193332   3.746   4.804   2.607
31030WAT     H293333   3.786   4.811   2.449
31031WAT      O93334   0.144   9.155   0.372
31031WAT     H193335   0.152   9.088   0.298
31031WAT     H293336   0.048   9.164   0.399
31032WAT      O93337   9.611   5.669   8.865
31032WAT     H193338   9.586   5.574   8.882
31032WAT     H293339   9.706   5.684   8.889
31033WAT      O93340   9.692   1.585   6.818
31033WAT     H193341   9.722   1.680   6.832
31033WAT     H293342   9.592   1.584   6.809
31034WAT      O93343   1.566   2.128   1.850
31034WAT     H193344   1.618   2.068   1.911
31034WAT     H293345   1.603   2.221   1.854
31035WAT      O93346   8.716   0.450   6.590
31035WAT     H193347   8.727   0.533   6.644
31035WAT     H293348   8.805   0.406   6.578
31036WAT      O93349   8.476   5.783   3.334
31036WAT     H193350   8.476   5.845   3.412
31036WAT     H293351   8.386   5.741   3.325
31037WAT      O93352   5.744   0.987   4.423
31037WAT     H193353   5.660   0.934   4.431
31037WAT     H293354   5.729   1.066   4.363
31038WAT      O93355   5.886   6.770   0.016
31038WAT     H193356   5.813   6.800   0.076
31038WAT     H293357   5.973   6.773   0.065
31039WAT      O93358   8.376   6.129   7.536
31039WAT     H193359   8.332   6.060   7.594
31039WAT     H293360   8.341   6.120   7.442
31040WAT      O93361   1.008   4.601   9.181
31040WAT     H193362   1.053   4.613   9.092
31040WAT     H293363   1.070   4.630   9.254
31041WAT      O93364   5.030   9.240   2.974
31041WAT     H193365   5.049   9.150   2.933
31041WAT     H293366   5.113   9.296   2.969
31042WAT      O93367   7.243   2.338   4.568
31042WAT     H193368   7.340   2.321   4.547
31042WAT     H293369   7.193   2.354   4.483
31043WAT      O93370   8.225   7.169   9.137
31043WAT     H193371   8.250   7.089   9.083
31043WAT     H293372   8.271   7.250   9.100
31044WAT      O93373   6.605   0.325   2.603
31044WAT     H193374   6.608   0.226   2.612
31044WAT     H293375   6.517   0.353   2.566
31045WAT      O93376   5.172   4.898   8.765
31045WAT     H193377   5.117   4.837   8.708
31045WAT     H293378   5.112   4.954   8.822
31046WAT      O93379   0.931   9.153   0.829
31046WAT     H193380   0.836   9.171   0.856
31046WAT     H293381   0.992   9.172   0.907
31047WAT      O93382   3.647   5.202   9.250
31047WAT     H193383   3.658   5.301   9.254
31047WAT     H293384   3.559   5.179   9.208
31048WAT      O93385   5.426   9.666   7.911
31048WAT     H193386   5.443   9.732   7.838
31048WAT     H293387   5.506   9.662   7.972
31049WAT      O93388   7.825   7.190   7.835
31049WAT     H193389   7.838   7.263   7.768
31049WAT     H293390   7.774   7.115   7.793
31050WAT      O93391   0.097   7.947   8.246
31050WAT     H193392   0.174   7.995   8.205
31050WAT     H293393   0.110   7.940   8.345
31051WAT      O93394   7.690   0.851   5.314
31051WAT     H193395   7.694   0.895   5.224
31051WAT     H293396   7.781   0.815   5.337
31052WAT      O93397   9.105   7.446   4.087
31052WAT     H193398   9.199   7.433   4.120
31052WAT     H293399   9.072   7.536   4.116
31053WAT      O93400   8.579   6.701   6.168
31053WAT     H193401   8.676   6.700   6.144
31053WAT     H293402   8.548   6.795   6.180
31054WAT      O93403   4.337   6.079   1.645
31054WAT     H193404   4.371   6.091   1.739
31054WAT     H293405   4.237   6.073   1.647
31055WAT      O93406   4.001   0.704   4.202
31055WAT     H193407   4.068   0.707   4.276
31055WAT     H293408   3.970   0.609   4.189
31056WAT      O93409   0.113   6.594   8.099
31056WAT     H193410   0.027   6.645   8.088
31056WAT     H293411   0.139   6.595   8.196
31057WAT      O93412   8.335   4.820   2.432
31057WAT     H193413   8.357   4.725   2.409
31057WAT     H293414   8.254   4.849   2.380
31058WAT      O93415   2.996   8.495   3.589
31058WAT     H193416   2.995   8.473   3.687
31058WAT     H293417   2.928   8.439   3.542
31059WAT      O93418   7.717   7.503   5.568
31059WAT     H193419   7.705   7.470   5.474
31059WAT     H293420   7.628   7.530   5.605
31060WAT      O93421   6.514   1.073   1.960
31060WAT     H193422   6.572   0.994   1.942
31060WAT     H293423   6.505   1.129   1.877
31061WAT      O93424   7.125   2.225   6.884
31061WAT     H193425   7.073   2.229   6.798
31061WAT     H293426   7.222   2.240   6.865
31062WAT      O93427   6.313   5.288   4.217
31062WAT     H193428   6.250   5.282   4.294
31062WAT     H293429   6.280   5.231   4.142
31063WAT      O93430   6.494   7.015   1.338
31063WAT     H193431   6.452   7.091   1.287
31063WAT     H293432   6.517   6.941   1.275
31064WAT      O93433   9.636   3.000   0.895
31064WAT     H193434   9.705   3.016   0.824
31064WAT     H293435   9.680   2.957   0.974
31065WAT      O93436   8.333   5.385   3.030
31065WAT     H193437   8.243   5.427   3.042
31065WAT     H293438   8.341   5.306   3.091
31066WAT      O93439   4.072   1.401   3.274
31066WAT     H193440   4.116   1.410   3.184
31066WAT     H293441   4.142   1.400   3.345
31067WAT      O93442   7.984   9.080   5.035
31067WAT     H193443   8.030   9.146   4.977
31067WAT     H293444   7.904   9.123   5.078
31068WAT      O93445   6.225   7.617   3.050
31068WAT     H193446   6.130   7.586   3.049
31068WAT     H293447   6.250   7.650   2.959
31069WAT      O93448   9.190   8.731   3.922
31069WAT     H193449   9.222   8.645   3.960
31069WAT     H293450   9.097   8.749   3.953
31070WAT      O93451   5.226   4.473   2.970
31070WAT     H193452   5.312   4.493   3.018
31070WAT     H293453   5.192   4.385   3.000
31071WAT      O93454   6.650   1.324   2.794
31071WAT     H193455   6.709   1.370   2.860
31071WAT     H293456   6.682   1.345   2.701
31072WAT      O93457   3.200   7.732   5.044
31072WAT     H193458   3.220   7.637   5.016
31072WAT     H293459   3.115   7.762   5.000
31073WAT      O93460   9.235   1.807   2.981
31073WAT     H193461   9.231   1.816   2.881
31073WAT     H293462   9.162   1.746   3.012
31074WAT      O93463   9.642   9.753   4.482
31074WAT     H193464   9.697   9.714   4.556
31074WAT     H293465   9.550   9.713   4.485
31075WAT      O93466   6.801   1.885   7.138
31075WAT     H193467   6.897   1.858   7.126
31075WAT     H293468   6.797   1.982   7.162
31076WAT      O93469   3.607   9.450   6.541
31076WAT     H193470   3.675   9.434   6.612
31076WAT     H293471   3.566   9.363   6.513
31077WAT      O93472   0.020   3.428   9.174
31077WAT     H193473   0.031   3.432   9.273
31077WAT     H293474   0.041   3.336   9.141
31078WAT      O93475   0.355   8.085   8.810
31078WAT     H193476   0.265   8.127   8.806
31078WAT     H293477   0.412   8.120   8.735
31079WAT      O93478   9.509   9.547   2.075
31079WAT     H193479   9.426   9.501   2.043
31079WAT     H293480   9.565   9.572   1.996
31080WAT      O93481   7.972   3.054   4.765
31080WAT     H193482   7.981   2.967   4.813
31080WAT     H293483   8.030   3.123   4.810
31081WAT      O93484   3.092   4.543   3.631
31081WAT     H193485   3.067   4.594   3.548
31081WAT     H293486   3.182   4.501   3.618
31082WAT      O93487   5.188   1.346   2.963
31082WAT     H193488   5.256   1.273   2.969
31082WAT     H293489   5.220   1.426   3.013
31083WAT      O93490   7.594   6.725   9.075
31083WAT     H193491   7.551   6.638   9.098
31083WAT     H293492   7.620   6.773   9.159
31084WAT      O93493   2.599   1.470   5.558
31084WAT     H193494   2.549   1.457   5.644
31084WAT     H293495   2.669   1.400   5.549
31085WAT      O93496   0.342   4.194   7.623
31085WAT     H193497   0.402   4.210   7.701
31085WAT     H293498   0.390   4.140   7.553
31086WAT      O93499   7.691   1.544   4.205
31086WAT     H193500   7.679   1.625   4.263
31086WAT     H293501   7.789   1.524   4.197
31087WAT      O93502   1.349   9.733   3.183
31087WAT     H193503   1.383   9.743   3.089
31087WAT     H293504   1.339   9.636   3.205
31088WAT      O93505   6.762   5.294   3.187
31088WAT     H193506   6.841   5.254   3.234
31088WAT     H293507   6.713   5.355   3.249
31089WAT      O93508   0.053   3.718   2.831
31089WAT     H193509  -0.047   3.728   2.831
31089WAT     H293510   0.095   3.806   2.853
31090WAT      O93511   0.354   1.271   2.213
31090WAT     H193512   0.382   1.180   2.180
31090WAT     H293513   0.347   1.269   2.312
31091WAT      O93514   4.140   9.675   6.728
31091WAT     H193515   4.227   9.702   6.688
31091WAT     H293516   4.141   9.577   6.749
31092WAT      O93517   8.798   7.826   0.143
31092WAT     H193518   8.866   7.804   0.213
31092WAT     H293519   8.789   7.925   0.136
31093WAT      O93520   3.822   6.533   1.387
31093WAT     H193521   3.847   6.501   1.478
31093WAT     H293522   3.900   6.580   1.346
31094WAT      O93523   8.833   1.778   4.695
31094WAT     H193524   8.736   1.803   4.696
31094WAT     H293525   8.877   1.816   4.613
31095WAT      O93526   1.296   0.769   4.228
31095WAT     H193527   1.259   0.815   4.146
31095WAT     H293528   1.368   0.825   4.268
31096WAT      O93529   9.026   5.539   2.016
31096WAT     H193530   8.987   5.454   1.981
31096WAT     H293531   9.028   5.607   1.942
31097WAT      O93532   2.811   9.410   3.373
31097WAT     H193533   2.827   9.333   3.435
31097WAT     H293534   2.810   9.377   3.278
31098WAT      O93535   7.108   6.541   4.696
31098WAT     H193536   7.143   6.448   4.705
31098WAT     H293537   7.181   6.606   4.715
31099WAT      O93538   2.439   8.435   1.492
31099WAT     H193539   2.420   8.419   1.589
31099WAT     H293540   2.462   8.348   1.448
31100WAT      O93541   8.164   1.678   1.765
31100WAT     H193542   8.125   1.764   1.732
31100WAT     H293543   8.090   1.616   1.792
31101WAT      O93544   4.147   8.216   3.267
31101WAT     H193545   4.142   8.159   3.184
31101WAT     H293546   4.064   8.270   3.275
31102WAT      O93547   7.266   4.763   8.961
31102WAT     H193548   7.258   4.863   8.966
31102WAT     H293549   7.326   4.737   8.886
31103WAT      O93550   2.089   0.070   7.868
31103WAT     H193551   2.007   0.105   7.823
31103WAT     H293552   2.105   0.119   7.953
31104WAT      O93553   3.357   0.931   3.761
31104WAT     H193554   3.393   0.862   3.698
31104WAT     H293555   3.433   0.974   3.810
31105WAT      O93556   9.162   8.496   5.511
31105WAT     H193557   9.200   8.537   5.428
31105WAT     H293558   9.235   8.481   5.577
31106WAT      O93559   5.532   8.284   3.070
31106WAT     H193560   5.484   8.307   3.154
31106WAT     H293561   5.575   8.366   3.032
31107WAT      O93562   3.207   5.887   9.140
31107WAT     H193563   3.249   5.865   9.228
31107WAT     H293564   3.126   5.944   9.155
31108WAT      O93565   4.742   3.846   3.433
31108WAT     H193566   4.728   3.938   3.396
31108WAT     H293567   4.753   3.782   3.357
31109WAT      O93568   1.201   8.597   5.233
31109WAT     H193569   1.142   8.557   5.162
31109WAT     H293570   1.255   8.526   5.276
31110WAT      O93571   5.225   8.038   0.188
31110WAT     H193572   5.320   8.054   0.214
31110WAT     H293573   5.170   8.021   0.270
31111WAT      O93574   6.707   8.824   0.019
31111WAT     H193575   6.763   8.831   0.101
31111WAT     H293576   6.721   8.905  -0.038
31112WAT      O93577   4.413   1.192   8.709
31112WAT     H193578   4.378   1.276   8.668
31112WAT     H293579   4.511   1.203   8.729
31113WAT      O93580   5.306   8.041   9.386
31113WAT     H193581   5.262   8.026   9.475
31113WAT     H293582   5.383   7.978   9.376
31114WAT      O93583   1.869   6.401   3.531
31114WAT     H193584   1.914   6.474   3.582
31114WAT     H293585   1.904   6.398   3.438
31115WAT      O93586   9.419   3.127   9.525
31115WAT     H193587   9.446   3.206   9.580
31115WAT     H293588   9.323   3.135   9.500
31116WAT      O93589   6.838   4.607   5.243
31116WAT     H193590   6.778   4.531   5.218
31116WAT     H293591   6.851   4.666   5.164
31117WAT      O93592   4.091   9.245   8.481
31117WAT     H193593   4.081   9.146   8.478
31117WAT     H293594   4.001   9.288   8.485
31118WAT      O93595   0.483   2.667   1.281
31118WAT     H193596   0.549   2.685   1.354
31118WAT     H293597   0.525   2.683   1.192
31119WAT      O93598   2.858   4.049   2.691
31119WAT     H193599   2.801   4.099   2.626
31119WAT     H293600   2.920   4.113   2.736
31120WAT      O93601   1.927   4.920   9.861
31120WAT     H193602   1.866   4.869   9.922
31120WAT     H293603   2.004   4.862   9.835
31121WAT      O93604   2.346   5.682   6.693
31121WAT     H193605   2.306   5.752   6.752
31121WAT     H293606   2.427   5.644   6.737
31122WAT      O93607   4.210   6.345   5.012
31122WAT     H193608   4.289   6.284   5.009
31122WAT     H293609   4.126   6.291   5.004
31123WAT      O93610   9.548   9.452   4.311
31123WAT     H193611   9.634   9.487   4.272
31123WAT     H293612   9.471   9.493   4.263
31124WAT      O93613   3.251   0.719   8.290
31124WAT     H193614   3.200   0.662   8.355
31124WAT     H293615   3.208   0.809   8.283
31125WAT      O93616   2.973   7.973   4.551
31125WAT     H193617   2.901   8.036   4.580
31125WAT     H293618   3.028   8.014   4.479
31126WAT      O93619   5.431   4.350   3.284
31126WAT     H193620   5.340   4.377   3.314
31126WAT     H293621   5.431   4.254   3.258
31127WAT      O93622   3.763   1.683   4.266
31127WAT     H193623   3.790   1.678   4.170
31127WAT     H293624   3.844   1.698   4.323
31128WAT      O93625   8.125   1.973   7.089
31128WAT     H193626   8.172   1.898   7.043
31128WAT     H293627   8.113   1.951   7.186
31129WAT      O93628   3.081   3.296   3.155
31129WAT     H193629   3.126   3.270   3.070
31129WAT     H293630   3.034   3.383   3.142
31130WAT      O93631   5.158   0.888   3.349
31130WAT     H193632   5.229   0.849   3.290
31130WAT     H293633   5.072   0.896   3.297
31131WAT      O93634   6.262   6.785   7.158
31131WAT     H193635   6.273   6.743   7.068
31131WAT     H293636   6.331   6.857   7.170
31132WAT      O93637   8.787   0.005   8.451
31132WAT     H193638   8.832   0.052   8.375
31132WAT     H293639   8.690   0.029   8.453
31133WAT      O93640   9.483   8.393   0.074
31133WAT     H193641   9.457   8.448   0.153
31133WAT     H293642   9.401   8.363   0.025
31134WAT      O93643   3.100   1.549   2.080
31134WAT     H193644   3.052   1.493   2.012
31134WAT     H293645   3.110   1.642   2.044
31135WAT      O93646   3.485   4.099   7.900
31135WAT     H193647   3.394   4.102   7.859
31135WAT     H293648   3.513   4.190   7.927
31136WAT      O93649   4.550   2.957   8.430
31136WAT     H193650   4.634   2.962   8.484
31136WAT     H293651   4.566   2.899   8.350
31137WAT      O93652   6.166   0.798   6.555
31137WAT     H193653   6.224   0.828   6.480
31137WAT     H293654   6.120   0.877   6.595
31138WAT      O93655   9.164   0.145   2.859
31138WAT     H193656   9.117   0.095   2.932
31138WAT     H293657   9.117   0.231   2.842
31139WAT      O93658   6.420   3.207   4.832
31139WAT     H193659   6.451   3.155   4.752
31139WAT     H293660   6.348   3.157   4.878
31140WAT      O93661   0.679   7.766   3.935
31140WAT     H193662   0.739   7.807   4.003
31140WAT     H293663   0.733   7.718   3.866
31141WAT      O93664   3.712   3.551   2.445
31141WAT     H193665   3.762   3.638   2.442
31141WAT     H293666   3.655   3.543   2.363
31142WAT      O93667   1.170   3.746   2.948
31142WAT     H193668   1.126   3.761   2.859
31142WAT     H293669   1.218   3.659   2.948
31143WAT      O93670   3.353   7.758   6.942
31143WAT     H193671   3.395   7.691   6.882
31143WAT     H293672   3.396   7.847   6.928
31144WAT      O93673   2.065   6.412   1.282
31144WAT     H193674   2.110   6.482   1.228
31144WAT     H293675   2.001   6.361   1.224
31145WAT      O93676   2.681   5.652   7.343
31145WAT     H193677   2.730   5.565   7.338
31145WAT     H293678   2.639   5.672   7.254
31146WAT      O93679   3.827   3.280   3.720
31146WAT     H193680   3.912   3.289   3.668
31146WAT     H293681   3.835   3.202   3.782
31147WAT      O93682   4.947   0.717   2.664
31147WAT     H193683   5.017   0.699   2.734
31147WAT     H293684   4.982   0.784   2.599
31148WAT      O93685   3.607   9.031   0.886
31148WAT     H193686   3.626   8.989   0.975
31148WAT     H293687   3.674   9.000   0.819
31149WAT      O93688   6.314   6.515   4.269
31149WAT     H193689   6.250   6.533   4.343
31149WAT     H293690   6.328   6.417   4.259
31150WAT      O93691   9.547   6.965   6.026
31150WAT     H193692   9.586   7.043   6.074
31150WAT     H293693   9.600   6.883   6.047
31151WAT      O93694   8.991   7.522   7.978
31151WAT     H193695   9.017   7.476   7.893
31151WAT     H293696   9.071   7.528   8.038
31152WAT      O93697   8.267   5.505   3.321
31152WAT     H193698   8.222   5.594   3.309
31152WAT     H293699   8.211   5.433   3.280
31153WAT      O93700   9.862   5.153   4.623
31153WAT     H193701   9.886   5.133   4.528
31153WAT     H293702   9.925   5.105   4.684
31154WAT      O93703   5.801   8.159   8.183
31154WAT     H193704   5.863   8.224   8.141
31154WAT     H293705   5.761   8.200   8.265
31155WAT      O93706   2.535   2.142   0.606
31155WAT     H193707   2.584   2.222   0.572
31155WAT     H293708   2.574   2.113   0.694
31156WAT      O93709   6.671   3.488   7.712
31156WAT     H193710   6.658   3.401   7.665
31156WAT     H293711   6.740   3.476   7.783
31157WAT      O93712   7.063   4.959   0.183
31157WAT     H193713   6.990   4.901   0.218
31157WAT     H293714   7.124   4.986   0.258
31158WAT      O93715   5.982   1.794   0.705
31158WAT     H193716   6.081   1.788   0.717
31158WAT     H293717   5.953   1.735   0.630
31159WAT      O93718   7.642   2.563   1.302
31159WAT     H193719   7.619   2.622   1.224
31159WAT     H293720   7.635   2.615   1.387
31160WAT      O93721   7.612   9.804   6.328
31160WAT     H193722   7.635   9.733   6.393
31160WAT     H293723   7.557   9.875   6.374
31161WAT      O93724   7.286   5.505   2.390
31161WAT     H193725   7.306   5.601   2.409
31161WAT     H293726   7.371   5.458   2.366
31162WAT      O93727   9.465   8.384   7.577
31162WAT     H193728   9.403   8.409   7.502
31162WAT     H293729   9.451   8.447   7.654
31163WAT      O93730   3.573   3.388   9.736
31163WAT     H193731   3.520   3.433   9.664
31163WAT     H293732   3.536   3.296   9.752
31164WAT      O93733   1.946   8.894   0.909
31164WAT     H193734   2.007   8.821   0.878
31164WAT     H293735   1.859   8.854   0.940
31165WAT      O93736   8.491   2.963   2.334
31165WAT     H193737   8.462   2.905   2.410
31165WAT     H293738   8.432   3.044   2.330
31166WAT      O93739   7.240   3.562   0.133
31166WAT     H193740   7.156   3.559   0.186
31166WAT     H293741   7.318   3.538   0.192
31167WAT      O93742   0.805   2.872   2.245
31167WAT     H193743   0.811   2.972   2.250
31167WAT     H293744   0.733   2.840   2.306
31168WAT      O93745   2.133   9.682   8.470
31168WAT     H193746   2.047   9.632   8.461
31168WAT     H293747   2.195   9.655   8.396
31169WAT      O93748   9.675   8.550   3.943
31169WAT     H193749   9.599   8.544   3.879
31169WAT     H293750   9.753   8.499   3.907
31170WAT      O93751   8.292   1.928   5.482
31170WAT     H193752   8.309   2.000   5.549
31170WAT     H293753   8.372   1.917   5.424
31171WAT      O93754   5.416   1.150   0.764
31171WAT     H193755   5.472   1.182   0.840
31171WAT     H293756   5.395   1.226   0.703
31172WAT      O93757   2.790   7.980   7.716
31172WAT     H193758   2.706   8.026   7.745
31172WAT     H293759   2.767   7.892   7.675
31173WAT      O93760   5.298   0.329   9.024
31173WAT     H193761   5.258   0.271   8.954
31173WAT     H293762   5.333   0.272   9.098
31174WAT      O93763   4.612   5.140   5.475
31174WAT     H193764   4.646   5.233   5.488
31174WAT     H293765   4.528   5.142   5.421
31175WAT      O93766   8.601   0.868   2.279
31175WAT     H193767   8.523   0.869   2.341
31175WAT     H293768   8.578   0.918   2.195
31176WAT      O93769   5.804   6.522   0.816
31176WAT     H193770   5.902   6.501   0.813
31176WAT     H293771   5.753   6.445   0.777
31177WAT      O93772   0.874   0.087   7.907
31177WAT     H193773   0.804   0.128   7.965
31177WAT     H293774   0.899   0.151   7.834
31178WAT      O93775   1.989   4.766   2.219
31178WAT     H193776   2.049   4.817   2.280
31178WAT     H293777   1.957   4.826   2.145
31179WAT      O93778   7.081   0.225   0.830
31179WAT     H193779   7.084   0.320   0.799
31179WAT     H293780   7.108   0.164   0.755
31180WAT      O93781   4.621   8.873   3.189
31180WAT     H193782   4.584   8.966   3.183
31180WAT     H293783   4.629   8.848   3.286
31181WAT      O93784   2.927   9.681   8.827
31181WAT     H193785   2.935   9.712   8.732
31181WAT     H293786   2.869   9.600   8.832
31182WAT      O93787   1.021   2.878   7.980
31182WAT     H193788   0.953   2.880   7.907
31182WAT     H293789   1.094   2.943   7.959
31183WAT      O93790   1.845   7.145   7.784
31183WAT     H193791   1.930   7.188   7.752
31183WAT     H293792   1.795   7.211   7.840
31184WAT      O93793   2.524   2.772   5.874
31184WAT     H193794   2.509   2.834   5.950
31184WAT     H293795   2.535   2.679   5.908
31185WAT      O93796   1.641   0.336   1.346
31185WAT     H193797   1.677   0.245   1.368
31185WAT     H293798   1.547   0.343   1.379
31186WAT      O93799   5.210   6.013   4.542
31186WAT     H193800   5.135   5.970   4.592
31186WAT     H293801   5.280   6.046   4.606
31187WAT      O93802   0.323   2.267   9.087
31187WAT     H193803   0.404   2.294   9.140
31187WAT     H293804   0.294   2.344   9.030
31188WAT      O93805   1.863   3.717   9.622
31188WAT     H193806   1.898   3.681   9.535
31188WAT     H293807   1.935   3.769   9.668
31189WAT      O93808   8.995   1.245   1.430
31189WAT     H193809   9.001   1.312   1.504
31189WAT     H293810   8.944   1.165   1.462
31190WAT      O93811   2.288   4.279   7.806
31190WAT     H193812   2.315   4.361   7.756
31190WAT     H293813   2.362   4.252   7.868
31191WAT      O93814   5.807   8.873   8.044
31191WAT     H193815   5.774   8.938   7.975
31191WAT     H293816   5.904   8.856   8.030
31192WAT      O93817   6.868   2.284   1.965
31192WAT     H193818   6.924   2.258   1.887
31192WAT     H293819   6.896   2.231   2.045
31193WAT      O93820   3.213   8.308   0.714
31193WAT     H193821   3.169   8.227   0.675
31193WAT     H293822   3.312   8.300   0.705
31194WAT      O93823   4.943   7.365   9.398
31194WAT     H193824   4.974   7.314   9.318
31194WAT     H293825   4.973   7.460   9.391
31195WAT      O93826   9.503   9.795   4.064
31195WAT     H193827   9.589   9.838   4.092
31195WAT     H293828   9.523   9.717   4.005
31196WAT      O93829   5.875   1.830   5.417
31196WAT     H193830   5.959   1.824   5.363
31196WAT     H293831   5.819   1.906   5.383
31197WAT      O93832   8.059   9.787   6.276
31197WAT     H193833   8.024   9.755   6.364
31197WAT     H293834   8.158   9.800   6.283
31198WAT      O93835   8.321   5.849   8.574
31198WAT     H193836   8.390   5.915   8.605
31198WAT     H293837   8.289   5.875   8.483
31199WAT      O93838   6.531   2.759   4.575
31199WAT     H193839   6.475   2.821   4.520
31199WAT     H293840   6.614   2.736   4.525
31200WAT      O93841   7.567   0.642   3.314
31200WAT     H193842   7.508   0.561   3.314
31200WAT     H293843   7.648   0.624   3.257
31201WAT      O93844   2.232   5.668   5.254
31201WAT     H193845   2.239   5.695   5.350
31201WAT     H293846   2.265   5.574   5.243
31202WAT      O93847   3.586   7.188   8.913
31202WAT     H193848   3.626   7.275   8.943
31202WAT     H293849   3.634   7.113   8.958
31203WAT      O93850   1.733   3.293   2.899
31203WAT     H193851   1.730   3.287   2.999
31203WAT     H293852   1.643   3.270   2.862
31204WAT      O93853   3.173   8.601   2.012
31204WAT     H193854   3.115   8.608   2.093
31204WAT     H293855   3.136   8.532   1.950
31205WAT      O93856   8.009   2.648   6.181
31205WAT     H193857   7.996   2.748   6.176
31205WAT     H293858   8.013   2.611   6.088
31206WAT      O93859   7.279   1.657   6.770
31206WAT     H193860   7.250   1.649   6.674
31206WAT     H293861   7.300   1.753   6.790
31207WAT      O93862   0.546   6.710   2.987
31207WAT     H193863   0.474   6.713   2.918
31207WAT     H293864   0.546   6.795   3.040
31208WAT      O93865   8.385   9.321   7.967
31208WAT     H193866   8.317   9.394   7.959
31208WAT     H293867   8.459   9.350   8.028
31209WAT      O93868   4.331   3.390   9.682
31209WAT     H193869   4.251   3.337   9.708
31209WAT     H293870   4.412   3.356   9.731
31210WAT      O93871   7.399   1.657   7.285
31210WAT     H193872   7.344   1.643   7.202
31210WAT     H293873   7.477   1.716   7.263
31211WAT      O93874   6.377   8.856   4.755
31211WAT     H193875   6.428   8.865   4.669
31211WAT     H293876   6.420   8.785   4.811
31212WAT      O93877   5.019   6.626   3.944
31212WAT     H193878   5.086   6.700   3.954
31212WAT     H293879   5.037   6.576   3.859
31213WAT      O93880   7.245   5.002   9.322
31213WAT     H193881   7.335   4.957   9.324
31213WAT     H293882   7.177   4.937   9.287
31214WAT      O93883   5.585   3.363   9.634
31214WAT     H193884   5.616   3.359   9.729
31214WAT     H293885   5.521   3.439   9.624
31215WAT      O93886   8.685   0.578   5.181
31215WAT     H193887   8.749   0.638   5.132
31215WAT     H293888   8.625   0.633   5.239
31216WAT      O93889   6.006   7.843   5.368
31216WAT     H193890   5.984   7.899   5.448
31216WAT     H293891   5.953   7.758   5.371
31217WAT      O93892   6.665   9.691   6.719
31217WAT     H193893   6.694   9.738   6.636
31217WAT     H293894   6.686   9.593   6.710
31218WAT      O93895   6.105   5.134   8.393
31218WAT     H193896   6.188   5.179   8.426
31218WAT     H293897   6.049   5.105   8.470
31219WAT      O93898   3.088   6.256   2.034
31219WAT     H193899   3.014   6.202   1.992
31219WAT     H293900   3.175   6.233   1.990
31220WAT      O93901   4.561   6.394   0.657
31220WAT     H193902   4.543   6.355   0.567
31220WAT     H293903   4.574   6.493   0.649
31221WAT      O93904   8.483   3.859   8.442
31221WAT     H193905   8.398   3.806   8.446
31221WAT     H293906   8.532   3.835   8.359
31222WAT      O93907   9.282   6.406   7.474
31222WAT     H193908   9.243   6.462   7.401
31222WAT     H293909   9.289   6.311   7.444
31223WAT      O93910   2.849   2.215   9.276
31223WAT     H193911   2.783   2.276   9.233
31223WAT     H293912   2.835   2.216   9.375
31224WAT      O93913   3.832   8.797   4.830
31224WAT     H193914   3.890   8.867   4.789
31224WAT     H293915   3.817   8.818   4.927
31225WAT      O93916   9.328   0.340   5.476
31225WAT     H193917   9.390   0.398   5.423
31225WAT     H293918   9.244   0.325   5.424
31226WAT      O93919   2.132   5.421   5.888
31226WAT     H193920   2.224   5.421   5.927
31226WAT     H293921   2.101   5.515   5.876
31227WAT      O93922   4.943   6.632   6.029
31227WAT     H193923   5.012   6.680   6.083
31227WAT     H293924   4.952   6.533   6.044
31228WAT      O93925   7.524   4.400   0.084
31228WAT     H193926   7.465   4.451   0.020
31228WAT     H293927   7.493   4.305   0.090
31229WAT      O93928   8.114   0.586   0.510
31229WAT     H193929   8.112   0.682   0.484
31229WAT     H293930   8.020   0.550   0.509
31230WAT      O93931   5.253   1.031   7.848
31230WAT     H193932   5.239   1.130   7.841
31230WAT     H293933   5.349   1.010   7.832
31231WAT      O93934   7.593   0.757   9.720
31231WAT     H193935   7.623   0.734   9.813
31231WAT     H293936   7.607   0.677   9.661
31232WAT      O93937   5.565   1.859   0.829
31232WAT     H193938   5.602   1.909   0.752
31232WAT     H293939   5.546   1.764   0.802
31233WAT      O93940   3.730   0.232   5.430
31233WAT     H193941   3.766   0.323   5.448
31233WAT     H293942   3.631   0.233   5.438
31234WAT      O93943   8.786   1.965   2.477
31234WAT     H193944   8.740   2.016   2.550
31234WAT     H293945   8.747   1.873   2.470
31235WAT      O93946   4.033   0.107   3.677
31235WAT     H193947   3.934   0.093   3.691
31235WAT     H293948   4.060   0.194   3.719
31236WAT      O93949   3.369   1.116   1.716
31236WAT     H193950   3.295   1.168   1.760
31236WAT     H293951   3.343   1.096   1.621
31237WAT      O93952   3.208   5.408   3.197
31237WAT     H193953   3.241   5.340   3.263
31237WAT     H293954   3.117   5.440   3.224
31238WAT      O93955   7.018   8.296   8.115
31238WAT     H193956   6.920   8.286   8.126
31238WAT     H293957   7.065   8.247   8.189
31239WAT      O93958   5.365   4.478   7.512
31239WAT     H193959   5.451   4.525   7.535
31239WAT     H293960   5.368   4.384   7.548
31240WAT      O93961   3.396   4.211   2.110
31240WAT     H193962   3.339   4.240   2.187
31240WAT     H293963   3.409   4.112   2.114
31241WAT      O93964   2.080   5.305   5.214
31241WAT     H193965   1.999   5.354   5.182
31241WAT     H293966   2.056   5.250   5.294
31242WAT      O93967   9.026   1.173   1.850
31242WAT     H193968   8.980   1.085   1.865
31242WAT     H293969   9.082   1.167   1.767
31243WAT      O93970   0.733   1.978   3.198
31243WAT     H193971   0.662   1.951   3.133
31243WAT     H293972   0.747   2.077   3.193
31244WAT      O93973   2.118   0.569   5.000
31244WAT     H193974   2.102   0.501   5.071
31244WAT     H293975   2.209   0.610   5.013
31245WAT      O93976   7.821   3.202   6.849
31245WAT     H193977   7.863   3.259   6.778
31245WAT     H293978   7.872   3.213   6.934
31246WAT      O93979   4.387   5.615   4.136
31246WAT     H193980   4.454   5.544   4.114
31246WAT     H293981   4.399   5.692   4.073
31247WAT      O93982   6.345   4.035   5.201
31247WAT     H193983   6.393   4.028   5.288
31247WAT     H293984   6.408   4.017   5.126
31248WAT      O93985   8.275   0.094   1.178
31248WAT     H193986   8.335   0.145   1.240
31248WAT     H293987   8.182   0.129   1.186
31249WAT      O93988   7.963   4.213   5.229
31249WAT     H193989   7.969   4.129   5.175
31249WAT     H293990   8.047   4.267   5.217
31250WAT      O93991   0.769   5.315   2.410
31250WAT     H193992   0.735   5.253   2.339
31250WAT     H293993   0.698   5.328   2.479
31251WAT      O93994   5.282   3.834   9.802
31251WAT     H193995   5.225   3.878   9.871
31251WAT     H293996   5.226   3.769   9.749
31252WAT      O93997   0.608   8.715   6.026
31252WAT     H193998   0.685   8.763   6.068
31252WAT     H293999   0.535   8.781   6.007
31253WAT      O94000   8.195   1.610   7.855
31253WAT     H194001   8.208   1.586   7.951
31253WAT     H294002   8.112   1.665   7.845
31254WAT      O94003   8.882   5.589   7.625
31254WAT     H194004   8.797   5.541   7.603
31254WAT     H294005   8.894   5.592   7.725
31255WAT      O94006   1.560   0.668   7.226
31255WAT     H194007   1.565   0.572   7.196
31255WAT     H294008   1.520   0.671   7.318
31256WAT      O94009   8.268   5.000   7.729
31256WAT     H194010   8.206   5.005   7.651
31256WAT     H294011   8.309   5.090   7.745
31257WAT      O94012   5.161   7.972   4.874
31257WAT     H194013   5.115   7.883   4.880
31257WAT     H294014   5.200   7.994   4.963
31258WAT      O94015   1.357   4.308   0.608
31258WAT     H194016   1.321   4.312   0.515
31258WAT     H294017   1.413   4.226   0.620
31259WAT      O94018   5.997   1.043   5.893
31259WAT     H194019   6.070   0.976   5.901
31259WAT     H294020   6.005   1.111   5.966
31260WAT      O94021   2.153   4.941   1.619
31260WAT     H194022   2.218   5.017   1.631
31260WAT     H294023   2.136   4.898   1.708
31261WAT      O94024   2.843   7.818   1.336
31261WAT     H194025   2.911   7.765   1.286
31261WAT     H294026   2.858   7.809   1.434
31262WAT      O94027   7.781   1.847   2.223
31262WAT     H194028   7.834   1.764   2.213
31262WAT     H294029   7.761   1.863   2.320
31263WAT      O94030   0.549   1.846   1.411
31263WAT     H194031   0.539   1.850   1.511
31263WAT     H294032   0.644   1.865   1.386
31264WAT      O94033   2.483   3.009   0.742
31264WAT     H194034   2.493   2.919   0.785
31264WAT     H294035   2.539   3.076   0.791
31265WAT      O94036   5.652   6.156   3.120
31265WAT     H194037   5.701   6.243   3.124
31265WAT     H294038   5.561   6.170   3.081
31266WAT      O94039   9.184   1.061   8.608
31266WAT     H194040   9.108   1.091   8.665
31266WAT     H294041   9.229   1.141   8.567
31267WAT      O94042   3.165   9.612   2.516
31267WAT     H194043   3.250   9.639   2.561
31267WAT     H294044   3.105   9.692   2.507
31268WAT      O94045   2.277   2.078   4.430
31268WAT     H194046   2.195   2.135   4.432
31268WAT     H294047   2.352   2.127   4.474
31269WAT      O94048   5.349   3.943   8.386
31269WAT     H194049   5.408   3.918   8.309
31269WAT     H294050   5.306   4.032   8.367
31270WAT      O94051   9.627   4.742   2.839
31270WAT     H194052   9.610   4.833   2.877
31270WAT     H294053   9.688   4.691   2.900
31271WAT      O94054   6.248   2.761   9.454
31271WAT     H194055   6.219   2.694   9.386
31271WAT     H294056   6.195   2.749   9.538
31272WAT      O94057   8.386   6.436   9.128
31272WAT     H194058   8.412   6.477   9.215
31272WAT     H294059   8.286   6.426   9.124
31273WAT      O94060   7.201   5.545   4.175
31273WAT     H194061   7.162   5.529   4.266
31273WAT     H294062   7.299   5.559   4.183
31274WAT      O94063   0.806   0.259   5.813
31274WAT     H194064   0.784   0.166   5.841
31274WAT     H294065   0.729   0.296   5.760
31275WAT      O94066   3.340   4.533   7.494
31275WAT     H194067   3.258   4.510   7.441
31275WAT     H294068   3.313   4.581   7.577
31276WAT      O94069   9.055   3.761   6.019
31276WAT     H194070   9.084   3.675   5.976
31276WAT     H294071   8.977   3.743   6.079
31277WAT      O94072   8.022   3.746   4.709
31277WAT     H194073   8.064   3.656   4.716
31277WAT     H294074   7.922   3.737   4.714
31278WAT      O94075   0.300   1.653   8.670
31278WAT     H194076   0.374   1.586   8.663
31278WAT     H294077   0.321   1.732   8.612
31279WAT      O94078   9.615   6.485   1.449
31279WAT     H194079   9.601   6.584   1.457
31279WAT     H294080   9.708   6.467   1.418
31280WAT      O94081   6.146   6.487   6.818
31280WAT     H194082   6.222   6.460   6.760
31280WAT     H294083   6.060   6.473   6.769
31281WAT      O94084   0.807   9.112   4.711
31281WAT     H194085   0.866   9.193   4.702
31281WAT     H294086   0.863   9.034   4.738
31282WAT      O94087   1.142   9.062   8.793
31282WAT     H194088   1.190   9.138   8.751
31282WAT     H294089   1.043   9.073   8.778
31283WAT      O94090   1.276   8.710   0.036
31283WAT     H194091   1.285   8.753   0.126
31283WAT     H294092   1.347   8.744  -0.025
31284WAT      O94093   5.457   7.273   9.604
31284WAT     H194094   5.443   7.217   9.522
31284WAT     H294095   5.380   7.336   9.615
31285WAT      O94096   9.002   4.504   7.371
31285WAT     H194097   8.960   4.513   7.281
31285WAT     H294098   9.101   4.498   7.361
31286WAT      O94099   9.425   8.436   6.120
31286WAT     H194100   9.470   8.379   6.189
31286WAT     H294101   9.353   8.383   6.075
31287WAT      O94102   9.564   8.036   5.030
31287WAT     H194103   9.649   8.087   5.023
31287WAT     H294104   9.567   7.976   5.109
31288WAT      O94105   4.132   2.298   9.651
31288WAT     H194106   4.229   2.316   9.666
31288WAT     H294107   4.112   2.302   9.553
31289WAT      O94108   4.265   3.261   9.215
31289WAT     H194109   4.305   3.182   9.169
31289WAT     H294110   4.216   3.318   9.149
31290WAT      O94111   4.568   8.591   7.051
31290WAT     H194112   4.663   8.570   7.027
31290WAT     H294113   4.537   8.530   7.124
31291WAT      O94114   3.013   1.452   1.063
31291WAT     H194115   3.051   1.371   1.108
31291WAT     H294116   2.938   1.489   1.118
31292WAT      O94117   8.962   9.068   9.123
31292WAT     H194118   8.864   9.087   9.112
31292WAT     H294119   8.976   9.009   9.202
31293WAT      O94120   4.313   8.826   4.138
31293WAT     H194121   4.378   8.856   4.208
31293WAT     H294122   4.220   8.836   4.173
31294WAT      O94123   1.445   4.549   7.865
31294WAT     H194124   1.405   4.518   7.779
31294WAT     H294125   1.374   4.592   7.921
31295WAT      O94126   7.265   1.074   1.324
31295WAT     H194127   7.319   1.047   1.245
31295WAT     H294128   7.198   1.143   1.298
31296WAT      O94129   2.844   5.945   7.350
31296WAT     H194130   2.944   5.952   7.341
31296WAT     H294131   2.811   5.873   7.289
31297WAT      O94132   7.891   0.939   4.230
31297WAT     H194133   7.943   1.024   4.224
31297WAT     H294134   7.950   0.862   4.207
31298WAT      O94135   5.549   2.314   1.939
31298WAT     H194136   5.581   2.219   1.938
31298WAT     H294137   5.561   2.354   1.848
31299WAT      O94138   3.375   9.175   5.595
31299WAT     H194139   3.461   9.130   5.614
31299WAT     H294140   3.354   9.240   5.668
31300WAT      O94141   7.325   6.297   8.924
31300WAT     H194142   7.236   6.338   8.907
31300WAT     H294143   7.395   6.348   8.874
31301WAT      O94144   1.667   8.007   5.714
31301WAT     H194145   1.711   7.920   5.688
31301WAT     H294146   1.698   8.079   5.652
31302WAT      O94147   0.720   1.290   1.508
31302WAT     H194148   0.732   1.197   1.543
31302WAT     H294149   0.628   1.322   1.529
31303WAT      O94150   4.492   8.037   6.783
31303WAT     H194151   4.480   8.032   6.683
31303WAT     H294152   4.530   7.951   6.816
31304WAT      O94153   2.962   2.688   2.148
31304WAT     H194154   3.021   2.639   2.084
31304WAT     H294155   3.018   2.738   2.214
31305WAT      O94156   3.750   8.461   3.486
31305WAT     H194157   3.772   8.540   3.429
31305WAT     H294158   3.833   8.408   3.502
31306WAT      O94159   4.469   5.574   3.299
31306WAT     H194160   4.464   5.674   3.305
31306WAT     H294161   4.488   5.536   3.390
31307WAT      O94162   5.582   8.090   4.495
31307WAT     H194163   5.668   8.125   4.532
31307WAT     H294164   5.515   8.083   4.569
31308WAT      O94165   5.478   5.926   1.653
31308WAT     H194166   5.555   5.959   1.598
31308WAT     H294167   5.511   5.896   1.742
31309WAT      O94168   3.476   5.295   3.942
31309WAT     H194169   3.460   5.196   3.944
31309WAT     H294170   3.388   5.343   3.947
31310WAT      O94171   6.577   9.047   8.088
31310WAT     H194172   6.526   9.055   8.173
31310WAT     H294173   6.652   9.113   8.088
31311WAT      O94174   5.963   8.193   1.548
31311WAT     H194175   5.996   8.164   1.638
31311WAT     H294176   5.975   8.292   1.539
31312WAT      O94177   1.604   0.594   2.006
31312WAT     H194178   1.552   0.625   1.927
31312WAT     H294179   1.671   0.663   2.031
31313WAT      O94180   5.754   9.582   3.684
31313WAT     H194181   5.853   9.584   3.701
31313WAT     H294182   5.706   9.562   3.769
31314WAT      O94183   8.622   3.275   8.452
31314WAT     H194184   8.646   3.364   8.412
31314WAT     H294185   8.615   3.206   8.380
31315WAT      O94186   0.769   5.764   4.902
31315WAT     H194187   0.839   5.692   4.908
31315WAT     H294188   0.679   5.722   4.896
31316WAT      O94189   5.500   9.133   0.570
31316WAT     H194190   5.571   9.159   0.636
31316WAT     H294191   5.539   9.071   0.502
31317WAT      O94192   3.054   2.847   5.552
31317WAT     H194193   3.059   2.752   5.522
31317WAT     H294194   3.031   2.905   5.474
31318WAT      O94195   5.139   1.697   1.803
31318WAT     H194196   5.045   1.693   1.839
31318WAT     H294197   5.183   1.780   1.836
31319WAT      O94198   9.852   0.573   4.288
31319WAT     H194199   9.846   0.638   4.363
31319WAT     H294200   9.948   0.548   4.274
31320WAT      O94201   9.763   0.854   7.829
31320WAT     H194202   9.675   0.849   7.877
31320WAT     H294203   9.761   0.795   7.748
31321WAT      O94204   9.094   3.756   0.167
31321WAT     H194205   9.072   3.716   0.255
31321WAT     H294206   9.019   3.815   0.137
31322WAT      O94207   0.506   4.723   1.267
31322WAT     H194208   0.424   4.665   1.258
31322WAT     H294209   0.497   4.780   1.349
31323WAT      O94210   7.933   2.478   2.519
31323WAT     H194211   7.958   2.574   2.533
31323WAT     H294212   7.837   2.464   2.544
31324WAT      O94213   7.551   8.240   0.361
31324WAT     H194214   7.620   8.171   0.382
31324WAT     H294215   7.572   8.324   0.411
31325WAT      O94216   2.296   9.615   2.682
31325WAT     H194217   2.207   9.616   2.728
31325WAT     H294218   2.290   9.557   2.600
31326WAT      O94219   7.075   1.844   7.415
31326WAT     H194220   7.150   1.805   7.469
31326WAT     H294221   7.087   1.942   7.406
31327WAT      O94222   5.890   0.089   1.230
31327WAT     H194223   5.941   0.085   1.316
31327WAT     H294224   5.915   0.172   1.181
31328WAT      O94225   1.542   1.741   7.439
31328WAT     H194226   1.554   1.668   7.371
31328WAT     H294227   1.498   1.819   7.395
31329WAT      O94228   6.293   4.589   5.332
31329WAT     H194229   6.258   4.669   5.380
31329WAT     H294230   6.218   4.525   5.314
31330WAT      O94231   6.699   8.566   9.255
31330WAT     H194232   6.691   8.662   9.228
31330WAT     H294233   6.784   8.551   9.305
31331WAT      O94234   7.272   9.492   5.438
31331WAT     H194235   7.265   9.589   5.414
31331WAT     H294236   7.359   9.475   5.485
31332WAT      O94237   6.181   0.169   4.976
31332WAT     H194238   6.095   0.217   4.962
31332WAT     H294239   6.163   0.073   5.000
31333WAT      O94240   5.693   7.444   4.883
31333WAT     H194241   5.685   7.539   4.913
31333WAT     H294242   5.704   7.385   4.963
31334WAT      O94243   9.781   4.005   6.630
31334WAT     H194244   9.761   3.912   6.600
31334WAT     H294245   9.875   4.010   6.664
31335WAT      O94246   6.027   3.253   9.635
31335WAT     H194247   6.106   3.253   9.573
31335WAT     H294248   5.952   3.304   9.592
31336WAT      O94249   3.921   0.200   7.904
31336WAT     H194250   3.921   0.279   7.964
31336WAT     H294251   3.936   0.229   7.810
31337WAT      O94252   0.513   0.536   3.438
31337WAT     H194253   0.575   0.514   3.362
31337WAT     H294254   0.424   0.563   3.401
31338WAT      O94255   3.601   7.063   9.511
31338WAT     H194256   3.552   7.003   9.574
31338WAT     H294257   3.699   7.054   9.525
31339WAT      O94258   1.112   2.409   2.832
31339WAT     H194259   1.211   2.397   2.838
31339WAT     H294260   1.083   2.480   2.896
31340WAT      O94261   9.250   8.907   1.722
31340WAT     H194262   9.248   8.818   1.768
31340WAT     H294263   9.196   8.973   1.774
31341WAT      O94264   2.971   2.190   2.757
31341WAT     H194265   3.048   2.126   2.752
31341WAT     H294266   2.957   2.217   2.852
31342WAT      O94267   1.130   2.500   7.109
31342WAT     H194268   1.092   2.441   7.037
31342WAT     H294269   1.133   2.595   7.077
31343WAT      O94270   6.739   7.355   1.546
31343WAT     H194271   6.692   7.424   1.600
31343WAT     H294272   6.838   7.368   1.555
31344WAT      O94273   5.631   7.168   3.677
31344WAT     H194274   5.645   7.211   3.766
31344WAT     H294275   5.581   7.082   3.689
31345WAT      O94276   5.328   0.915   3.557
31345WAT     H194277   5.259   0.908   3.484
31345WAT     H294278   5.418   0.932   3.516
31346WAT      O94279   0.275   5.252   1.041
31346WAT     H194280   0.340   5.254   1.117
31346WAT     H294281   0.193   5.202   1.068
31347WAT      O94282   1.131   6.368   5.714
31347WAT     H194283   1.036   6.397   5.724
31347WAT     H294284   1.192   6.446   5.730
31348WAT      O94285   8.389   1.301   1.968
31348WAT     H194286   8.470   1.274   2.020
31348WAT     H294287   8.314   1.324   2.030
31349WAT      O94288   4.482   0.210   5.374
31349WAT     H194289   4.472   0.278   5.446
31349WAT     H294290   4.421   0.133   5.392
31350WAT      O94291   4.535   9.263   3.740
31350WAT     H194292   4.573   9.336   3.798
31350WAT     H294293   4.475   9.205   3.795
31351WAT      O94294   1.335   9.828   7.949
31351WAT     H194295   1.265   9.790   7.889
31351WAT     H294296   1.324   9.790   8.041
31352WAT      O94297   5.360   9.800   1.754
31352WAT     H194298   5.375   9.725   1.690
31352WAT     H294299   5.308   9.872   1.708
31353WAT      O94300   0.899   9.404   3.647
31353WAT     H194301   0.818   9.449   3.609
31353WAT     H294302   0.885   9.387   3.744
31354WAT      O94303   0.688   5.532   2.667
31354WAT     H194304   0.642   5.447   2.642
31354WAT     H294305   0.633   5.610   2.637
31355WAT      O94306   9.495   8.823   9.476
31355WAT     H194307   9.556   8.861   9.407
31355WAT     H294308   9.546   8.759   9.534
31356WAT      O94309   4.862   8.086   9.070
31356WAT     H194310   4.878   8.147   8.992
31356WAT     H294311   4.934   8.100   9.138
31357WAT      O94312   4.993   2.264   8.395
31357WAT     H194313   5.083   2.308   8.399
31357WAT     H294314   4.934   2.316   8.333
31358WAT      O94315   3.227   5.847   3.764
31358WAT     H194316   3.203   5.879   3.856
31358WAT     H294317   3.160   5.881   3.698
31359WAT      O94318   4.442   3.371   0.726
31359WAT     H194319   4.352   3.398   0.693
31359WAT     H294320   4.433   3.300   0.795
31360WAT      O94321   1.396   7.866   3.082
31360WAT     H194322   1.393   7.767   3.093
31360WAT     H294323   1.470   7.891   3.020
31361WAT      O94324   9.144   1.486   3.606
31361WAT     H194325   9.067   1.492   3.542
31361WAT     H294326   9.142   1.397   3.651
31362WAT      O94327   1.909   4.416   2.638
31362WAT     H194328   1.893   4.494   2.698
31362WAT     H294329   1.884   4.440   2.545
31363WAT      O94330   6.501   1.818   9.655
31363WAT     H194331   6.530   1.743   9.597
31363WAT     H294332   6.509   1.791   9.751
31364WAT      O94333   0.031   1.273   4.675
31364WAT     H194334  -0.044   1.259   4.610
31364WAT     H294335   0.105   1.208   4.655
31365WAT      O94336   0.353   3.533   3.063
31365WAT     H194337   0.268   3.583   3.080
31365WAT     H294338   0.402   3.519   3.149
31366WAT      O94339   6.312   4.266   3.948
31366WAT     H194340   6.385   4.216   3.996
31366WAT     H294341   6.229   4.265   4.004
31367WAT      O94342   7.533   0.173   3.532
31367WAT     H194343   7.601   0.225   3.481
31367WAT     H294344   7.531   0.205   3.627
31368WAT      O94345   9.279   4.476   2.603
31368WAT     H194346   9.294   4.523   2.516
31368WAT     H294347   9.303   4.537   2.679
31369WAT      O94348   6.180   9.601   9.753
31369WAT     H194349   6.260   9.623   9.808
31369WAT     H294350   6.134   9.685   9.725
31370WAT      O94351   9.686   8.402   0.663
31370WAT     H194352   9.669   8.495   0.697
31370WAT     H294353   9.780   8.375   0.684
31371WAT      O94354   8.772   5.015   5.076
31371WAT     H194355   8.732   5.103   5.102
31371WAT     H294356   8.852   4.996   5.132
31372WAT      O94357   1.762   1.195   1.252
31372WAT     H194358   1.687   1.255   1.280
31372WAT     H294359   1.725   1.107   1.223
31373WAT      O94360   7.124   2.079   2.634
31373WAT     H194361   7.186   2.051   2.561
31373WAT     H294362   7.144   2.025   2.716
31374WAT      O94363   9.117   4.837   5.908
31374WAT     H194364   9.161   4.750   5.885
31374WAT     H294365   9.044   4.855   5.843
31375WAT      O94366   4.655   8.289   8.068
31375WAT     H194367   4.570   8.246   8.036
31375WAT     H294368   4.723   8.288   7.995
31376WAT      O94369   6.773   3.314   5.894
31376WAT     H194370   6.839   3.239   5.891
31376WAT     H294371   6.744   3.329   5.988
31377WAT      O94372   4.198   1.355   2.989
31377WAT     H194373   4.118   1.296   3.002
31377WAT     H294374   4.238   1.337   2.899
31378WAT      O94375   0.766   9.186   2.675
31378WAT     H194376   0.748   9.247   2.598
31378WAT     H294377   0.681   9.141   2.703
31379WAT      O94378   7.914   0.446   9.709
31379WAT     H194379   7.948   0.374   9.770
31379WAT     H294380   7.946   0.428   9.616
31380WAT      O94381   9.245   2.613   5.893
31380WAT     H194382   9.159   2.616   5.944
31380WAT     H294383   9.231   2.649   5.801
31381WAT      O94384   6.266   6.315   5.843
31381WAT     H194385   6.298   6.326   5.937
31381WAT     H294386   6.236   6.220   5.830
31382WAT      O94387   4.067   2.139   1.987
31382WAT     H194388   4.098   2.078   2.060
31382WAT     H294389   4.066   2.233   2.021
31383WAT      O94390   4.556   3.306   4.047
31383WAT     H194391   4.554   3.299   4.147
31383WAT     H294392   4.500   3.383   4.018
31384WAT      O94393   2.338   0.231   7.341
31384WAT     H194394   2.299   0.193   7.257
31384WAT     H294395   2.397   0.162   7.384
31385WAT      O94396   9.640   5.684   6.911
31385WAT     H194397   9.721   5.740   6.925
31385WAT     H294398   9.656   5.620   6.836
31386WAT      O94399   7.934   8.393   7.892
31386WAT     H194400   7.846   8.407   7.938
31386WAT     H294401   7.936   8.445   7.807
31387WAT      O94402   8.927   8.488   8.218
31387WAT     H194403   8.859   8.422   8.184
31387WAT     H294404   8.907   8.509   8.314
31388WAT      O94405   2.880   5.325   0.662
31388WAT     H194406   2.949   5.369   0.604
31388WAT     H294407   2.857   5.235   0.625
31389WAT      O94408   5.242   6.532   8.486
31389WAT     H194409   5.194   6.591   8.421
31389WAT     H294410   5.337   6.520   8.456
31390WAT      O94411   6.754   2.365   0.069
31390WAT     H194412   6.697   2.420   0.131
31390WAT     H294413   6.758   2.409  -0.021
31391WAT      O94414   1.148   3.649   8.952
31391WAT     H194415   1.163   3.669   8.855
31391WAT     H294416   1.050   3.645   8.970
31392WAT      O94417   1.096   6.247   5.136
31392WAT     H194418   1.143   6.321   5.184
31392WAT     H294419   1.138   6.159   5.161
31393WAT      O94420   9.856   2.847   4.246
31393WAT     H194421   9.909   2.925   4.278
31393WAT     H294422   9.823   2.794   4.325
31394WAT      O94423   5.503   8.398   5.238
31394WAT     H194424   5.536   8.440   5.154
31394WAT     H294425   5.579   8.353   5.285
31395WAT      O94426   9.413   1.578   8.904
31395WAT     H194427   9.447   1.623   8.986
31395WAT     H294428   9.463   1.612   8.824
31396WAT      O94429   0.074   4.329   6.053
31396WAT     H194430   0.081   4.291   6.145
31396WAT     H294431   0.053   4.427   6.059
31397WAT      O94432   4.156   5.262   7.666
31397WAT     H194433   4.081   5.318   7.702
31397WAT     H294434   4.128   5.219   7.580
31398WAT      O94435   3.292   9.570   8.629
31398WAT     H194436   3.306   9.493   8.565
31398WAT     H294437   3.376   9.624   8.633
31399WAT      O94438   6.828   6.935   0.473
31399WAT     H194439   6.789   6.845   0.457
31399WAT     H294440   6.866   6.940   0.565
31400WAT      O94441   4.493   8.758   9.739
31400WAT     H194442   4.451   8.849   9.735
31400WAT     H294443   4.471   8.715   9.827
31401WAT      O94444   7.407   1.021   2.599
31401WAT     H194445   7.406   1.102   2.541
31401WAT     H294446   7.380   1.046   2.692
31402WAT      O94447   2.899   5.084   7.464
31402WAT     H194448   2.897   5.043   7.555
31402WAT     H294449   2.993   5.111   7.442
31403WAT      O94450   6.547   3.713   0.169
31403WAT     H194451   6.563   3.801   0.124
31403WAT     H294452   6.620   3.649   0.144
31404WAT      O94453   0.095   7.921   5.387
31404WAT     H194454   0.096   8.013   5.427
31404WAT     H294455   0.189   7.890   5.373
31405WAT      O94456   0.068   1.315   0.867
31405WAT     H194457   0.112   1.245   0.924
31405WAT     H294458  -0.015   1.347   0.911
31406WAT      O94459   3.707   3.988   2.917
31406WAT     H194460   3.630   3.976   2.980
31406WAT     H294461   3.753   4.075   2.936
31407WAT      O94462   0.225   6.610   7.350
31407WAT     H194463   0.297   6.672   7.381
31407WAT     H294464   0.247   6.577   7.258
31408WAT      O94465   4.730   4.678   3.394
31408WAT     H194466   4.642   4.647   3.429
31408WAT     H294467   4.787   4.709   3.470
31409WAT      O94468   7.099   9.457   2.281
31409WAT     H194469   7.036   9.534   2.273
31409WAT     H294470   7.079   9.406   2.364
31410WAT      O94471   1.744   3.297   5.287
31410WAT     H194472   1.684   3.376   5.288
31410WAT     H294473   1.695   3.217   5.320
31411WAT      O94474   7.508   9.828   7.615
31411WAT     H194475   7.422   9.790   7.580
31411WAT     H294476   7.556   9.875   7.540
31412WAT      O94477   1.476   3.777   1.234
31412WAT     H194478   1.377   3.776   1.221
31412WAT     H294479   1.497   3.779   1.331
31413WAT      O94480   0.371   4.897   7.227
31413WAT     H194481   0.387   4.913   7.130
31413WAT     H294482   0.359   4.799   7.243
31414WAT      O94483   6.300   4.613   6.219
31414WAT     H194484   6.297   4.615   6.119
31414WAT     H294485   6.344   4.696   6.253
31415WAT      O94486   8.874   7.375   1.329
31415WAT     H194487   8.937   7.424   1.390
31415WAT     H294488   8.881   7.412   1.237
31416WAT      O94489   1.280   4.585   6.797
31416WAT     H194490   1.194   4.596   6.846
31416WAT     H294491   1.281   4.647   6.718
31417WAT      O94492   5.940   6.971   0.986
31417WAT     H194493   5.892   6.893   0.947
31417WAT     H294494   5.933   7.050   0.925
31418WAT      O94495   1.957   7.072   7.340
31418WAT     H194496   2.032   7.055   7.403
31418WAT     H294497   1.985   7.047   7.247
31419WAT      O94498   6.619   4.433   5.626
31419WAT     H194499   6.634   4.340   5.660
31419WAT     H294500   6.551   4.432   5.553
31420WAT      O94501   2.179   3.902   1.396
31420WAT     H194502   2.092   3.879   1.440
31420WAT     H294503   2.189   3.850   1.312
31421WAT      O94504   4.548   6.498   5.297
31421WAT     H194505   4.589   6.588   5.310
31421WAT     H294506   4.490   6.476   5.376
31422WAT      O94507   0.302   4.612   2.855
31422WAT     H194508   0.227   4.630   2.791
31422WAT     H294509   0.387   4.647   2.817
31423WAT      O94510   7.718   3.143   3.441
31423WAT     H194511   7.767   3.056   3.443
31423WAT     H294512   7.636   3.134   3.385
31424WAT      O94513   0.291   6.865   8.900
31424WAT     H194514   0.361   6.872   8.828
31424WAT     H294515   0.315   6.792   8.963
31425WAT      O94516   6.865   1.540   9.646
31425WAT     H194517   6.766   1.550   9.638
31425WAT     H294518   6.907   1.552   9.556
31426WAT      O94519   2.092   9.177   2.811
31426WAT     H194520   2.192   9.180   2.809
31426WAT     H294521   2.061   9.090   2.772
31427WAT      O94522   0.408   7.054   2.774
31427WAT     H194523   0.506   7.072   2.768
31427WAT     H294524   0.393   6.958   2.797
31428WAT      O94525   2.769   5.510   9.374
31428WAT     H194526   2.733   5.519   9.281
31428WAT     H294527   2.699   5.539   9.440
31429WAT      O94528   2.178   0.731   0.837
31429WAT     H194529   2.082   0.722   0.866
31429WAT     H294530   2.186   0.703   0.741
31430WAT      O94531   3.383   6.603   4.247
31430WAT     H194532   3.407   6.580   4.152
31430WAT     H294533   3.464   6.633   4.296
31431WAT      O94534   7.880   0.935   2.761
31431WAT     H194535   7.802   0.942   2.699
31431WAT     H294536   7.900   0.839   2.780
31432WAT      O94537   8.241   2.513   0.416
31432WAT     H194538   8.155   2.546   0.379
31432WAT     H294539   8.314   2.528   0.349
31433WAT      O94540   7.570   6.040   0.808
31433WAT     H194541   7.572   5.963   0.745
31433WAT     H294542   7.638   6.025   0.880
31434WAT      O94543   8.570   6.844   0.294
31434WAT     H194544   8.538   6.933   0.262
31434WAT     H294545   8.668   6.849   0.314
31435WAT      O94546   6.726   9.286   8.179
31435WAT     H194547   6.800   9.334   8.132
31435WAT     H294548   6.741   9.289   8.277
31436WAT      O94549   5.839   1.662   0.043
31436WAT     H194550   5.760   1.703   0.087
31436WAT     H294551   5.815   1.571   0.007
31437WAT      O94552   6.505   2.122   8.415
31437WAT     H194553   6.527   2.173   8.333
31437WAT     H294554   6.470   2.031   8.390
31438WAT      O94555   3.852   8.226   5.414
31438WAT     H194556   3.779   8.286   5.447
31438WAT     H294557   3.824   8.131   5.424
31439WAT      O94558   0.778   5.275   4.841
31439WAT     H194559   0.762   5.186   4.799
31439WAT     H294560   0.801   5.263   4.938
31440WAT      O94561   0.794   7.467   9.330
31440WAT     H194562   0.841   7.469   9.241
31440WAT     H294563   0.760   7.558   9.352
31441WAT      O94564   0.800   2.647   4.428
31441WAT     H194565   0.735   2.606   4.364
31441WAT     H294566   0.795   2.747   4.420
31442WAT      O94567   8.040   5.876   2.789
31442WAT     H194568   8.037   5.973   2.767
31442WAT     H294569   8.113   5.832   2.737
31443WAT      O94570   4.889   1.976   5.263
31443WAT     H194571   4.797   2.014   5.262
31443WAT     H294572   4.900   1.918   5.344
31444WAT      O94573   2.589   2.863   8.193
31444WAT     H194574   2.601   2.959   8.218
31444WAT     H294575   2.669   2.833   8.140
31445WAT      O94576   7.526   1.002   2.275
31445WAT     H194577   7.512   1.088   2.323
31445WAT     H294578   7.489   0.927   2.331
31446WAT      O94579   6.934   0.051   6.115
31446WAT     H194580   6.834   0.051   6.109
31446WAT     H294581   6.972   0.014   6.030
31447WAT      O94582   1.504   9.342   3.375
31447WAT     H194583   1.575   9.399   3.416
31447WAT     H294584   1.546   9.260   3.336
31448WAT      O94585   9.640   2.590   4.694
31448WAT     H194586   9.644   2.657   4.768
31448WAT     H294587   9.591   2.509   4.726
31449WAT      O94588   4.854   7.886   6.729
31449WAT     H194589   4.865   7.905   6.632
31449WAT     H294590   4.772   7.830   6.743
31450WAT      O94591   1.218   7.430   8.310
31450WAT     H194592   1.151   7.379   8.257
31450WAT     H294593   1.307   7.425   8.265
31451WAT      O94594   0.999   8.244   4.941
31451WAT     H194595   1.008   8.336   4.980
31451WAT     H294596   0.943   8.188   5.002
31452WAT      O94597   6.143   7.830   3.192
31452WAT     H194598   6.163   7.739   3.155
31452WAT     H294599   6.049   7.832   3.227
31453WAT      O94600   8.003   2.964   9.406
31453WAT     H194601   7.965   2.956   9.314
31453WAT     H294602   7.928   2.968   9.473
31454WAT      O94603   6.901   6.843   1.376
31454WAT     H194604   6.928   6.937   1.391
31454WAT     H294605   6.920   6.789   1.458
31455WAT      O94606   0.366   2.379   8.403
31455WAT     H194607   0.444   2.326   8.369
31455WAT     H294608   0.332   2.437   8.330
31456WAT      O94609   6.129   0.661   4.226
31456WAT     H194610   6.093   0.754   4.228
31456WAT     H294611   6.079   0.605   4.292
31457WAT      O94612   0.422   0.110   4.542
31457WAT     H194613   0.466   0.189   4.583
31457WAT     H294614   0.342   0.139   4.489
31458WAT      O94615   8.694   3.482   7.804
31458WAT     H194616   8.745   3.566   7.822
31458WAT     H294617   8.619   3.474   7.870
31459WAT      O94618   0.448   8.662   2.274
31459WAT     H194619   0.460   8.652   2.176
31459WAT     H294620   0.362   8.618   2.301
31460WAT      O94621   9.328   0.470   9.614
31460WAT     H194622   9.345   0.396   9.548
31460WAT     H294623   9.258   0.531   9.577
31461WAT      O94624   7.068   5.233   8.713
31461WAT     H194625   7.071   5.218   8.614
31461WAT     H294626   7.146   5.188   8.756
31462WAT      O94627   2.960   9.809   3.244
31462WAT     H194628   2.998   9.718   3.230
31462WAT     H294629   3.031   9.878   3.228
31463WAT      O94630   8.192   1.059   3.986
31463WAT     H194631   8.186   1.004   3.903
31463WAT     H294632   8.198   1.156   3.961
31464WAT      O94633   0.218   2.258   2.061
31464WAT     H194634   0.263   2.319   1.996
31464WAT     H294635   0.263   2.169   2.060
31465WAT      O94636   7.157   4.880   7.719
31465WAT     H194637   7.234   4.911   7.775
31465WAT     H294638   7.189   4.860   7.627
31466WAT      O94639   1.966   9.301   2.070
31466WAT     H194640   1.866   9.300   2.080
31466WAT     H294641   2.003   9.211   2.094
31467WAT      O94642   6.211   6.215   3.026
31467WAT     H194643   6.218   6.211   2.926
31467WAT     H294644   6.209   6.311   3.055
31468WAT      O94645   6.374   8.858   7.064
31468WAT     H194646   6.463   8.870   7.021
31468WAT     H294647   6.347   8.762   7.059
31469WAT      O94648   8.123   6.072   1.088
31469WAT     H194649   8.037   6.069   1.038
31469WAT     H294650   8.106   6.109   1.180
31470WAT      O94651   5.565   3.806   6.362
31470WAT     H194652   5.474   3.811   6.402
31470WAT     H294653   5.634   3.812   6.435
31471WAT      O94654   6.528   9.521   3.974
31471WAT     H194655   6.465   9.487   4.043
31471WAT     H294656   6.620   9.484   3.992
31472WAT      O94657   7.061   4.670   1.384
31472WAT     H194658   7.020   4.687   1.474
31472WAT     H294659   7.145   4.617   1.396
31473WAT      O94660   9.673   1.971   5.574
31473WAT     H194661   9.736   2.048   5.561
31473WAT     H294662   9.581   2.007   5.594
31474WAT      O94663   2.619   2.214   3.238
31474WAT     H194664   2.665   2.302   3.244
31474WAT     H294665   2.606   2.177   3.330
31475WAT      O94666   8.142   5.734   5.188
31475WAT     H194667   8.105   5.664   5.126
31475WAT     H294668   8.171   5.690   5.273
31476WAT      O94669   0.479   9.821   1.388
31476WAT     H194670   0.391   9.773   1.385
31476WAT     H294671   0.491   9.874   1.305
31477WAT      O94672   5.693   7.073   7.602
31477WAT     H194673   5.732   7.025   7.524
31477WAT     H294674   5.727   7.167   7.605
31478WAT      O94675   8.194   3.283   6.467
31478WAT     H194676   8.114   3.286   6.526
31478WAT     H294677   8.194   3.198   6.415
31479WAT      O94678   3.701   3.899   3.952
31479WAT     H194679   3.697   3.812   3.902
31479WAT     H294680   3.680   3.974   3.890
31480WAT      O94681   9.506   3.088   4.877
31480WAT     H194682   9.496   3.060   4.972
31480WAT     H294683   9.421   3.067   4.828
31481WAT      O94684   1.160   2.284   0.982
31481WAT     H194685   1.234   2.282   1.049
31481WAT     H294686   1.073   2.294   1.030
31482WAT      O94687   7.038   6.039   3.677
31482WAT     H194688   7.037   6.008   3.582
31482WAT     H294689   6.981   6.121   3.685
31483WAT      O94690   8.823   4.764   9.051
31483WAT     H194691   8.862   4.775   8.960
31483WAT     H294692   8.760   4.687   9.052
31484WAT      O94693   6.430   4.305   5.933
31484WAT     H194694   6.528   4.286   5.924
31484WAT     H294695   6.401   4.289   6.027
31485WAT      O94696   5.518   1.971   8.575
31485WAT     H194697   5.487   2.052   8.525
31485WAT     H294698   5.562   1.998   8.660
31486WAT      O94699   0.444   6.307   8.823
31486WAT     H194700   0.389   6.349   8.750
31486WAT     H294701   0.515   6.250   8.782
31487WAT      O94702   3.511   9.293   7.569
31487WAT     H194703   3.502   9.386   7.533
31487WAT     H294704   3.536   9.298   7.666
31488WAT      O94705   7.809   4.251   8.706
31488WAT     H194706   7.830   4.323   8.640
31488WAT     H294707   7.764   4.292   8.786
31489WAT      O94708   2.762   0.190   4.562
31489WAT     H194709   2.694   0.229   4.624
31489WAT     H294710   2.820   0.263   4.525
31490WAT      O94711   2.635   4.626   3.767
31490WAT     H194712   2.730   4.597   3.761
31490WAT     H294713   2.631   4.721   3.796
31491WAT      O94714   3.684   7.749   0.913
31491WAT     H194715   3.596   7.720   0.876
31491WAT     H294716   3.736   7.797   0.843
31492WAT      O94717   5.633   5.886   0.971
31492WAT     H194718   5.681   5.891   1.059
31492WAT     H294719   5.568   5.810   0.973
31493WAT      O94720   4.323   8.128   0.651
31493WAT     H194721   4.391   8.199   0.672
31493WAT     H294722   4.367   8.053   0.603
31494WAT      O94723   4.672   4.943   7.866
31494WAT     H194724   4.673   4.882   7.786
31494WAT     H294725   4.739   4.911   7.933
31495WAT      O94726   2.329   6.758   2.451
31495WAT     H194727   2.364   6.695   2.520
31495WAT     H294728   2.344   6.720   2.360
31496WAT      O94729   7.766   5.241   1.337
31496WAT     H194730   7.691   5.174   1.336
31496WAT     H294731   7.845   5.202   1.289
31497WAT      O94732   1.667   3.538   4.992
31497WAT     H194733   1.621   3.610   4.940
31497WAT     H294734   1.766   3.554   4.992
31498WAT      O94735   7.477   8.416   6.564
31498WAT     H194736   7.489   8.369   6.476
31498WAT     H294737   7.420   8.498   6.550
31499WAT      O94738   9.219   2.524   4.705
31499WAT     H194739   9.165   2.531   4.789
31499WAT     H294740   9.278   2.605   4.696
31500WAT      O94741   9.871   5.672   2.401
31500WAT     H194742   9.932   5.742   2.364
31500WAT     H294743   9.816   5.633   2.327
31501WAT      O94744   6.228   4.292   3.544
31501WAT     H194745   6.244   4.312   3.447
31501WAT     H294746   6.203   4.196   3.554
31502WAT      O94747   6.190   4.969   7.934
31502WAT     H194748   6.146   4.881   7.918
31502WAT     H294749   6.231   4.969   8.026
31503WAT      O94750   0.061   2.915   3.979
31503WAT     H194751  -0.012   2.923   3.910
31503WAT     H294752   0.021   2.885   4.066
31504WAT      O94753   4.599   8.254   0.010
31504WAT     H194754   4.601   8.352   0.031
31504WAT     H294755   4.581   8.203   0.094
31505WAT      O94756   0.398   2.359   7.430
31505WAT     H194757   0.401   2.374   7.331
31505WAT     H294758   0.337   2.282   7.449
31506WAT      O94759   7.852   2.935   9.189
31506WAT     H194760   7.768   2.882   9.200
31506WAT     H294761   7.831   3.020   9.140
31507WAT      O94762   2.554   0.228   1.710
31507WAT     H194763   2.622   0.167   1.750
31507WAT     H294764   2.594   0.318   1.694
31508WAT      O94765   4.139   6.575   6.024
31508WAT     H194766   4.162   6.613   6.113
31508WAT     H294767   4.146   6.646   5.954
31509WAT      O94768   8.870   4.928   3.447
31509WAT     H194769   8.851   5.023   3.474
31509WAT     H294770   8.943   4.927   3.379
31510WAT      O94771   8.372   8.646   4.157
31510WAT     H194772   8.364   8.627   4.254
31510WAT     H294773   8.283   8.631   4.113
31511WAT      O94774   8.509   7.680   4.905
31511WAT     H194775   8.450   7.685   4.825
31511WAT     H294776   8.604   7.691   4.877
31512WAT      O94777   5.981   7.570   0.788
31512WAT     H194778   6.041   7.491   0.775
31512WAT     H294779   6.035   7.654   0.778
31513WAT      O94780   3.001   2.891   8.287
31513WAT     H194781   3.032   2.855   8.375
31513WAT     H294782   3.081   2.914   8.231
31514WAT      O94783   1.829   4.046   7.961
31514WAT     H194784   1.789   4.108   7.893
31514WAT     H294785   1.906   4.092   8.006
31515WAT      O94786   5.823   3.895   7.214
31515WAT     H194787   5.839   3.993   7.209
31515WAT     H294788   5.732   3.877   7.251
31516WAT      O94789   6.563   4.973   8.708
31516WAT     H194790   6.643   5.024   8.678
31516WAT     H294791   6.562   4.883   8.664
31517WAT      O94792   4.752   2.797   5.593
31517WAT     H194793   4.850   2.801   5.573
31517WAT     H294794   4.738   2.800   5.692
31518WAT      O94795   9.580   7.171   4.343
31518WAT     H194796   9.580   7.133   4.251
31518WAT     H294797   9.592   7.270   4.338
31519WAT      O94798   2.921   8.084   8.505
31519WAT     H194799   2.977   8.156   8.547
31519WAT     H294800   2.975   8.036   8.437
31520WAT      O94801   9.352   6.450   4.011
31520WAT     H194802   9.435   6.498   3.985
31520WAT     H294803   9.280   6.468   3.943
31521WAT      O94804   7.211   8.423   3.259
31521WAT     H194805   7.228   8.515   3.295
31521WAT     H294806   7.230   8.421   3.161
31522WAT      O94807   3.913   1.269   7.696
31522WAT     H194808   3.887   1.334   7.767
31522WAT     H294809   3.851   1.278   7.618
31523WAT      O94810   4.671   7.186   6.548
31523WAT     H194811   4.684   7.263   6.485
31523WAT     H294812   4.742   7.188   6.618
31524WAT      O94813   3.314   5.664   4.029
31524WAT     H194814   3.323   5.650   4.127
31524WAT     H294815   3.261   5.747   4.012
31525WAT      O94816   7.670   6.108   6.506
31525WAT     H194817   7.661   6.056   6.421
31525WAT     H294818   7.713   6.196   6.487
31526WAT      O94819   5.805   8.122   2.312
31526WAT     H194820   5.851   8.118   2.223
31526WAT     H294821   5.861   8.073   2.380
31527WAT      O94822   2.831   9.265   2.578
31527WAT     H194823   2.776   9.316   2.643
31527WAT     H294824   2.867   9.183   2.621
31528WAT      O94825   3.158   8.092   3.469
31528WAT     H194826   3.146   8.079   3.371
31528WAT     H294827   3.253   8.076   3.494
31529WAT      O94828   7.817   9.640   9.590
31529WAT     H194829   7.769   9.552   9.583
31529WAT     H294830   7.903   9.635   9.539
31530WAT      O94831   7.688   7.960   2.016
31530WAT     H194832   7.682   8.028   2.088
31530WAT     H294833   7.783   7.930   2.005
31531WAT      O94834   9.484   0.399   7.488
31531WAT     H194835   9.474   0.462   7.411
31531WAT     H294836   9.495   0.306   7.453
31532WAT      O94837   9.736   4.823   4.558
31532WAT     H194838   9.726   4.910   4.510
31532WAT     H294839   9.656   4.807   4.615
31533WAT      O94840   2.563   4.692   1.629
31533WAT     H194841   2.470   4.710   1.596
31533WAT     H294842   2.570   4.718   1.725
31534WAT      O94843   1.197   6.503   1.060
31534WAT     H194844   1.161   6.429   1.004
31534WAT     H294845   1.218   6.469   1.151
31535WAT      O94846   0.512   5.113   3.292
31535WAT     H194847   0.596   5.096   3.343
31535WAT     H294848   0.435   5.067   3.337
31536WAT      O94849   6.930   8.586   2.790
31536WAT     H194850   6.970   8.675   2.766
31536WAT     H294851   6.923   8.579   2.889
31537WAT      O94852   2.853   5.442   6.042
31537WAT     H194853   2.882   5.347   6.039
31537WAT     H294854   2.757   5.448   6.068
31538WAT      O94855   4.234   4.903   0.816
31538WAT     H194856   4.164   4.832   0.829
31538WAT     H294857   4.324   4.860   0.812
31539WAT      O94858   0.565   3.282   7.378
31539WAT     H194859   0.505   3.251   7.304
31539WAT     H294860   0.650   3.228   7.377
31540WAT      O94861   6.842   4.108   9.861
31540WAT     H194862   6.932   4.063   9.860
31540WAT     H294863   6.811   4.123   9.767
31541WAT      O94864   5.449   2.873   6.487
31541WAT     H194865   5.427   2.814   6.564
31541WAT     H294866   5.434   2.823   6.401
31542WAT      O94867   6.495   2.556   3.219
31542WAT     H194868   6.567   2.600   3.165
31542WAT     H294869   6.469   2.470   3.175
31543WAT      O94870   6.902   7.369   2.482
31543WAT     H194871   6.998   7.391   2.499
31543WAT     H294872   6.880   7.282   2.528
31544WAT      O94873   1.716   6.745   3.961
31544WAT     H194874   1.788   6.810   3.936
31544WAT     H294875   1.740   6.700   4.047
31545WAT      O94876   7.230   5.710   7.859
31545WAT     H194877   7.307   5.650   7.881
31545WAT     H294878   7.191   5.683   7.771
31546WAT      O94879   3.114   2.980   3.798
31546WAT     H194880   3.021   3.008   3.825
31546WAT     H294881   3.137   3.024   3.712
31547WAT      O94882   9.467   8.967   1.593
31547WAT     H194883   9.399   8.927   1.655
31547WAT     H294884   9.426   8.984   1.504
31548WAT      O94885   8.982   2.297   4.915
31548WAT     H194886   8.920   2.255   4.849
31548WAT     H294887   8.997   2.393   4.892
31549WAT      O94888   0.969   6.613   4.835
31549WAT     H194889   1.020   6.699   4.832
31549WAT     H294890   0.947   6.584   4.741
31550WAT      O94891   6.782   3.583   2.045
31550WAT     H194892   6.704   3.540   2.000
31550WAT     H294893   6.806   3.668   1.998
31551WAT      O94894   6.327   9.614   4.847
31551WAT     H194895   6.369   9.640   4.760
31551WAT     H294896   6.334   9.515   4.859
31552WAT      O94897   3.253   8.616   6.393
31552WAT     H194898   3.230   8.613   6.490
31552WAT     H294899   3.344   8.657   6.381
31553WAT      O94900   2.806   2.139   8.053
31553WAT     H194901   2.761   2.188   7.979
31553WAT     H294902   2.775   2.176   8.141
31554WAT      O94903   3.807   0.489   9.424
31554WAT     H194904   3.820   0.495   9.325
31554WAT     H294905   3.773   0.398   9.448
31555WAT      O94906   5.942   4.031   6.042
31555WAT     H194907   5.861   4.065   5.994
31555WAT     H294908   5.925   3.938   6.075
31556WAT      O94909   7.892   3.166   2.292
31556WAT     H194910   7.814   3.103   2.288
31556WAT     H294911   7.977   3.115   2.273
31557WAT      O94912   1.536   7.710   7.882
31557WAT     H194913   1.458   7.753   7.927
31557WAT     H294914   1.621   7.751   7.917
31558WAT      O94915   8.014   3.423   7.714
31558WAT     H194916   7.949   3.482   7.666
31558WAT     H294917   8.034   3.461   7.804
31559WAT      O94918   2.671   8.529   0.220
31559WAT     H194919   2.745   8.508   0.285
31559WAT     H294920   2.711   8.562   0.135
31560WAT      O94921   2.135   2.447   5.672
31560WAT     H194922   2.040   2.424   5.650
31560WAT     H294923   2.169   2.514   5.606
31561WAT      O94924   6.978   5.531   4.726
31561WAT     H194925   7.074   5.519   4.700
31561WAT     H294926   6.968   5.613   4.782
31562WAT      O94927   7.899   1.629   8.445
31562WAT     H194928   7.932   1.707   8.392
31562WAT     H294929   7.816   1.654   8.495
31563WAT      O94930   2.972   8.316   6.608
31563WAT     H194931   3.017   8.281   6.526
31563WAT     H294932   2.889   8.263   6.626
31564WAT      O94933   3.931   7.065   6.563
31564WAT     H194934   3.895   7.094   6.474
31564WAT     H294935   3.920   6.966   6.573
31565WAT      O94936   7.082   0.411   4.718
31565WAT     H194937   7.162   0.400   4.777
31565WAT     H294938   7.105   0.469   4.640
31566WAT      O94939   9.195   2.913   3.251
31566WAT     H194940   9.103   2.948   3.234
31566WAT     H294941   9.262   2.985   3.233
31567WAT      O94942   1.330   5.712   4.777
31567WAT     H194943   1.273   5.776   4.828
31567WAT     H294944   1.310   5.720   4.679
31568WAT      O94945   6.846   5.262   1.017
31568WAT     H194946   6.749   5.250   0.998
31568WAT     H294947   6.894   5.175   1.001
31569WAT      O94948   0.044   6.702   6.376
31569WAT     H194949   0.120   6.655   6.422
31569WAT     H294950  -0.015   6.634   6.333
31570WAT      O94951   7.413   5.060   9.735
31570WAT     H194952   7.336   5.036   9.795
31570WAT     H294953   7.488   4.996   9.751
31571WAT      O94954   8.123   8.570   7.441
31571WAT     H194955   8.200   8.597   7.499
31571WAT     H294956   8.039   8.607   7.479
31572WAT      O94957   4.428   6.570   1.738
31572WAT     H194958   4.519   6.560   1.779
31572WAT     H294959   4.383   6.652   1.774
31573WAT      O94960   1.607   6.824   9.677
31573WAT     H194961   1.663   6.874   9.743
31573WAT     H294962   1.602   6.727   9.704
31574WAT      O94963   5.451   4.543   0.772
31574WAT     H194964   5.513   4.594   0.831
31574WAT     H294965   5.495   4.458   0.743
31575WAT      O94966   0.971   4.598   2.795
31575WAT     H194967   1.018   4.575   2.710
31575WAT     H294968   1.032   4.654   2.853
31576WAT      O94969   7.193   6.612   0.006
31576WAT     H194970   7.126   6.547   0.040
31576WAT     H294971   7.257   6.635   0.079
31577WAT      O94972   4.187   0.267   7.336
31577WAT     H194973   4.260   0.199   7.347
31577WAT     H294974   4.145   0.257   7.247
31578WAT      O94975   1.491   3.775   6.848
31578WAT     H194976   1.515   3.690   6.895
31578WAT     H294977   1.496   3.851   6.913
31579WAT      O94978   4.268   6.000   0.090
31579WAT     H194979   4.281   5.909   0.052
31579WAT     H294980   4.257   6.066   0.015
31580WAT      O94981   0.203   7.042   2.578
31580WAT     H194982   0.254   7.002   2.655
31580WAT     H294983   0.267   7.079   2.511
31581WAT      O94984   2.489   2.610   9.480
31581WAT     H194985   2.487   2.519   9.440
31581WAT     H294986   2.403   2.628   9.527
31582WAT      O94987   1.208   3.428   6.056
31582WAT     H194988   1.143   3.354   6.038
31582WAT     H294989   1.245   3.418   6.149
31583WAT      O94990   4.497   0.827   3.779
31583WAT     H194991   4.514   0.916   3.738
31583WAT     H294992   4.584   0.781   3.796
31584WAT      O94993   3.795   7.157   1.537
31584WAT     H194994   3.739   7.151   1.619
31584WAT     H294995   3.794   7.250   1.502
31585WAT      O94996   3.832   5.044   9.136
31585WAT     H194997   3.773   5.119   9.167
31585WAT     H294998   3.776   4.966   9.110
31586WAT      O94999   4.138   0.468   0.369
31586WAT     H195000   4.053   0.481   0.421
31586WAT     H295001   4.148   0.541   0.302
31587WAT      O95002   2.374   5.339   2.190
31587WAT     H195003   2.289   5.359   2.238
31587WAT     H295004   2.450   5.338   2.254
31588WAT      O95005   7.669   9.281   3.386
31588WAT     H195006   7.767   9.287   3.407
31588WAT     H295007   7.622   9.360   3.425
31589WAT      O95008   6.214   0.241   0.957
31589WAT     H195009   6.132   0.291   0.984
31589WAT     H295010   6.199   0.196   0.869
31590WAT      O95011   9.721   4.136   0.920
31590WAT     H195012   9.630   4.143   0.879
31590WAT     H295013   9.757   4.227   0.940
31591WAT      O95014   3.657   7.069   3.565
31591WAT     H195015   3.728   7.004   3.538
31591WAT     H295016   3.567   7.026   3.557
31592WAT      O95017   5.158   7.006   5.217
31592WAT     H195018   5.199   6.965   5.299
31592WAT     H295019   5.088   6.945   5.181
31593WAT      O95020   6.102   5.638   9.039
31593WAT     H195021   6.024   5.593   8.996
31593WAT     H295022   6.071   5.720   9.087
31594WAT      O95023   0.610   6.723   8.770
31594WAT     H195024   0.672   6.683   8.702
31594WAT     H295025   0.572   6.650   8.827
31595WAT      O95026   4.792   1.761   7.896
31595WAT     H195027   4.694   1.750   7.885
31595WAT     H295028   4.811   1.842   7.951
31596WAT      O95029   5.622   5.282   3.608
31596WAT     H195030   5.587   5.192   3.633
31596WAT     H295031   5.702   5.271   3.549
31597WAT      O95032   4.496   0.293   1.379
31597WAT     H195033   4.550   0.364   1.335
31597WAT     H295034   4.532   0.274   1.470
31598WAT      O95035   6.103   4.356   0.171
31598WAT     H195036   6.082   4.278   0.111
31598WAT     H295037   6.085   4.441   0.123
31599WAT      O95038   3.307   3.792   3.175
31599WAT     H195039   3.387   3.845   3.147
31599WAT     H295040   3.326   3.695   3.163
31600WAT      O95041   3.417   3.017   0.956
31600WAT     H195042   3.444   3.018   1.052
31600WAT     H295043   3.487   2.969   0.902
31601WAT      O95044   9.710   8.379   4.165
31601WAT     H195045   9.780   8.425   4.220
31601WAT     H295046   9.698   8.429   4.080
31602WAT      O95047   3.801   8.433   3.918
31602WAT     H195048   3.879   8.488   3.889
31602WAT     H295049   3.790   8.440   4.018
31603WAT      O95050   0.472   5.399   4.295
31603WAT     H195051   0.567   5.414   4.320
31603WAT     H295052   0.455   5.437   4.204
31604WAT      O95053   0.846   7.080   1.052
31604WAT     H195054   0.805   7.038   1.133
31604WAT     H295055   0.823   7.177   1.050
31605WAT      O95056   4.782   0.717   7.074
31605WAT     H195057   4.762   0.717   7.172
31605WAT     H295058   4.777   0.623   7.039
31606WAT      O95059   4.011   7.277   8.362
31606WAT     H195060   4.020   7.219   8.443
31606WAT     H295061   3.935   7.244   8.306
31607WAT      O95062   6.465   3.593   5.683
31607WAT     H195063   6.428   3.591   5.590
31607WAT     H295064   6.458   3.686   5.719
31608WAT      O95065   0.473   2.991   9.218
31608WAT     H195066   0.524   2.964   9.136
31608WAT     H295067   0.476   2.917   9.285
31609WAT      O95068   1.754   0.082   5.441
31609WAT     H195069   1.827   0.081   5.372
31609WAT     H295070   1.763   0.001   5.499
31610WAT      O95071   8.029   0.093   4.460
31610WAT     H195072   7.941   0.121   4.422
31610WAT     H295073   8.068   0.168   4.513
31611WAT      O95074   6.322   4.427   4.868
31611WAT     H195075   6.376   4.484   4.807
31611WAT     H295076   6.247   4.481   4.907
31612WAT      O95077   7.318   6.060   2.611
31612WAT     H195078   7.304   6.102   2.701
31612WAT     H295079   7.413   6.071   2.583
31613WAT      O95080   5.041   5.910   1.215
31613WAT     H195081   4.979   5.984   1.243
31613WAT     H295082   5.086   5.934   1.129
31614WAT      O95083   6.355   0.815   5.352
31614WAT     H195084   6.430   0.859   5.400
31614WAT     H295085   6.352   0.718   5.375
31615WAT      O95086   7.464   0.990   8.778
31615WAT     H195087   7.398   0.981   8.703
31615WAT     H295088   7.545   0.935   8.758
31616WAT      O95089   8.484   1.620   4.495
31616WAT     H195090   8.525   1.552   4.434
31616WAT     H295091   8.546   1.637   4.572
31617WAT      O95092   1.225   3.506   6.659
31617WAT     H195093   1.214   3.605   6.667
31617WAT     H295094   1.283   3.485   6.581
31618WAT      O95095   2.751   4.028   2.256
31618WAT     H195096   2.751   3.942   2.307
31618WAT     H295097   2.661   4.041   2.214
31619WAT      O95098   1.500   5.070   5.709
31619WAT     H195099   1.582   5.127   5.710
31619WAT     H295100   1.422   5.124   5.677
31620WAT      O95101   1.898   0.297   2.173
31620WAT     H195102   1.866   0.300   2.267
31620WAT     H295103   1.956   0.217   2.159
31621WAT      O95104   6.681   4.168   4.550
31621WAT     H195105   6.723   4.253   4.521
31621WAT     H295106   6.594   4.187   4.595
31622WAT      O95107   8.716   0.291   6.845
31622WAT     H195108   8.803   0.299   6.893
31622WAT     H295109   8.678   0.382   6.829
31623WAT      O95110   5.886   4.484   8.783
31623WAT     H195111   5.921   4.576   8.800
31623WAT     H295112   5.926   4.420   8.848
31624WAT      O95113   8.617   6.156   5.083
31624WAT     H195114   8.539   6.143   5.144
31624WAT     H295115   8.673   6.073   5.083
31625WAT      O95116   7.203   0.298   4.422
31625WAT     H195117   7.157   0.224   4.471
31625WAT     H295118   7.157   0.384   4.441
31626WAT      O95119   6.047   2.939   0.394
31626WAT     H195120   6.106   2.956   0.473
31626WAT     H295121   6.088   2.979   0.312
31627WAT      O95122   7.515   0.946   3.004
31627WAT     H195123   7.451   0.908   2.937
31627WAT     H295124   7.476   0.939   3.095
31628WAT      O95125   3.970   8.124   0.089
31628WAT     H195126   3.948   8.036   0.048
31628WAT     H295127   3.957   8.119   0.188
31629WAT      O95128   0.650   9.389   0.295
31629WAT     H195129   0.563   9.424   0.328
31629WAT     H295130   0.639   9.355   0.201
31630WAT      O95131   2.254   2.245   7.608
31630WAT     H195132   2.235   2.220   7.513
31630WAT     H295133   2.167   2.261   7.656
31631WAT      O95134   8.521   9.654   4.073
31631WAT     H195135   8.607   9.611   4.096
31631WAT     H295136   8.503   9.644   3.975
31632WAT      O95137   0.186   1.408   9.442
31632WAT     H195138   0.145   1.430   9.531
31632WAT     H295139   0.166   1.482   9.377
31633WAT      O95140   7.518   7.006   7.120
31633WAT     H195141   7.436   6.955   7.092
31633WAT     H295142   7.534   7.080   7.055
31634WAT      O95143   4.855   0.072   2.339
31634WAT     H195144   4.824   0.167   2.332
31634WAT     H295145   4.949   0.066   2.304
31635WAT      O95146   3.071   7.121   3.954
31635WAT     H195147   3.134   7.190   3.920
31635WAT     H295148   3.048   7.140   4.050
31636WAT      O95149   2.431   9.562   0.756
31636WAT     H195150   2.477   9.542   0.670
31636WAT     H295151   2.490   9.535   0.832
31637WAT      O95152   4.406   5.353   9.096
31637WAT     H195153   4.406   5.363   8.996
31637WAT     H295154   4.369   5.263   9.120
31638WAT      O95155   9.356   2.346   0.676
31638WAT     H195156   9.308   2.397   0.604
31638WAT     H295157   9.330   2.382   0.765
31639WAT      O95158   5.279   9.369   6.996
31639WAT     H195159   5.228   9.442   7.042
31639WAT     H295160   5.304   9.398   6.904
31640WAT      O95161   9.864   8.011   7.313
31640WAT     H195162   9.931   8.085   7.315
31640WAT     H295163   9.777   8.043   7.349
31641WAT      O95164   2.906   4.591   3.812
31641WAT     H195165   2.920   4.629   3.903
31641WAT     H295166   2.993   4.587   3.764
31642WAT      O95167   4.267   1.025   4.043
31642WAT     H195168   4.231   1.033   4.136
31642WAT     H295169   4.359   0.986   4.046
31643WAT      O95170   7.659   9.650   8.671
31643WAT     H195171   7.603   9.591   8.729
31643WAT     H295172   7.753   9.615   8.669
31644WAT      O95173   4.183   5.061   0.161
31644WAT     H195174   4.250   4.988   0.169
31644WAT     H295175   4.166   5.102   0.251
31645WAT      O95176   6.598   7.546   1.672
31645WAT     H195177   6.593   7.643   1.649
31645WAT     H295178   6.519   7.521   1.727
31646WAT      O95179   8.804   3.900   0.153
31646WAT     H195180   8.854   3.949   0.082
31646WAT     H295181   8.753   3.965   0.208
31647WAT      O95182   5.936   0.229   2.260
31647WAT     H195183   5.864   0.293   2.287
31647WAT     H295184   5.974   0.186   2.342
31648WAT      O95185   8.136   8.967   6.325
31648WAT     H195186   8.235   8.949   6.329
31648WAT     H295187   8.115   9.014   6.240
31649WAT      O95188   4.248   7.608   4.866
31649WAT     H195189   4.202   7.565   4.788
31649WAT     H295190   4.261   7.706   4.848
31650WAT      O95191   4.949   4.884   4.723
31650WAT     H195192   4.886   4.951   4.682
31650WAT     H295193   4.922   4.867   4.818
31651WAT      O95194   8.092   8.092   9.213
31651WAT     H195195   8.016   8.145   9.176
31651WAT     H295196   8.084   8.087   9.313
31652WAT      O95197   1.380   3.068   3.352
31652WAT     H195198   1.285   3.067   3.324
31652WAT     H295199   1.439   3.067   3.271
31653WAT      O95200   9.487   6.024   0.927
31653WAT     H195201   9.397   6.001   0.892
31653WAT     H295202   9.551   5.950   0.908
31654WAT      O95203   9.121   0.722   2.747
31654WAT     H195204   9.113   0.731   2.647
31654WAT     H295205   9.192   0.654   2.768
31655WAT      O95206   2.817   9.330   4.765
31655WAT     H195207   2.785   9.325   4.860
31655WAT     H295208   2.906   9.374   4.762
31656WAT      O95209   8.030   0.279   9.872
31656WAT     H195210   8.004   0.184   9.854
31656WAT     H295211   8.125   0.282   9.903
31657WAT      O95212   9.798   0.610   7.959
31657WAT     H195213   9.748   0.532   7.922
31657WAT     H295214   9.803   0.682   7.889
31658WAT      O95215   8.193   4.527   6.864
31658WAT     H195216   8.248   4.449   6.894
31658WAT     H295217   8.218   4.609   6.915
31659WAT      O95218   8.753   0.649   9.491
31659WAT     H195219   8.732   0.564   9.443
31659WAT     H295220   8.809   0.708   9.433
31660WAT      O95221   2.992   0.282   6.267
31660WAT     H195222   3.089   0.269   6.284
31660WAT     H295223   2.939   0.243   6.343
31661WAT      O95224   4.752   1.253   0.274
31661WAT     H195225   4.822   1.203   0.223
31661WAT     H295226   4.769   1.243   0.372
31662WAT      O95227   9.367   3.339   7.838
31662WAT     H195228   9.276   3.319   7.803
31662WAT     H295229   9.385   3.437   7.832
31663WAT      O95230   8.209   3.024   3.445
31663WAT     H195231   8.138   2.968   3.489
31663WAT     H295232   8.212   3.002   3.348
31664WAT      O95233   0.559   4.288   9.644
31664WAT     H195234   0.478   4.236   9.617
31664WAT     H295235   0.631   4.274   9.576
31665WAT      O95236   8.528   2.003   4.280
31665WAT     H195237   8.514   1.929   4.215
31665WAT     H295238   8.597   1.976   4.347
31666WAT      O95239   0.370   7.489   0.950
31666WAT     H195240   0.369   7.431   0.869
31666WAT     H295241   0.315   7.572   0.932
31667WAT      O95242   3.547   1.133   6.158
31667WAT     H195243   3.477   1.193   6.195
31667WAT     H295244   3.622   1.124   6.224
31668WAT      O95245   2.813   7.868   0.932
31668WAT     H195246   2.862   7.949   0.962
31668WAT     H295247   2.861   7.786   0.964
31669WAT      O95248   2.483   6.035   7.552
31669WAT     H195249   2.457   5.951   7.504
31669WAT     H295250   2.543   6.012   7.629
31670WAT      O95251   0.464   7.475   8.528
31670WAT     H195252   0.373   7.465   8.487
31670WAT     H295253   0.522   7.398   8.502
31671WAT      O95254   0.959   2.701   9.507
31671WAT     H195255   0.884   2.729   9.448
31671WAT     H295256   0.944   2.606   9.536
31672WAT      O95257   0.521   1.468   7.907
31672WAT     H195258   0.612   1.427   7.906
31672WAT     H295259   0.528   1.565   7.886
31673WAT      O95260   5.454   9.231   6.711
31673WAT     H195261   5.515   9.309   6.696
31673WAT     H295262   5.507   9.154   6.746
31674WAT      O95263   3.090   6.932   8.111
31674WAT     H195264   3.179   6.948   8.069
31674WAT     H295265   3.089   6.842   8.155
31675WAT      O95266   1.820   3.694   0.280
31675WAT     H195267   1.806   3.653   0.190
31675WAT     H295268   1.804   3.626   0.351
31676WAT      O95269   3.144   0.045   6.653
31676WAT     H195270   3.140   0.143   6.672
31676WAT     H295271   3.220   0.026   6.592
31677WAT      O95272   3.279   2.572   4.912
31677WAT     H195273   3.300   2.540   5.005
31677WAT     H295274   3.362   2.609   4.871
31678WAT      O95275   6.076   0.736   5.843
31678WAT     H195276   6.076   0.781   5.754
31678WAT     H295277   6.100   0.639   5.832
31679WAT      O95278   1.247   8.616   2.169
31679WAT     H195279   1.249   8.516   2.162
31679WAT     H295280   1.338   8.652   2.145
31680WAT      O95281   7.359   6.110   2.103
31680WAT     H195282   7.263   6.086   2.114
31680WAT     H295283   7.395   6.146   2.189
31681WAT      O95284   6.274   6.585   7.564
31681WAT     H195285   6.201   6.654   7.563
31681WAT     H295286   6.320   6.584   7.475
31682WAT      O95287   2.666   7.466   7.157
31682WAT     H195288   2.751   7.518   7.166
31682WAT     H295289   2.684   7.369   7.177
31683WAT      O95290   7.991   9.286   3.798
31683WAT     H195291   8.017   9.319   3.889
31683WAT     H295292   7.984   9.186   3.799
31684WAT      O95293   3.666   7.578   2.854
31684WAT     H195294   3.642   7.609   2.762
31684WAT     H295295   3.648   7.480   2.862
31685WAT      O95296   3.398   6.912   4.911
31685WAT     H195297   3.440   6.928   4.822
31685WAT     H295298   3.306   6.953   4.912
31686WAT      O95299   7.132   3.268   3.077
31686WAT     H195300   7.225   3.304   3.078
31686WAT     H295301   7.081   3.304   3.155
31687WAT      O95302   1.386   8.485   5.413
31687WAT     H195303   1.470   8.431   5.426
31687WAT     H295304   1.389   8.564   5.474
31688WAT      O95305   9.174   2.454   8.987
31688WAT     H195306   9.087   2.504   8.995
31688WAT     H295307   9.218   2.451   9.077
31689WAT      O95308   4.013   6.660   5.398
31689WAT     H195309   3.993   6.563   5.383
31689WAT     H295310   3.969   6.690   5.482
31690WAT      O95311   6.698   5.397   2.448
31690WAT     H195312   6.759   5.320   2.431
31690WAT     H295313   6.650   5.383   2.535
31691WAT      O95314   7.991   0.064   2.329
31691WAT     H195315   7.912   0.052   2.388
31691WAT     H295316   8.018  -0.024   2.289
31692WAT      O95317   1.238   2.190   6.206
31692WAT     H195318   1.177   2.175   6.284
31692WAT     H295319   1.242   2.288   6.185
31693WAT      O95320   3.809   1.946   3.077
31693WAT     H195321   3.902   1.966   3.045
31693WAT     H295322   3.807   1.856   3.119
31694WAT      O95323   4.761   8.170   5.134
31694WAT     H195324   4.751   8.123   5.046
31694WAT     H295325   4.672   8.175   5.180
31695WAT      O95326   5.900   7.864   2.206
31695WAT     H195327   5.805   7.854   2.179
31695WAT     H295328   5.908   7.857   2.306
31696WAT      O95329   5.499   0.831   2.583
31696WAT     H195330   5.579   0.772   2.577
31696WAT     H295331   5.499   0.896   2.507
31697WAT      O95332   9.550   5.447   2.118
31697WAT     H195333   9.610   5.406   2.049
31697WAT     H295334   9.457   5.413   2.106
31698WAT      O95335   2.494   1.882   2.745
31698WAT     H195336   2.511   1.829   2.829
31698WAT     H295337   2.483   1.978   2.769
31699WAT      O95338   7.636   4.696   3.084
31699WAT     H195339   7.583   4.750   3.148
31699WAT     H295340   7.643   4.602   3.117
31700WAT      O95341   0.960   3.945   8.619
31700WAT     H195342   0.864   3.928   8.643
31700WAT     H295343   0.992   3.874   8.557
31701WAT      O95344   4.815   6.800   4.416
31701WAT     H195345   4.889   6.763   4.360
31701WAT     H295346   4.727   6.771   4.379
31702WAT      O95347   6.278   1.794   9.196
31702WAT     H195348   6.306   1.822   9.288
31702WAT     H295349   6.350   1.739   9.155
31703WAT      O95350   8.333   9.618   6.245
31703WAT     H195351   8.390   9.541   6.276
31703WAT     H295352   8.309   9.676   6.322
31704WAT      O95353   9.764   3.542   8.760
31704WAT     H195354   9.795   3.454   8.724
31704WAT     H295355   9.778   3.544   8.859
31705WAT      O95356   8.441   1.129   2.183
31705WAT     H195357   8.489   1.217   2.185
31705WAT     H295358   8.422   1.099   2.276
31706WAT      O95359   4.103   5.610   5.161
31706WAT     H195360   4.078   5.674   5.088
31706WAT     H295361   4.078   5.650   5.250
31707WAT      O95362   1.269   3.536   5.266
31707WAT     H195363   1.241   3.619   5.315
31707WAT     H295364   1.230   3.456   5.312
31708WAT      O95365   7.164   7.988   3.975
31708WAT     H195366   7.220   8.000   4.057
31708WAT     H295367   7.201   7.913   3.920
31709WAT      O95368   1.218   9.489   6.091
31709WAT     H195369   1.140   9.552   6.095
31709WAT     H295370   1.191   9.405   6.045
31710WAT      O95371   7.151   4.470   0.343
31710WAT     H195372   7.127   4.452   0.439
31710WAT     H295373   7.102   4.405   0.284
31711WAT      O95374   9.496   7.220   4.998
31711WAT     H195375   9.440   7.254   5.074
31711WAT     H295376   9.586   7.261   5.002
31712WAT      O95377   4.623   5.815   7.919
31712WAT     H195378   4.568   5.868   7.855
31712WAT     H295379   4.563   5.758   7.976
31713WAT      O95380   6.721   4.883   4.307
31713WAT     H195381   6.629   4.919   4.297
31713WAT     H295382   6.781   4.954   4.344
31714WAT      O95383   6.121   8.647   2.574
31714WAT     H195384   6.192   8.587   2.537
31714WAT     H295385   6.038   8.639   2.519
31715WAT      O95386   8.136   6.144   8.423
31715WAT     H195387   8.039   6.133   8.444
31715WAT     H295388   8.181   6.195   8.496
31716WAT      O95389   2.344   5.634   7.395
31716WAT     H195390   2.396   5.561   7.350
31716WAT     H295391   2.352   5.718   7.341
31717WAT      O95392   4.800   6.094   0.946
31717WAT     H195393   4.745   6.031   0.891
31717WAT     H295394   4.799   6.185   0.904
31718WAT      O95395   0.144   2.082   6.753
31718WAT     H195396   0.178   2.096   6.846
31718WAT     H295397   0.208   2.123   6.687
31719WAT      O95398   4.287   0.031   5.360
31719WAT     H195399   4.253  -0.000   5.449
31719WAT     H295400   4.308  -0.049   5.303
31720WAT      O95401   6.180   3.272   3.376
31720WAT     H195402   6.210   3.346   3.316
31720WAT     H295403   6.118   3.308   3.445
31721WAT      O95404   2.188   5.282   4.138
31721WAT     H195405   2.208   5.203   4.196
31721WAT     H295406   2.167   5.251   4.045
31722WAT      O95407   0.857   0.198   7.517
31722WAT     H195408   0.919   0.197   7.595
31722WAT     H295409   0.842   0.292   7.488
31723WAT      O95410   6.867   1.396   0.773
31723WAT     H195411   6.956   1.351   0.784
31723WAT     H295412   6.878   1.495   0.781
31724WAT      O95413   8.633   7.600   4.389
31724WAT     H195414   8.710   7.658   4.361
31724WAT     H295415   8.548   7.635   4.350
31725WAT      O95416   5.265   4.526   7.205
31725WAT     H195417   5.238   4.436   7.239
31725WAT     H295418   5.316   4.515   7.119
31726WAT      O95419   6.704   9.172   5.853
31726WAT     H195420   6.728   9.085   5.808
31726WAT     H295421   6.726   9.166   5.950
31727WAT      O95422   3.664   1.084   8.906
31727WAT     H195423   3.725   1.150   8.863
31727WAT     H295424   3.579   1.130   8.932
31728WAT      O95425   1.347   2.312   3.899
31728WAT     H195426   1.403   2.292   3.980
31728WAT     H295427   1.290   2.392   3.918
31729WAT      O95428   4.366   3.933   5.221
31729WAT     H195429   4.309   3.864   5.178
31729WAT     H295430   4.334   4.024   5.195
31730WAT      O95431   3.481   8.158   6.349
31730WAT     H195432   3.434   8.167   6.437
31730WAT     H295433   3.504   8.062   6.333
31731WAT      O95434   3.481   7.659   5.587
31731WAT     H195435   3.465   7.677   5.490
31731WAT     H295436   3.580   7.651   5.604
31732WAT      O95437   3.251   6.506   8.133
31732WAT     H195438   3.241   6.558   8.218
31732WAT     H295439   3.231   6.410   8.150
31733WAT      O95440   5.830   2.915   6.128
31733WAT     H195441   5.787   2.827   6.107
31733WAT     H295442   5.891   2.905   6.206
31734WAT      O95443   5.480   2.591   6.523
31734WAT     H195444   5.520   2.582   6.614
31734WAT     H295445   5.552   2.599   6.454
31735WAT      O95446   0.349   5.949   1.355
31735WAT     H195447   0.377   5.895   1.434
31735WAT     H295448   0.431   5.983   1.308
31736WAT      O95449   3.447   8.319   6.154
31736WAT     H195450   3.441   8.260   6.235
31736WAT     H295451   3.379   8.392   6.161
31737WAT      O95452   4.453   6.640   8.634
31737WAT     H195453   4.429   6.574   8.704
31737WAT     H295454   4.533   6.692   8.663
31738WAT      O95455   1.979   0.056   6.860
31738WAT     H195456   1.940   0.110   6.786
31738WAT     H295457   2.076   0.039   6.842
31739WAT      O95458   3.221   4.769   3.006
31739WAT     H195459   3.257   4.728   3.090
31739WAT     H295460   3.150   4.709   2.968
31740WAT      O95461   5.281   5.244   1.579
31740WAT     H195462   5.347   5.247   1.654
31740WAT     H295463   5.269   5.336   1.542
31741WAT      O95464   7.265   1.144   0.259
31741WAT     H195465   7.350   1.197   0.261
31741WAT     H295466   7.188   1.206   0.270
31742WAT      O95467   8.248   0.508   8.071
31742WAT     H195468   8.272   0.604   8.085
31742WAT     H295469   8.161   0.503   8.021
31743WAT      O95470   7.720   6.033   4.175
31743WAT     H195471   7.732   5.962   4.244
31743WAT     H295472   7.644   6.092   4.201
31744WAT      O95473   1.215   9.567   5.794
31744WAT     H195474   1.151   9.500   5.831
31744WAT     H295475   1.166   9.648   5.764
31745WAT      O95476   8.412   7.909   5.952
31745WAT     H195477   8.413   8.001   5.914
31745WAT     H295478   8.416   7.842   5.877
31746WAT      O95479   2.192   1.549   1.233
31746WAT     H195480   2.128   1.474   1.250
31746WAT     H295481   2.180   1.583   1.140
31747WAT      O95482   7.568   3.570   1.263
31747WAT     H195483   7.478   3.541   1.230
31747WAT     H295484   7.596   3.652   1.213
31748WAT      O95485   8.585   0.525   9.276
31748WAT     H195486   8.487   0.512   9.258
31748WAT     H295487   8.623   0.442   9.317
31749WAT      O95488   5.393   4.464   4.364
31749WAT     H195489   5.405   4.471   4.265
31749WAT     H295490   5.433   4.545   4.408
31750WAT      O95491   5.771   6.676   8.841
31750WAT     H195492   5.774   6.615   8.920
31750WAT     H295493   5.861   6.719   8.829
31751WAT      O95494   1.414   6.205   6.885
31751WAT     H195495   1.417   6.113   6.845
31751WAT     H295496   1.320   6.224   6.916
31752WAT      O95497   2.045   0.794   7.729
31752WAT     H195498   1.972   0.764   7.668
31752WAT     H295499   2.049   0.893   7.731
31753WAT      O95500   6.270   5.781   8.259
31753WAT     H195501   6.250   5.685   8.275
31753WAT     H295502   6.263   5.832   8.345
31754WAT      O95503   0.151   5.266   0.575
31754WAT     H195504   0.234   5.218   0.603
31754WAT     H295505   0.071   5.211   0.599
31755WAT      O95506   2.810   8.985   0.807
31755WAT     H195507   2.840   9.036   0.888
31755WAT     H295508   2.889   8.957   0.754
31756WAT      O95509   1.469   1.380   4.117
31756WAT     H195510   1.372   1.356   4.116
31756WAT     H295511   1.523   1.303   4.085
31757WAT      O95512   5.547   8.490   8.417
31757WAT     H195513   5.623   8.554   8.405
31757WAT     H295514   5.494   8.487   8.332
31758WAT      O95515   6.889   4.787   5.051
31758WAT     H195516   6.826   4.785   4.973
31758WAT     H295517   6.919   4.881   5.066
31759WAT      O95518   7.335   1.798   3.781
31759WAT     H195519   7.382   1.711   3.793
31759WAT     H295520   7.265   1.809   3.851
31760WAT      O95521   3.563   2.181   9.347
31760WAT     H195522   3.497   2.214   9.279
31760WAT     H295523   3.569   2.248   9.422
31761WAT      O95524   4.161   9.329   4.669
31761WAT     H195525   4.084   9.283   4.624
31761WAT     H295526   4.128   9.413   4.713
31762WAT      O95527   0.708   6.722   0.936
31762WAT     H195528   0.778   6.705   0.866
31762WAT     H295529   0.748   6.709   1.026
31763WAT      O95530   0.419   1.207   0.692
31763WAT     H195531   0.431   1.109   0.677
31763WAT     H295532   0.335   1.237   0.648
31764WAT      O95533   0.205   3.142   1.194
31764WAT     H195534   0.217   3.187   1.282
31764WAT     H295535   0.259   3.057   1.192
31765WAT      O95536   5.492   1.472   6.384
31765WAT     H195537   5.452   1.387   6.420
31765WAT     H295538   5.420   1.539   6.367
31766WAT      O95539   3.742   5.432   4.850
31766WAT     H195540   3.677   5.493   4.894
31766WAT     H295541   3.828   5.433   4.901
31767WAT      O95542   3.469   1.900   3.176
31767WAT     H195543   3.384   1.909   3.227
31767WAT     H295544   3.498   1.991   3.144
31768WAT      O95545   9.742   7.340   4.724
31768WAT     H195546   9.828   7.355   4.675
31768WAT     H295547   9.737   7.245   4.753
31769WAT      O95548   0.656   8.781   0.167
31769WAT     H195549   0.744   8.827   0.181
31769WAT     H295550   0.629   8.789   0.071
31770WAT      O95551   6.752   4.753   6.384
31770WAT     H195552   6.670   4.801   6.412
31770WAT     H295553   6.731   4.694   6.306
31771WAT      O95554   6.635   9.774   8.251
31771WAT     H195555   6.630   9.862   8.300
31771WAT     H295556   6.578   9.778   8.169
31772WAT      O95557   3.624   2.231   1.961
31772WAT     H195558   3.600   2.306   1.899
31772WAT     H295559   3.645   2.149   1.907
31773WAT      O95560   4.060   6.373   6.930
31773WAT     H195561   3.973   6.412   6.960
31773WAT     H295562   4.042   6.295   6.870
31774WAT      O95563   4.958   3.984   8.411
31774WAT     H195564   5.016   4.046   8.464
31774WAT     H295565   4.887   4.036   8.364
31775WAT      O95566   7.763   7.272   5.356
31775WAT     H195567   7.856   7.281   5.392
31775WAT     H295568   7.712   7.206   5.412
31776WAT      O95569   8.628   4.224   5.999
31776WAT     H195570   8.668   4.300   6.050
31776WAT     H295571   8.534   4.209   6.028
31777WAT      O95572   2.058   2.925   6.570
31777WAT     H195573   2.033   2.845   6.516
31777WAT     H295574   2.044   2.906   6.667
31778WAT      O95575   1.802   7.308   3.058
31778WAT     H195576   1.867   7.384   3.050
31778WAT     H295577   1.851   7.225   3.084
31779WAT      O95578   4.047   8.384   6.720
31779WAT     H195579   4.070   8.295   6.680
31779WAT     H295580   3.952   8.407   6.699
31780WAT      O95581   3.385   0.143   9.494
31780WAT     H195582   3.298   0.132   9.543
31780WAT     H295583   3.441   0.211   9.541
31781WAT      O95584   3.770   2.099   5.605
31781WAT     H195585   3.699   2.043   5.565
31781WAT     H295586   3.729   2.179   5.649
31782WAT      O95587   6.345   2.305   4.379
31782WAT     H195588   6.407   2.383   4.383
31782WAT     H295589   6.253   2.338   4.356
31783WAT      O95590   7.896   0.347   2.247
31783WAT     H195591   7.926   0.407   2.322
31783WAT     H295592   7.916   0.252   2.269
31784WAT      O95593   7.323   6.929   0.803
31784WAT     H195594   7.418   6.899   0.810
31784WAT     H295595   7.290   6.913   0.710
31785WAT      O95596   6.619   0.069   2.629
31785WAT     H195597   6.633   0.044   2.725
31785WAT     H295598   6.638  -0.011   2.572
31786WAT      O95599   5.842   1.634   1.178
31786WAT     H195600   5.769   1.697   1.153
31786WAT     H295601   5.899   1.615   1.098
31787WAT      O95602   4.990   4.045   9.776
31787WAT     H195603   5.040   4.124   9.741
31787WAT     H295604   5.022   4.023   9.868
31788WAT      O95605   6.694   0.611   4.742
31788WAT     H195606   6.629   0.685   4.763
31788WAT     H295607   6.645   0.534   4.701
31789WAT      O95608   2.556   1.507   7.096
31789WAT     H195609   2.512   1.565   7.165
31789WAT     H295610   2.589   1.422   7.139
31790WAT      O95611   8.116   9.500   4.710
31790WAT     H195612   8.163   9.588   4.721
31790WAT     H295613   8.095   9.485   4.613
31791WAT      O95614   4.746   9.514   2.890
31791WAT     H195615   4.772   9.425   2.926
31791WAT     H295616   4.647   9.520   2.883
31792WAT      O95617   7.129   2.394   9.782
31792WAT     H195618   7.092   2.355   9.867
31792WAT     H295619   7.111   2.331   9.706
31793WAT      O95620   0.180   4.851   7.888
31793WAT     H195621   0.229   4.823   7.805
31793WAT     H295622   0.082   4.851   7.870
31794WAT      O95623   8.827   2.180   7.292
31794WAT     H195624   8.744   2.234   7.308
31794WAT     H295625   8.907   2.236   7.314
31795WAT      O95626   9.230   4.489   3.428
31795WAT     H195627   9.204   4.499   3.524
31795WAT     H295628   9.272   4.399   3.414
31796WAT      O95629   8.382   7.931   7.206
31796WAT     H195630   8.453   7.936   7.276
31796WAT     H295631   8.397   8.002   7.138
31797WAT      O95632   6.607   8.610   6.779
31797WAT     H195633   6.515   8.633   6.747
31797WAT     H295634   6.612   8.512   6.799
31798WAT      O95635   3.688   0.322   1.908
31798WAT     H195636   3.684   0.417   1.877
31798WAT     H295637   3.638   0.263   1.844
31799WAT      O95638   9.606   6.878   6.995
31799WAT     H195639   9.574   6.902   7.086
31799WAT     H295640   9.689   6.823   7.002
31800WAT      O95641   6.827   6.662   1.777
31800WAT     H195642   6.817   6.761   1.775
31800WAT     H295643   6.860   6.634   1.867
31801WAT      O95644   2.532   2.258   1.736
31801WAT     H195645   2.460   2.328   1.737
31801WAT     H295646   2.594   2.276   1.659
31802WAT      O95647   9.502   3.594   5.467
31802WAT     H195648   9.601   3.579   5.460
31802WAT     H295649   9.485   3.671   5.529
31803WAT      O95650   9.521   5.805   2.256
31803WAT     H195651   9.555   5.722   2.211
31803WAT     H295652   9.570   5.819   2.342
31804WAT      O95653   1.535   5.117   0.235
31804WAT     H195654   1.476   5.037   0.225
31804WAT     H295655   1.521   5.158   0.325
31805WAT      O95656   8.749   2.424   0.138
31805WAT     H195657   8.749   2.514   0.181
31805WAT     H295658   8.715   2.356   0.203
31806WAT      O95659   7.501   8.064   4.575
31806WAT     H195660   7.548   8.093   4.492
31806WAT     H295661   7.411   8.109   4.580
31807WAT      O95662   5.059   3.796   8.267
31807WAT     H195663   5.004   3.868   8.309
31807WAT     H295664   5.086   3.730   8.337
31808WAT      O95665   3.370   8.521   7.857
31808WAT     H195666   3.464   8.507   7.885
31808WAT     H295667   3.332   8.436   7.820
31809WAT      O95668   3.956   4.160   1.515
31809WAT     H195669   3.991   4.203   1.598
31809WAT     H295670   3.947   4.062   1.529
31810WAT      O95671   1.713   1.142   9.521
31810WAT     H195672   1.631   1.111   9.472
31810WAT     H295673   1.708   1.113   9.616
31811WAT      O95674   4.884   4.315   4.408
31811WAT     H195675   4.788   4.300   4.383
31811WAT     H295676   4.933   4.353   4.329
31812WAT      O95677   3.234   1.634   4.030
31812WAT     H195678   3.157   1.640   3.966
31812WAT     H295679   3.199   1.640   4.124
31813WAT      O95680   7.730   1.247   3.315
31813WAT     H195681   7.689   1.264   3.405
31813WAT     H295682   7.770   1.155   3.314
31814WAT      O95683   7.680   7.524   0.404
31814WAT     H195684   7.689   7.432   0.443
31814WAT     H295685   7.718   7.524   0.311
31815WAT      O95686   2.087   2.675   3.790
31815WAT     H195687   2.083   2.710   3.696
31815WAT     H295688   2.072   2.750   3.854
31816WAT      O95689   7.109   3.917   1.226
31816WAT     H195690   7.009   3.909   1.217
31816WAT     H295691   7.132   3.932   1.322
31817WAT      O95692   0.264   7.916   3.619
31817WAT     H195693   0.214   7.991   3.576
31817WAT     H295694   0.219   7.829   3.597
31818WAT      O95695   0.011   9.685   9.333
31818WAT     H195696   0.102   9.717   9.359
31818WAT     H295697  -0.058   9.724   9.394
31819WAT      O95698   0.633   0.838   9.560
31819WAT     H195699   0.604   0.876   9.648
31819WAT     H295700   0.614   0.905   9.488
31820WAT      O95701   1.571   9.746   7.406
31820WAT     H195702   1.590   9.647   7.404
31820WAT     H295703   1.481   9.762   7.446
31821WAT      O95704   9.073   7.551   5.873
31821WAT     H195705   9.009   7.627   5.865
31821WAT     H295706   9.026   7.471   5.910
31822WAT      O95707   8.666   8.045   2.650
31822WAT     H195708   8.584   8.026   2.703
31822WAT     H295709   8.683   8.143   2.649
31823WAT      O95710   1.444   7.565   0.888
31823WAT     H195711   1.502   7.617   0.826
31823WAT     H295712   1.498   7.495   0.934
31824WAT      O95713   2.574   7.379   3.960
31824WAT     H195714   2.590   7.347   3.866
31824WAT     H295715   2.654   7.358   4.016
31825WAT      O95716   9.213   5.143   1.964
31825WAT     H195717   9.181   5.124   1.871
31825WAT     H295718   9.140   5.188   2.016
31826WAT      O95719   1.137   3.506   9.694
31826WAT     H195720   1.129   3.597   9.654
31826WAT     H295721   1.231   3.491   9.724
31827WAT      O95722   6.824   3.632   9.754
31827WAT     H195723   6.726   3.649   9.759
31827WAT     H295724   6.843   3.569   9.679
31828WAT      O95725   1.836   0.465   3.241
31828WAT     H195726   1.915   0.434   3.293
31828WAT     H295727   1.842   0.432   3.147
31829WAT      O95728   6.308   5.380   6.119
31829WAT     H195729   6.356   5.468   6.122
31829WAT     H295730   6.214   5.395   6.088
31830WAT      O95731   7.785   1.911   8.625
31830WAT     H195732   7.801   1.830   8.681
31830WAT     H295733   7.687   1.927   8.615
31831WAT      O95734   5.638   6.948   6.483
31831WAT     H195735   5.551   6.921   6.441
31831WAT     H295736   5.704   6.970   6.411
31832WAT      O95737   1.792   7.683   0.805
31832WAT     H195738   1.869   7.686   0.741
31832WAT     H295739   1.771   7.588   0.827
31833WAT      O95740   6.931   7.565   8.590
31833WAT     H195741   6.920   7.472   8.625
31833WAT     H295742   6.895   7.570   8.497
31834WAT      O95743   1.164   7.591   0.956
31834WAT     H195744   1.257   7.575   0.924
31834WAT     H295745   1.110   7.508   0.944
31835WAT      O95746   2.953   1.289   5.807
31835WAT     H195747   2.941   1.377   5.761
31835WAT     H295748   2.934   1.299   5.905
31836WAT      O95749   6.546   6.634   4.283
31836WAT     H195750   6.449   6.617   4.268
31836WAT     H295751   6.577   6.583   4.363
31837WAT      O95752   9.595   0.229   6.680
31837WAT     H195753   9.599   0.165   6.757
31837WAT     H295754   9.656   0.306   6.699
31838WAT      O95755   8.334   0.262   3.412
31838WAT     H195756   8.306   0.304   3.325
31838WAT     H295757   8.280   0.180   3.428
31839WAT      O95758   4.294   2.460   1.263
31839WAT     H195759   4.368   2.433   1.201
31839WAT     H295760   4.291   2.397   1.340
31840WAT      O95761   0.715   2.920   4.911
31840WAT     H195762   0.698   3.015   4.939
31840WAT     H295763   0.782   2.879   4.973
31841WAT      O95764   8.074   5.556   4.765
31841WAT     H195765   8.008   5.489   4.732
31841WAT     H295766   8.090   5.625   4.693
31842WAT      O95767   7.793   4.633   2.101
31842WAT     H195768   7.798   4.728   2.071
31842WAT     H295769   7.775   4.630   2.199
31843WAT      O95770   3.230   3.151   8.933
31843WAT     H195771   3.223   3.227   8.998
31843WAT     H295772   3.165   3.079   8.959
31844WAT      O95773   9.444   4.530   7.556
31844WAT     H195774   9.399   4.449   7.593
31844WAT     H295775   9.377   4.602   7.541
31845WAT      O95776   5.774   9.167   6.638
31845WAT     H195777   5.845   9.202   6.699
31845WAT     H295778   5.741   9.240   6.578
31846WAT      O95779   6.162   7.350   7.101
31846WAT     H195780   6.248   7.325   7.057
31846WAT     H295781   6.180   7.419   7.172
31847WAT      O95782   1.346   3.734   5.780
31847WAT     H195783   1.350   3.649   5.729
31847WAT     H295784   1.420   3.795   5.750
31848WAT      O95785   6.643   9.426   0.210
31848WAT     H195786   6.574   9.423   0.283
31848WAT     H295787   6.609   9.484   0.136
31849WAT      O95788   6.315   0.534   5.082
31849WAT     H195789   6.276   0.605   5.024
31849WAT     H295790   6.405   0.564   5.116
31850WAT      O95791   3.443   4.362   2.494
31850WAT     H195792   3.426   4.288   2.559
31850WAT     H295793   3.502   4.431   2.536
31851WAT      O95794   8.205   9.539   7.932
31851WAT     H195795   8.123   9.507   7.886
31851WAT     H295796   8.184   9.621   7.985
31852WAT      O95797   1.159   2.754   8.760
31852WAT     H195798   1.228   2.689   8.791
31852WAT     H295799   1.151   2.829   8.827
31853WAT      O95800   2.075   8.838   1.203
31853WAT     H195801   2.122   8.770   1.146
31853WAT     H295802   1.981   8.848   1.171
31854WAT      O95803   2.479   2.577   3.176
31854WAT     H195804   2.573   2.546   3.189
31854WAT     H295805   2.468   2.668   3.216
31855WAT      O95806   3.001   7.649   1.816
31855WAT     H195807   3.024   7.669   1.911
31855WAT     H295808   3.085   7.644   1.762
31856WAT      O95809   9.415   7.137   8.078
31856WAT     H195810   9.470   7.176   8.152
31856WAT     H295811   9.332   7.191   8.065
31857WAT      O95812   3.499   5.034   0.513
31857WAT     H195813   3.464   4.988   0.595
31857WAT     H295814   3.554   5.113   0.539
31858WAT      O95815   8.007   6.241   6.533
31858WAT     H195816   7.927   6.267   6.479
31858WAT     H295817   8.014   6.300   6.614
31859WAT      O95818   1.500   3.891   8.589
31859WAT     H195819   1.415   3.943   8.594
31859WAT     H295820   1.574   3.950   8.559
31860WAT      O95821   9.116   6.050   8.859
31860WAT     H195822   9.025   6.085   8.877
31860WAT     H295823   9.125   5.957   8.895
31861WAT      O95824   6.954   2.859   4.359
31861WAT     H195825   6.962   2.889   4.455
31861WAT     H295826   7.005   2.774   4.347
31862WAT      O95827   0.515   2.050   6.346
31862WAT     H195828   0.442   1.991   6.380
31862WAT     H295829   0.602   2.000   6.348
31863WAT      O95830   2.959   8.114   0.912
31863WAT     H195831   2.914   8.195   0.876
31863WAT     H295832   3.037   8.141   0.968
31864WAT      O95833   3.156   6.871   3.921
31864WAT     H195834   3.156   6.852   4.019
31864WAT     H295835   3.138   6.968   3.907
31865WAT      O95836   8.358   2.603   2.944
31865WAT     H195837   8.422   2.538   2.904
31865WAT     H295838   8.363   2.598   3.044
31866WAT      O95839   9.768   2.757   2.695
31866WAT     H195840   9.706   2.689   2.656
31866WAT     H295841   9.756   2.844   2.647
31867WAT      O95842   2.687   4.186   7.168
31867WAT     H195843   2.651   4.140   7.249
31867WAT     H295844   2.617   4.189   7.097
31868WAT      O95845   8.897   0.963   4.043
31868WAT     H195846   8.852   0.930   4.126
31868WAT     H295847   8.990   0.926   4.039
31869WAT      O95848   4.889   0.868   0.010
31869WAT     H195849   4.854   0.799   0.074
31869WAT     H295850   4.884   0.832  -0.083
31870WAT      O95851   9.190   6.629   6.291
31870WAT     H195852   9.218   6.589   6.204
31870WAT     H295853   9.162   6.724   6.276
31871WAT      O95854   3.782   7.878   0.252
31871WAT     H195855   3.737   7.814   0.190
31871WAT     H295856   3.751   7.859   0.346
31872WAT      O95857   3.539   1.706   0.991
31872WAT     H195858   3.532   1.679   0.895
31872WAT     H295859   3.521   1.804   0.999
31873WAT      O95860   6.458   4.259   2.372
31873WAT     H195861   6.374   4.264   2.319
31873WAT     H295862   6.514   4.340   2.353
31874WAT      O95863   9.674   9.197   7.221
31874WAT     H195864   9.607   9.194   7.147
31874WAT     H295865   9.758   9.152   7.191
31875WAT      O95866   8.443   9.687   3.805
31875WAT     H195867   8.372   9.757   3.793
31875WAT     H295868   8.515   9.701   3.736
31876WAT      O95869   0.079   8.207   8.767
31876WAT     H195870   0.060   8.291   8.818
31876WAT     H295871   0.081   8.226   8.669
31877WAT      O95872   5.710   8.565   5.729
31877WAT     H195873   5.746   8.531   5.642
31877WAT     H295874   5.735   8.661   5.740
31878WAT      O95875   9.084   0.515   7.422
31878WAT     H195876   9.035   0.602   7.426
31878WAT     H295877   9.147   0.509   7.499
31879WAT      O95878   5.120   1.430   9.374
31879WAT     H195879   5.144   1.335   9.355
31879WAT     H295880   5.183   1.490   9.325
31880WAT      O95881   7.683   3.788   1.996
31880WAT     H195882   7.601   3.819   2.045
31880WAT     H295883   7.749   3.863   1.993
31881WAT      O95884   0.291   8.035   9.566
31881WAT     H195885   0.387   8.009   9.575
31881WAT     H295886   0.267   8.099   9.639
31882WAT      O95887   3.271   4.015   1.899
31882WAT     H195888   3.369   4.014   1.877
31882WAT     H295889   3.259   4.025   1.998
31883WAT      O95890   0.717   0.344   7.222
31883WAT     H195891   0.783   0.269   7.214
31883WAT     H295892   0.764   0.427   7.254
31884WAT      O95893   2.809   9.429   8.803
31884WAT     H195894   2.868   9.352   8.779
31884WAT     H295895   2.713   9.399   8.803
31885WAT      O95896   8.760   9.245   9.335
31885WAT     H195897   8.708   9.224   9.252
31885WAT     H295898   8.746   9.341   9.359
31886WAT      O95899   0.691   0.215   5.404
31886WAT     H195900   0.694   0.308   5.442
31886WAT     H295901   0.610   0.205   5.346
31887WAT      O95902   4.572   5.708   0.565
31887WAT     H195903   4.590   5.786   0.505
31887WAT     H295904   4.624   5.717   0.650
31888WAT      O95905   3.754   5.510   3.523
31888WAT     H195906   3.813   5.586   3.496
31888WAT     H295907   3.772   5.432   3.463
31889WAT      O95908   6.351   6.943   5.895
31889WAT     H195909   6.291   6.948   5.816
31889WAT     H295910   6.421   7.014   5.888
31890WAT      O95911   6.598   5.900   4.552
31890WAT     H195912   6.685   5.871   4.512
31890WAT     H295913   6.599   5.881   4.650
31891WAT      O95914   9.027   8.744   8.055
31891WAT     H195915   9.008   8.675   8.125
31891WAT     H295916   8.946   8.758   7.998
31892WAT      O95917   0.665   3.421   1.179
31892WAT     H195918   0.764   3.409   1.167
31892WAT     H295919   0.617   3.375   1.105
31893WAT      O95920   1.123   8.746   1.807
31893WAT     H195921   1.042   8.687   1.806
31893WAT     H295922   1.102   8.832   1.853
31894WAT      O95923   0.302   3.783   8.047
31894WAT     H195924   0.273   3.692   8.019
31894WAT     H295925   0.387   3.778   8.098
31895WAT      O95926   6.558   2.119   9.281
31895WAT     H195927   6.636   2.152   9.227
31895WAT     H295928   6.591   2.086   9.370
31896WAT      O95929   1.960   8.585   3.709
31896WAT     H195930   1.949   8.676   3.668
31896WAT     H295931   1.952   8.515   3.638
31897WAT      O95932   0.715   5.287   7.355
31897WAT     H195933   0.757   5.328   7.273
31897WAT     H295934   0.718   5.187   7.347
31898WAT      O95935   9.660   5.008   7.847
31898WAT     H195936   9.602   5.030   7.768
31898WAT     H295937   9.707   5.091   7.878
31899WAT      O95938   3.899   8.305   7.037
31899WAT     H195939   3.867   8.255   7.117
31899WAT     H295940   3.995   8.283   7.020
   9.88928    9.84380    9.89279 
