GROningen MAchine for Chemical Simulation
95940
    1G5    HO5'    1   5.376   7.664   4.241
    1G5     O5'    2   5.329   7.631   4.318
    1G5     C5'    3   5.344   7.731   4.417
    1G5     H5'    4   5.441   7.780   4.404
    1G5    H5''    5   5.349   7.674   4.510
    1G5     C4'    6   5.226   7.831   4.423
    1G5     H4'    7   5.237   7.910   4.498
    1G5     O4'    8   5.199   7.884   4.289
    1G5     C1'    9   5.061   7.889   4.262
    1G5     H1'   10   5.022   7.988   4.239
    1G5      N9   11   5.038   7.806   4.137
    1G5      C8   12   5.133   7.759   4.052
    1G5      H8   13   5.236   7.741   4.079
    1G5      N7   14   5.089   7.724   3.933
    1G5      C5   15   4.953   7.752   3.944
    1G5      C6   16   4.843   7.745   3.848
    1G5      O6   17   4.841   7.709   3.730
    1G5      N1   18   4.718   7.793   3.897
    1G5      H1   19   4.644   7.810   3.830
    1G5      C2   20   4.697   7.822   4.020
    1G5      N2   21   4.576   7.843   4.054
    1G5     H21   22   4.513   7.848   3.976
    1G5     H22   23   4.542   7.872   4.145
    1G5      N3   24   4.790   7.842   4.112
    1G5      C4   25   4.917   7.799   4.066
    1G5     C3'   26   5.104   7.757   4.465
    1G5     H3'   27   5.121   7.660   4.418
    1G5     C2'   28   4.996   7.841   4.387
    1G5     H2'   29   4.912   7.774   4.366
    1G5     O2'   30   4.941   7.949   4.455
    1G5    HO2'   31   4.875   7.924   4.519
    1G5     O3'   32   5.067   7.759   4.610
    2G        P   33   4.983   7.636   4.664
    2G      OP1   34   4.950   7.669   4.803
    2G      OP2   35   5.055   7.508   4.630
    2G      O5'   36   4.848   7.643   4.583
    2G      C5'   37   4.726   7.686   4.637
    2G      H5'   38   4.720   7.793   4.659
    2G     H5''   39   4.691   7.641   4.730
    2G      C4'   40   4.622   7.652   4.533
    2G      H4'   41   4.521   7.689   4.547
    2G      O4'   42   4.658   7.711   4.405
    2G      C1'   43   4.604   7.622   4.314
    2G      H1'   44   4.533   7.676   4.253
    2G       N9   45   4.709   7.556   4.234
    2G       C8   46   4.837   7.519   4.275
    2G       H8   47   4.878   7.547   4.371
    2G       N7   48   4.909   7.470   4.178
    2G       C5   49   4.822   7.462   4.073
    2G       C6   50   4.834   7.404   3.944
    2G       O6   51   4.934   7.361   3.891
    2G       N1   52   4.716   7.390   3.872
    2G       H1   53   4.726   7.336   3.787
    2G       C2   54   4.598   7.432   3.918
    2G       N2   55   4.496   7.408   3.838
    2G      H21   56   4.524   7.368   3.749
    2G      H22   57   4.404   7.408   3.880
    2G       N3   58   4.585   7.491   4.037
    2G       C4   59   4.698   7.507   4.109
    2G      C3'   60   4.591   7.499   4.517
    2G      H3'   61   4.685   7.448   4.497
    2G      C2'   62   4.527   7.511   4.386
    2G      H2'   63   4.521   7.417   4.331
    2G      O2'   64   4.392   7.554   4.398
    2G     HO2'   65   4.352   7.505   4.469
    2G      O3'   66   4.502   7.443   4.611
    3G        P   67   4.517   7.293   4.650
    3G      OP1   68   4.412   7.281   4.752
    3G      OP2   69   4.660   7.261   4.684
    3G      O5'   70   4.476   7.204   4.528
    3G      C5'   71   4.344   7.180   4.491
    3G      H5'   72   4.271   7.258   4.514
    3G     H5''   73   4.317   7.090   4.547
    3G      C4'   74   4.325   7.147   4.349
    3G      H4'   75   4.222   7.159   4.315
    3G      O4'   76   4.409   7.221   4.260
    3G      C1'   77   4.466   7.148   4.161
    3G      H1'   78   4.446   7.199   4.067
    3G       N9   79   4.618   7.145   4.178
    3G       C8   80   4.691   7.164   4.294
    3G       H8   81   4.649   7.208   4.383
    3G       N7   82   4.819   7.139   4.282
    3G       C5   83   4.833   7.093   4.149
    3G       C6   84   4.952   7.056   4.064
    3G       O6   85   5.069   7.053   4.097
    3G       N1   86   4.919   7.017   3.937
    3G       H1   87   4.986   7.013   3.861
    3G       C2   88   4.794   7.023   3.896
    3G       N2   89   4.778   6.976   3.773
    3G      H21   90   4.862   6.962   3.719
    3G      H22   91   4.686   6.965   3.731
    3G       N3   92   4.685   7.056   3.957
    3G       C4   93   4.707   7.090   4.088
    3G      C3'   94   4.359   7.009   4.322
    3G      H3'   95   4.443   6.977   4.383
    3G      C2'   96   4.400   7.013   4.173
    3G      H2'   97   4.474   6.937   4.149
    3G      O2'   98   4.291   6.994   4.082
    3G     HO2'   99   4.211   6.989   4.134
    3G      O3'  100   4.244   6.927   4.339
    4U        P  101   4.274   6.762   4.371
    4U      OP1  102   4.140   6.695   4.382
    4U      OP2  103   4.365   6.754   4.488
    4U      O5'  104   4.349   6.715   4.244
    4U      C5'  105   4.273   6.675   4.124
    4U      H5'  106   4.209   6.755   4.086
    4U     H5''  107   4.198   6.602   4.154
    4U      C4'  108   4.363   6.620   4.018
    4U      H4'  109   4.304   6.614   3.926
    4U      O4'  110   4.467   6.708   3.995
    4U      C1'  111   4.581   6.640   3.936
    4U      H1'  112   4.594   6.677   3.835
    4U       N1  113   4.707   6.671   4.008
    4U       C6  114   4.712   6.731   4.131
    4U       H6  115   4.622   6.747   4.188
    4U       C5  116   4.829   6.766   4.186
    4U       H5  117   4.832   6.809   4.285
    4U       C4  118   4.949   6.730   4.126
    4U       O4  119   5.062   6.753   4.169
    4U       N3  120   4.941   6.685   3.999
    4U       H3  121   5.029   6.674   3.949
    4U       C2  122   4.824   6.632   3.944
    4U       O2  123   4.828   6.563   3.843
    4U      C3'  124   4.435   6.487   4.041
    4U      H3'  125   4.474   6.487   4.142
    4U      C2'  126   4.552   6.493   3.933
    4U      H2'  127   4.631   6.423   3.961
    4U      O2'  128   4.509   6.465   3.804
    4U     HO2'  129   4.416   6.439   3.805
    4U      O3'  130   4.342   6.373   4.029
    5U        P  131   4.356   6.239   4.110
    5U      OP1  132   4.224   6.177   4.089
    5U      OP2  133   4.397   6.278   4.246
    5U      O5'  134   4.471   6.141   4.053
    5U      C5'  135   4.489   6.125   3.915
    5U      H5'  136   4.519   6.220   3.870
    5U     H5''  137   4.400   6.079   3.874
    5U      C4'  138   4.602   6.033   3.888
    5U      H4'  139   4.595   5.941   3.947
    5U      O4'  140   4.603   6.007   3.747
    5U      C1'  141   4.714   6.068   3.683
    5U      H1'  142   4.791   5.996   3.655
    5U       N1  143   4.679   6.150   3.564
    5U       C6  144   4.551   6.214   3.546
    5U       H6  145   4.466   6.198   3.610
    5U       C5  146   4.531   6.294   3.441
    5U       H5  147   4.435   6.341   3.426
    5U       C4  148   4.631   6.304   3.338
    5U       O4  149   4.628   6.383   3.246
    5U       N3  150   4.744   6.237   3.355
    5U       H3  151   4.822   6.258   3.295
    5U       C2  152   4.776   6.159   3.461
    5U       O2  153   4.898   6.128   3.470
    5U      C3'  154   4.740   6.090   3.912
    5U      H3'  155   4.726   6.163   3.992
    5U      C2'  156   4.780   6.162   3.786
    5U      H2'  157   4.740   6.264   3.789
    5U      O2'  158   4.917   6.175   3.758
    5U     HO2'  159   4.964   6.092   3.765
    5U      O3'  160   4.834   5.990   3.940
    6A        P  161   4.887   5.961   4.086
    6A      OP1  162   4.954   5.830   4.086
    6A      OP2  163   4.779   5.990   4.184
    6A      O5'  164   4.992   6.081   4.112
    6A      C5'  165   5.132   6.065   4.096
    6A      H5'  166   5.167   6.059   3.993
    6A     H5''  167   5.170   5.983   4.158
    6A      C4'  168   5.204   6.195   4.137
    6A      H4'  169   5.306   6.167   4.112
    6A      O4'  170   5.162   6.321   4.074
    6A      C1'  171   5.128   6.417   4.173
    6A      H1'  172   5.160   6.513   4.132
    6A       N9  173   4.983   6.412   4.208
    6A       C8  174   4.886   6.370   4.123
    6A       H8  175   4.908   6.328   4.026
    6A       N7  176   4.763   6.378   4.172
    6A       C5  177   4.783   6.439   4.298
    6A       C6  178   4.695   6.476   4.406
    6A       N6  179   4.563   6.467   4.395
    6A      H61  180   4.523   6.491   4.485
    6A      H62  181   4.516   6.414   4.323
    6A       N1  182   4.747   6.539   4.505
    6A       C2  183   4.878   6.557   4.519
    6A       H2  184   4.925   6.603   4.605
    6A       N3  185   4.971   6.525   4.435
    6A       C4  186   4.918   6.459   4.320
    6A      C3'  187   5.209   6.228   4.291
    6A      H3'  188   5.119   6.185   4.336
    6A      C2'  189   5.214   6.374   4.296
    6A      H2'  190   5.170   6.405   4.391
    6A      O2'  191   5.350   6.422   4.301
    6A     HO2'  192   5.407   6.344   4.305
    6A      O3'  193   5.329   6.171   4.341
    7G        P  194   5.325   6.069   4.461
    7G      OP1  195   5.468   6.046   4.494
    7G      OP2  196   5.237   5.951   4.423
    7G      O5'  197   5.264   6.145   4.584
    7G      C5'  198   5.324   6.259   4.633
    7G      H5'  199   5.344   6.330   4.553
    7G     H5''  200   5.419   6.226   4.675
    7G      C4'  201   5.234   6.325   4.747
    7G      H4'  202   5.292   6.390   4.814
    7G      O4'  203   5.121   6.392   4.688
    7G      C1'  204   5.003   6.377   4.761
    7G      H1'  205   4.963   6.475   4.788
    7G       N9  206   4.900   6.304   4.693
    7G       C8  207   4.909   6.252   4.565
    7G       H8  208   4.995   6.249   4.500
    7G       N7  209   4.801   6.199   4.517
    7G       C5  210   4.708   6.219   4.624
    7G       C6  211   4.565   6.187   4.633
    7G       O6  212   4.488   6.138   4.557
    7G       N1  213   4.511   6.217   4.758
    7G       H1  214   4.416   6.184   4.771
    7G       C2  215   4.581   6.287   4.851
    7G       N2  216   4.510   6.322   4.961
    7G      H21  217   4.423   6.285   4.997
    7G      H22  218   4.555   6.387   5.024
    7G       N3  219   4.707   6.327   4.844
    7G       C4  220   4.770   6.282   4.728
    7G      C3'  221   5.173   6.218   4.834
    7G      H3'  222   5.141   6.133   4.775
    7G      C2'  223   5.050   6.298   4.890
    7G      H2'  224   4.977   6.233   4.937
    7G      O2'  225   5.096   6.395   4.988
    7G     HO2'  226   5.144   6.350   5.058
    7G      O3'  227   5.257   6.176   4.943
    8G        P  228   5.243   6.031   5.004
    8G      OP1  229   5.332   6.027   5.120
    8G      OP2  230   5.256   5.925   4.902
    8G      O5'  231   5.097   6.014   5.059
    8G      C5'  232   5.058   6.065   5.186
    8G      H5'  233   5.068   6.174   5.189
    8G     H5''  234   5.117   6.015   5.264
    8G      C4'  235   4.910   6.043   5.208
    8G      H4'  236   4.885   6.085   5.305
    8G      O4'  237   4.829   6.108   5.103
    8G      C1'  238   4.729   6.016   5.070
    8G      H1'  239   4.632   6.065   5.073
    8G       N9  240   4.742   5.972   4.933
    8G       C8  241   4.853   5.971   4.854
    8G       H8  242   4.949   6.005   4.891
    8G       N7  243   4.832   5.936   4.731
    8G       C5  244   4.695   5.901   4.731
    8G       C6  245   4.613   5.851   4.626
    8G       O6  246   4.641   5.828   4.506
    8G       N1  247   4.480   5.835   4.669
    8G       H1  248   4.417   5.784   4.610
    8G       C2  249   4.434   5.862   4.793
    8G       N2  250   4.305   5.841   4.808
    8G      H21  251   4.244   5.843   4.727
    8G      H22  252   4.253   5.867   4.891
    8G       N3  253   4.509   5.908   4.898
    8G       C4  254   4.641   5.922   4.859
    8G      C3'  255   4.876   5.890   5.206
    8G      H3'  256   4.931   5.844   5.124
    8G      C2'  257   4.731   5.900   5.168
    8G      H2'  258   4.702   5.807   5.118
    8G      O2'  259   4.651   5.924   5.279
    8G     HO2'  260   4.692   5.891   5.359
    8G      O3'  261   4.909   5.821   5.326
    9G        P  262   4.956   5.673   5.314
    9G      OP1  263   4.979   5.629   5.454
    9G      OP2  264   5.067   5.662   5.214
    9G      O5'  265   4.828   5.595   5.254
    9G      C5'  266   4.701   5.579   5.327
    9G      H5'  267   4.673   5.681   5.353
    9G     H5''  268   4.723   5.524   5.419
    9G      C4'  269   4.585   5.523   5.248
    9G      H4'  270   4.499   5.520   5.315
    9G      O4'  271   4.549   5.606   5.137
    9G      C1'  272   4.517   5.522   5.025
    9G      H1'  273   4.426   5.555   4.975
    9G       N9  274   4.619   5.538   4.919
    9G       C8  275   4.743   5.598   4.925
    9G       H8  276   4.790   5.636   5.015
    9G       N7  277   4.809   5.600   4.808
    9G       C5  278   4.722   5.537   4.719
    9G       C6  279   4.730   5.520   4.574
    9G       O6  280   4.818   5.547   4.498
    9G       N1  281   4.610   5.474   4.522
    9G       H1  282   4.635   5.441   4.430
    9G       C2  283   4.501   5.432   4.592
    9G       N2  284   4.401   5.374   4.525
    9G      H21  285   4.414   5.348   4.428
    9G      H22  286   4.327   5.335   4.583
    9G       N3  287   4.496   5.440   4.727
    9G       C4  288   4.604   5.504   4.786
    9G      C3'  289   4.618   5.389   5.190
    9G      H3'  290   4.719   5.398   5.149
    9G      C2'  291   4.512   5.382   5.077
    9G      H2'  292   4.539   5.313   4.997
    9G      O2'  293   4.378   5.358   5.120
    9G     HO2'  294   4.318   5.361   5.044
    9G      O3'  295   4.610   5.285   5.283
   10U        P  296   4.689   5.139   5.257
   10U      OP1  297   4.667   5.054   5.368
   10U      OP2  298   4.826   5.184   5.227
   10U      O5'  299   4.615   5.072   5.129
   10U      C5'  300   4.479   5.021   5.141
   10U      H5'  301   4.416   5.103   5.175
   10U     H5''  302   4.470   4.946   5.220
   10U      C4'  303   4.422   4.978   5.010
   10U      H4'  304   4.320   4.945   5.028
   10U      O4'  305   4.409   5.080   4.913
   10U      C1'  306   4.453   5.027   4.785
   10U      H1'  307   4.379   5.054   4.710
   10U       N1  308   4.577   5.079   4.733
   10U       C6  309   4.673   5.133   4.814
   10U       H6  310   4.640   5.150   4.916
   10U       C5  311   4.787   5.192   4.770
   10U       H5  312   4.838   5.265   4.831
   10U       C4  313   4.812   5.197   4.629
   10U       O4  314   4.904   5.243   4.575
   10U       N3  315   4.715   5.131   4.554
   10U       H3  316   4.742   5.112   4.458
   10U       C2  317   4.606   5.069   4.594
   10U       O2  318   4.522   5.020   4.522
   10U      C3'  319   4.498   4.860   4.943
   10U      H3'  320   4.604   4.874   4.965
   10U      C2'  321   4.470   4.873   4.796
   10U      H2'  322   4.560   4.849   4.740
   10U      O2'  323   4.358   4.804   4.748
   10U     HO2'  324   4.322   4.754   4.821
   10U      O3'  325   4.455   4.734   4.981
   11U        P  326   4.559   4.620   5.026
   11U      OP1  327   4.498   4.492   4.995
   11U      OP2  328   4.609   4.645   5.166
   11U      O5'  329   4.685   4.646   4.929
   11U      C5'  330   4.683   4.607   4.794
   11U      H5'  331   4.593   4.644   4.745
   11U     H5''  332   4.693   4.498   4.792
   11U      C4'  333   4.813   4.658   4.717
   11U      H4'  334   4.830   4.620   4.616
   11U      O4'  335   4.818   4.801   4.714
   11U      C1'  336   4.954   4.834   4.690
   11U      H1'  337   4.963   4.870   4.587
   11U       N1  338   5.004   4.941   4.784
   11U       C6  339   4.957   4.951   4.914
   11U       H6  340   4.873   4.898   4.957
   11U       C5  341   5.016   5.037   5.002
   11U       H5  342   4.977   5.042   5.103
   11U       C4  343   5.135   5.113   4.969
   11U       O4  344   5.195   5.187   5.046
   11U       N3  345   5.177   5.095   4.833
   11U       H3  346   5.241   5.164   4.796
   11U       C2  347   5.114   5.014   4.742
   11U       O2  348   5.159   5.019   4.629
   11U      C3'  349   4.932   4.612   4.792
   11U      H3'  350   4.912   4.646   4.894
   11U      C2'  351   5.027   4.697   4.717
   11U      H2'  352   5.116   4.719   4.775
   11U      O2'  353   5.055   4.662   4.578
   11U     HO2'  354   5.129   4.601   4.571
   11U      O3'  355   4.956   4.470   4.786
   12A        P  356   5.027   4.387   4.901
   12A      OP1  357   5.072   4.254   4.849
   12A      OP2  358   4.945   4.395   5.023
   12A      O5'  359   5.163   4.457   4.935
   12A      C5'  360   5.273   4.471   4.839
   12A      H5'  361   5.236   4.502   4.742
   12A     H5''  362   5.320   4.373   4.845
   12A      C4'  363   5.376   4.575   4.891
   12A      H4'  364   5.466   4.571   4.828
   12A      O4'  365   5.330   4.711   4.917
   12A      C1'  366   5.385   4.753   5.041
   12A      H1'  367   5.433   4.851   5.033
   12A       N9  368   5.267   4.765   5.130
   12A       C8  369   5.134   4.752   5.094
   12A       H8  370   5.107   4.719   4.995
   12A       N7  371   5.051   4.784   5.189
   12A       C5  372   5.133   4.828   5.291
   12A       C6  373   5.114   4.884   5.422
   12A       N6  374   4.996   4.892   5.484
   12A      H61  375   4.994   4.943   5.571
   12A      H62  376   4.915   4.855   5.437
   12A       N1  377   5.216   4.932   5.496
   12A       C2  378   5.339   4.910   5.446
   12A       H2  379   5.415   4.936   5.518
   12A       N3  380   5.374   4.850   5.334
   12A       C4  381   5.264   4.817   5.258
   12A      C3'  382   5.437   4.519   5.027
   12A      H3'  383   5.361   4.475   5.092
   12A      C2'  384   5.488   4.648   5.088
   12A      H2'  385   5.495   4.642   5.196
   12A      O2'  386   5.617   4.670   5.028
   12A     HO2'  387   5.648   4.586   4.993
   12A      O3'  388   5.546   4.422   5.010
   13G        P  389   5.556   4.285   5.094
   13G      OP1  390   5.686   4.225   5.051
   13G      OP2  391   5.431   4.205   5.083
   13G      O5'  392   5.577   4.345   5.246
   13G      C5'  393   5.693   4.410   5.290
   13G      H5'  394   5.715   4.496   5.226
   13G     H5''  395   5.782   4.348   5.283
   13G      C4'  396   5.684   4.456   5.438
   13G      H4'  397   5.785   4.477   5.474
   13G      O4'  398   5.601   4.573   5.451
   13G      C1'  399   5.520   4.562   5.569
   13G      H1'  400   5.523   4.655   5.626
   13G       N9  401   5.380   4.539   5.526
   13G       C8  402   5.324   4.522   5.402
   13G       H8  403   5.391   4.498   5.320
   13G       N7  404   5.196   4.523   5.396
   13G       C5  405   5.159   4.557   5.527
   13G       C6  406   5.034   4.584   5.589
   13G       O6  407   4.924   4.581   5.535
   13G       N1  408   5.038   4.593   5.729
   13G       H1  409   4.948   4.603   5.774
   13G       C2  410   5.155   4.607   5.793
   13G       N2  411   5.150   4.642   5.921
   13G      H21  412   5.058   4.667   5.954
   13G      H22  413   5.234   4.656   5.976
   13G       N3  414   5.277   4.595   5.736
   13G       C4  415   5.272   4.563   5.605
   13G      C3'  416   5.624   4.349   5.535
   13G      H3'  417   5.538   4.302   5.488
   13G      C2'  418   5.574   4.446   5.648
   13G      H2'  419   5.490   4.398   5.698
   13G      O2'  420   5.679   4.484   5.737
   13G     HO2'  421   5.735   4.410   5.759
   13G      O3'  422   5.712   4.253   5.582
   14G        P  423   5.668   4.110   5.630
   14G      OP1  424   5.775   4.050   5.714
   14G      OP2  425   5.620   4.038   5.510
   14G      O5'  426   5.543   4.146   5.720
   14G      C5'  427   5.543   4.176   5.857
   14G      H5'  428   5.596   4.271   5.860
   14G     H5''  429   5.598   4.107   5.921
   14G      C4'  430   5.403   4.186   5.905
   14G      H4'  431   5.409   4.214   6.010
   14G      O4'  432   5.327   4.279   5.845
   14G      C1'  433   5.194   4.235   5.833
   14G      H1'  434   5.124   4.306   5.875
   14G       N9  435   5.149   4.206   5.693
   14G       C8  436   5.231   4.172   5.586
   14G       H8  437   5.325   4.118   5.588
   14G       N7  438   5.169   4.189   5.473
   14G       C5  439   5.044   4.235   5.502
   14G       C6  440   4.935   4.275   5.420
   14G       O6  441   4.934   4.290   5.295
   14G       N1  442   4.822   4.297   5.492
   14G       H1  443   4.737   4.310   5.438
   14G       C2  444   4.813   4.313   5.628
   14G       N2  445   4.698   4.350   5.676
   14G      H21  446   4.616   4.361   5.618
   14G      H22  447   4.696   4.376   5.773
   14G       N3  448   4.915   4.284   5.705
   14G       C4  449   5.028   4.242   5.643
   14G      C3'  450   5.333   4.055   5.906
   14G      H3'  451   5.352   4.008   5.809
   14G      C2'  452   5.190   4.104   5.914
   14G      H2'  453   5.126   4.027   5.870
   14G      O2'  454   5.154   4.128   6.048
   14G     HO2'  455   5.113   4.047   6.079
   14G      O3'  456   5.385   3.967   6.008
   15G        P  457   5.410   3.814   5.977
   15G      OP1  458   5.466   3.753   6.100
   15G      OP2  459   5.472   3.797   5.845
   15G      O5'  460   5.261   3.759   5.968
   15G      C5'  461   5.177   3.762   6.079
   15G      H5'  462   5.180   3.859   6.127
   15G     H5''  463   5.212   3.689   6.152
   15G      C4'  464   5.035   3.729   6.050
   15G      H4'  465   4.987   3.708   6.146
   15G      O4'  466   4.972   3.840   5.984
   15G      C1'  467   4.888   3.802   5.886
   15G      H1'  468   4.797   3.859   5.904
   15G       N9  469   4.944   3.839   5.750
   15G       C8  470   5.072   3.848   5.702
   15G       H8  471   5.158   3.817   5.759
   15G       N7  472   5.082   3.880   5.578
   15G       C5  473   4.951   3.904   5.541
   15G       C6  474   4.899   3.951   5.417
   15G       O6  475   4.959   3.977   5.313
   15G       N1  476   4.765   3.967   5.418
   15G       H1  477   4.723   4.009   5.337
   15G       C2  478   4.683   3.924   5.518
   15G       N2  479   4.553   3.949   5.507
   15G      H21  480   4.525   4.011   5.433
   15G      H22  481   4.492   3.920   5.582
   15G       N3  482   4.729   3.877   5.635
   15G       C4  483   4.866   3.875   5.641
   15G      C3'  484   5.012   3.605   5.959
   15G      H3'  485   5.091   3.600   5.884
   15G      C2'  486   4.877   3.650   5.898
   15G      H2'  487   4.855   3.592   5.808
   15G      O2'  488   4.763   3.620   5.980
   15G     HO2'  489   4.773   3.528   6.004
   15G      O3'  490   5.010   3.494   6.043
   16U        P  491   4.978   3.347   5.998
   16U      OP1  492   5.021   3.254   6.104
   16U      OP2  493   5.012   3.325   5.858
   16U      O5'  494   4.812   3.355   6.010
   16U      C5'  495   4.735   3.318   6.126
   16U      H5'  496   4.758   3.378   6.214
   16U     H5''  497   4.745   3.213   6.151
   16U      C4'  498   4.581   3.337   6.096
   16U      H4'  499   4.519   3.311   6.181
   16U      O4'  500   4.544   3.473   6.077
   16U      C1'  501   4.411   3.458   6.020
   16U      H1'  502   4.342   3.480   6.101
   16U       N1  503   4.393   3.552   5.915
   16U       C6  504   4.488   3.564   5.817
   16U       H6  505   4.572   3.497   5.813
   16U       C5  506   4.465   3.654   5.716
   16U       H5  507   4.538   3.660   5.636
   16U       C4  508   4.350   3.736   5.701
   16U       O4  509   4.324   3.818   5.612
   16U       N3  510   4.252   3.710   5.803
   16U       H3  511   4.171   3.770   5.806
   16U       C2  512   4.275   3.632   5.909
   16U       O2  513   4.183   3.625   5.994
   16U      C3'  514   4.526   3.251   5.987
   16U      H3'  515   4.593   3.250   5.901
   16U      C2'  516   4.385   3.311   5.971
   16U      H2'  517   4.353   3.313   5.867
   16U      O2'  518   4.288   3.253   6.062
   16U     HO2'  519   4.323   3.170   6.095
   16U      O3'  520   4.516   3.120   6.033
   17U        P  521   4.521   3.013   5.924
   17U      OP1  522   4.451   2.898   5.971
   17U      OP2  523   4.662   2.992   5.886
   17U      O5'  524   4.443   3.076   5.796
   17U      C5'  525   4.310   3.054   5.778
   17U      H5'  526   4.253   3.089   5.864
   17U     H5''  527   4.296   2.946   5.771
   17U      C4'  528   4.261   3.108   5.650
   17U      H4'  529   4.153   3.095   5.638
   17U      O4'  530   4.297   3.245   5.639
   17U      C1'  531   4.308   3.278   5.501
   17U      H1'  532   4.226   3.343   5.471
   17U       N1  533   4.436   3.347   5.492
   17U       C6  534   4.551   3.299   5.557
   17U       H6  535   4.538   3.208   5.613
   17U       C5  536   4.662   3.373   5.558
   17U       H5  537   4.745   3.353   5.625
   17U       C4  538   4.681   3.488   5.476
   17U       O4  539   4.785   3.550   5.465
   17U       N3  540   4.574   3.522   5.399
   17U       H3  541   4.577   3.614   5.357
   17U       C2  542   4.451   3.461   5.408
   17U       O2  543   4.358   3.502   5.341
   17U      C3'  544   4.326   3.038   5.531
   17U      H3'  545   4.434   3.025   5.539
   17U      C2'  546   4.301   3.141   5.426
   17U      H2'  547   4.378   3.130   5.350
   17U      O2'  548   4.164   3.132   5.378
   17U     HO2'  549   4.149   3.193   5.305
   17U      O3'  550   4.271   2.912   5.499
   18A        P  551   4.359   2.784   5.471
   18A      OP1  552   4.264   2.678   5.432
   18A      OP2  553   4.437   2.759   5.590
   18A      O5'  554   4.452   2.806   5.343
   18A      C5'  555   4.394   2.832   5.217
   18A      H5'  556   4.318   2.909   5.225
   18A     H5''  557   4.354   2.734   5.190
   18A      C4'  558   4.498   2.863   5.115
   18A      H4'  559   4.453   2.863   5.015
   18A      O4'  560   4.548   2.993   5.147
   18A      C1'  561   4.686   2.992   5.127
   18A      H1'  562   4.716   3.068   5.055
   18A       N9  563   4.746   3.030   5.250
   18A       C8  564   4.717   2.995   5.379
   18A       H8  565   4.655   2.912   5.410
   18A       N7  566   4.791   3.061   5.460
   18A       C5  567   4.867   3.151   5.385
   18A       C6  568   4.952   3.255   5.420
   18A       N6  569   4.982   3.280   5.544
   18A      H61  570   5.046   3.353   5.571
   18A      H62  571   4.944   3.226   5.621
   18A       N1  572   5.013   3.326   5.322
   18A       C2  573   4.981   3.300   5.198
   18A       H2  574   5.029   3.364   5.125
   18A       N3  575   4.900   3.207   5.152
   18A       C4  576   4.843   3.131   5.258
   18A      C3'  577   4.621   2.765   5.121
   18A      H3'  578   4.648   2.731   5.221
   18A      C2'  579   4.724   2.863   5.056
   18A      H2'  580   4.826   2.832   5.077
   18A      O2'  581   4.718   2.866   4.920
   18A     HO2'  582   4.701   2.777   4.889
   18A      O3'  583   4.601   2.647   5.055
   19G        P  584   4.692   2.515   5.077
   19G      OP1  585   4.640   2.410   4.988
   19G      OP2  586   4.699   2.486   5.218
   19G      O5'  587   4.840   2.566   5.030
   19G      C5'  588   4.883   2.554   4.890
   19G      H5'  589   4.829   2.627   4.830
   19G     H5''  590   4.872   2.450   4.859
   19G      C4'  591   5.028   2.608   4.887
   19G      H4'  592   5.074   2.600   4.788
   19G      O4'  593   5.028   2.749   4.927
   19G      C1'  594   5.144   2.764   5.007
   19G      H1'  595   5.215   2.834   4.964
   19G       N9  596   5.099   2.818   5.137
   19G       C8  597   5.017   2.749   5.227
   19G       H8  598   4.951   2.667   5.204
   19G       N7  599   5.019   2.806   5.346
   19G       C5  600   5.114   2.909   5.339
   19G       C6  601   5.160   3.003   5.432
   19G       O6  602   5.139   3.009   5.555
   19G       N1  603   5.243   3.101   5.381
   19G       H1  604   5.263   3.172   5.450
   19G       C2  605   5.277   3.108   5.247
   19G       N2  606   5.347   3.209   5.206
   19G      H21  607   5.384   3.269   5.278
   19G      H22  608   5.373   3.221   5.110
   19G       N3  609   5.237   3.019   5.161
   19G       C4  610   5.151   2.928   5.208
   19G      C3'  611   5.121   2.525   4.976
   19G      H3'  612   5.062   2.488   5.059
   19G      C2'  613   5.221   2.632   5.026
   19G      H2'  614   5.240   2.612   5.132
   19G      O2'  615   5.343   2.628   4.960
   19G     HO2'  616   5.383   2.543   4.983
   19G      O3'  617   5.186   2.418   4.909
   20G        P  618   5.241   2.295   5.002
   20G      OP1  619   5.233   2.169   4.922
   20G      OP2  620   5.177   2.296   5.134
   20G      O5'  621   5.393   2.338   5.020
   20G      C5'  622   5.500   2.306   4.929
   20G      H5'  623   5.479   2.340   4.827
   20G     H5''  624   5.502   2.199   4.945
   20G      C4'  625   5.644   2.351   4.961
   20G      H4'  626   5.704   2.313   4.878
   20G      O4'  627   5.656   2.490   4.959
   20G      C1'  628   5.720   2.536   5.077
   20G      H1'  629   5.796   2.609   5.052
   20G       N9  630   5.623   2.604   5.169
   20G       C8  631   5.512   2.557   5.234
   20G       H8  632   5.484   2.454   5.220
   20G       N7  633   5.464   2.639   5.323
   20G       C5  634   5.538   2.755   5.303
   20G       C6  635   5.540   2.884   5.374
   20G       O6  636   5.461   2.917   5.467
   20G       N1  637   5.626   2.979   5.320
   20G       H1  638   5.624   3.076   5.348
   20G       C2  639   5.719   2.947   5.228
   20G       N2  640   5.816   3.028   5.196
   20G      H21  641   5.799   3.119   5.236
   20G      H22  642   5.903   2.993   5.157
   20G       N3  643   5.726   2.824   5.166
   20G       C4  644   5.631   2.738   5.205
   20G      C3'  645   5.702   2.297   5.096
   20G      H3'  646   5.620   2.272   5.164
   20G      C2'  647   5.790   2.415   5.151
   20G      H2'  648   5.777   2.434   5.258
   20G      O2'  649   5.923   2.410   5.110
   20G     HO2'  650   5.958   2.329   5.148
   20G      O3'  651   5.765   2.169   5.070
   21G3       P  652   5.834   2.088   5.180
   21G3     OP1  653   5.860   1.954   5.118
   21G3     OP2  654   5.740   2.096   5.291
   21G3     O5'  655   5.969   2.164   5.215
   21G3     C5'  656   6.096   2.148   5.152
   21G3     H5'  657   6.093   2.189   5.051
   21G3    H5''  658   6.118   2.043   5.131
   21G3     C4'  659   6.199   2.221   5.235
   21G3     H4'  660   6.294   2.228   5.182
   21G3     O4'  661   6.170   2.356   5.243
   21G3     C1'  662   6.189   2.405   5.375
   21G3     H1'  663   6.256   2.490   5.366
   21G3      N9  664   6.055   2.448   5.425
   21G3      C8  665   5.959   2.382   5.498
   21G3      H8  666   5.978   2.278   5.524
   21G3      N7  667   5.860   2.455   5.541
   21G3      C5  668   5.896   2.582   5.493
   21G3      C6  669   5.837   2.711   5.520
   21G3      O6  670   5.736   2.739   5.588
   21G3      N1  671   5.904   2.819   5.467
   21G3      H1  672   5.884   2.912   5.500
   21G3      C2  673   6.028   2.803   5.415
   21G3      N2  674   6.092   2.913   5.377
   21G3     H21  675   6.069   3.005   5.412
   21G3     H22  676   6.189   2.896   5.352
   21G3      N3  677   6.083   2.685   5.381
   21G3      C4  678   6.011   2.577   5.419
   21G3     C3'  679   6.229   2.166   5.377
   21G3     H3'  680   6.134   2.126   5.412
   21G3     C2'  681   6.265   2.294   5.457
   21G3     H2'  682   6.238   2.280   5.562
   21G3     O2'  683   6.401   2.314   5.431
   21G3    HO2'  684   6.444   2.229   5.441
   21G3     O3'  685   6.322   2.067   5.393
   21G3    HO3'  686   6.295   1.981   5.360
   22Cl-    Cl-  687   1.414   6.449   8.352
   23Cl-    Cl-  688   3.394   5.962   5.212
   24Cl-    Cl-  689   9.714   6.802   6.035
   25Cl-    Cl-  690   7.073   6.195   7.726
   26Cl-    Cl-  691   7.985   4.326   1.410
   27Cl-    Cl-  692   6.028   3.492   7.833
   28Cl-    Cl-  693   5.269   9.371   4.939
   29Cl-    Cl-  694   9.186   0.615   7.703
   30Cl-    Cl-  695   8.012   8.613   8.368
   31Cl-    Cl-  696   2.823   9.478   7.251
   32Cl-    Cl-  697   5.403   4.195   2.570
   33Cl-    Cl-  698   6.946   8.094   0.573
   34Cl-    Cl-  699   6.559   2.797   2.023
   35Cl-    Cl-  700   6.023   7.790   6.593
   36Cl-    Cl-  701   6.282   3.776   6.347
   37Cl-    Cl-  702   6.437   9.118   3.025
   38Cl-    Cl-  703   7.538   4.557   0.606
   39Cl-    Cl-  704   7.730   1.805   6.046
   40Cl-    Cl-  705   0.597   1.147   5.067
   41Cl-    Cl-  706   6.458   7.974   5.073
   42Cl-    Cl-  707   1.403   2.875   7.871
   43Cl-    Cl-  708   9.383   2.232   1.415
   44Cl-    Cl-  709   2.315   1.922   9.243
   45Cl-    Cl-  710   8.143   6.080   4.530
   46Cl-    Cl-  711   3.095   5.541   7.855
   47Cl-    Cl-  712   3.141   9.660   9.323
   48Cl-    Cl-  713   9.368   6.983   0.238
   49Cl-    Cl-  714   2.146   2.877   2.365
   50Cl-    Cl-  715   1.295   6.284   6.447
   51Cl-    Cl-  716   5.367   1.131   6.067
   52Cl-    Cl-  717   0.548   1.775   6.735
   53Cl-    Cl-  718   0.020   3.577   1.646
   54Cl-    Cl-  719   3.559   2.868   6.192
   55Cl-    Cl-  720   9.002   0.539   2.937
   56Cl-    Cl-  721   8.274   0.328   0.086
   57Cl-    Cl-  722   9.654   1.685   4.997
   58Cl-    Cl-  723   5.640   2.673   6.703
   59Cl-    Cl-  724   8.701   3.125   8.260
   60Cl-    Cl-  725   2.445   8.374   4.172
   61Cl-    Cl-  726   5.034   4.246   0.597
   62Cl-    Cl-  727   4.544   4.400   4.055
   63Cl-    Cl-  728   3.557   9.453   4.366
   64Cl-    Cl-  729   4.705   9.489   9.075
   65Cl-    Cl-  730   0.694   4.137   1.050
   66Cl-    Cl-  731   5.546   2.614   3.918
   67Cl-    Cl-  732   1.981   6.825   5.849
   68Cl-    Cl-  733   9.682   7.142   9.171
   69Cl-    Cl-  734   6.751   2.462   2.439
   70Cl-    Cl-  735   6.643   1.606   0.414
   71Cl-    Cl-  736   1.228   5.163   5.347
   72Cl-    Cl-  737   7.438   1.446   1.465
   73Cl-    Cl-  738   6.141   0.924   4.267
   74Cl-    Cl-  739   4.170   0.849   2.329
   75Cl-    Cl-  740   4.542   1.814   7.285
   76Cl-    Cl-  741   5.346   6.649   0.585
   77Cl-    Cl-  742   5.835   1.084   8.381
   78Cl-    Cl-  743   7.902   6.902   3.601
   79Cl-    Cl-  744   0.199   2.895   6.641
   80Cl-    Cl-  745   0.295   3.447   4.238
   81Cl-    Cl-  746   5.927   0.879   6.369
   82Cl-    Cl-  747   9.616   0.293   3.030
   83Cl-    Cl-  748   7.629   3.019   8.994
   84Cl-    Cl-  749   3.093   2.570   0.559
   85Cl-    Cl-  750   0.878   4.188   4.768
   86Cl-    Cl-  751   5.060   9.673   6.052
   87Cl-    Cl-  752   4.516   5.168   7.140
   88Cl-    Cl-  753   0.571   0.033   3.423
   89Cl-    Cl-  754   9.733   6.121   0.749
   90Cl-    Cl-  755   9.471   5.749   1.268
   91Cl-    Cl-  756   1.991   4.424   4.440
   92Cl-    Cl-  757   1.777   4.863   2.118
   93Cl-    Cl-  758   7.953   4.913   7.659
   94Cl-    Cl-  759   4.255   4.554   2.787
   95Cl-    Cl-  760   7.498   3.958   8.919
   96Cl-    Cl-  761   6.025   2.618   1.529
   97Cl-    Cl-  762   6.478   8.347   8.100
   98Cl-    Cl-  763   1.902   6.778   1.821
   99Cl-    Cl-  764   6.355   7.481   6.836
  100Cl-    Cl-  765   1.424   8.717   0.140
  101Cl-    Cl-  766   4.010   1.490   6.058
  102Cl-    Cl-  767   3.748   7.743   5.947
  103Cl-    Cl-  768   4.147   6.138   8.909
  104Cl-    Cl-  769   7.855   2.155   0.473
  105Cl-    Cl-  770   5.552   9.533   0.916
  106Cl-    Cl-  771   0.356   4.730   5.778
  107K+      K+  772   8.281   0.325   2.793
  108K+      K+  773   7.814   1.224   8.382
  109K+      K+  774   2.046   9.420   1.589
  110K+      K+  775   7.529   7.238   5.508
  111K+      K+  776   2.114   0.934   8.879
  112K+      K+  777   1.942   7.461   9.728
  113K+      K+  778   5.570   5.860   3.583
  114K+      K+  779   2.926   0.655   2.673
  115K+      K+  780   5.206   5.462   4.949
  116K+      K+  781   4.507   5.156   5.776
  117K+      K+  782   5.152   1.763   9.831
  118K+      K+  783   7.948   2.476   1.970
  119K+      K+  784   3.720   8.648   0.790
  120K+      K+  785   6.985   3.796   9.283
  121K+      K+  786   5.787   6.137   6.791
  122K+      K+  787   3.651   2.677   5.716
  123K+      K+  788   5.683   7.435   4.458
  124K+      K+  789   6.722   4.778   5.938
  125K+      K+  790   1.513   2.691   6.578
  126K+      K+  791   5.071   7.201   4.337
  127K+      K+  792   0.840   4.207   0.095
  128K+      K+  793   5.523   3.720   5.004
  129K+      K+  794   5.008   5.666   4.652
  130K+      K+  795   5.604   3.341   6.065
  131K+      K+  796   9.504   5.982   6.504
  132K+      K+  797   8.495   1.497   3.314
  133K+      K+  798   3.155   2.795   3.691
  134K+      K+  799   3.709   1.428   5.687
  135K+      K+  800   4.723   7.101   4.887
  136K+      K+  801   7.866   9.833   1.500
  137K+      K+  802   7.014   7.265   7.469
  138K+      K+  803   9.725   6.529   0.742
  139K+      K+  804   0.097   5.777   5.245
  140K+      K+  805   8.731   5.501   2.337
  141K+      K+  806   5.123   1.341   8.238
  142K+      K+  807   5.740   2.147   8.914
  143K+      K+  808   7.649   0.805   1.272
  144K+      K+  809   5.004   5.609   5.740
  145K+      K+  810   5.488   2.835   6.301
  146K+      K+  811   1.425   5.626   3.973
  147K+      K+  812   2.069   6.794   6.931
  148K+      K+  813   4.010   2.872   5.467
  149K+      K+  814   4.202   1.617   1.299
  150K+      K+  815   1.034   6.779   3.363
  151K+      K+  816   8.358   0.056   8.335
  152K+      K+  817   9.755   4.235   2.503
  153K+      K+  818   9.866   5.397   1.097
  154K+      K+  819   4.237   6.161   4.440
  155K+      K+  820   4.609   6.130   4.316
  156K+      K+  821   0.973   6.931   1.289
  157K+      K+  822   9.711   6.614   5.057
  158K+      K+  823   6.443   3.481   1.445
  159K+      K+  824   3.305   4.896   3.357
  160K+      K+  825   6.968   8.812   8.250
  161K+      K+  826   4.790   5.453   7.582
  162K+      K+  827   4.903   4.553   5.262
  163K+      K+  828   4.783   5.733   4.290
  164K+      K+  829   7.195   0.040   5.789
  165K+      K+  830   3.907   0.525   7.384
  166K+      K+  831   9.357   4.081   7.941
  167K+      K+  832   7.246   4.544   9.035
  168K+      K+  833   9.322   9.532   5.232
  169K+      K+  834   7.754   6.750   0.478
  170K+      K+  835   8.548   0.588   9.434
  171K+      K+  836   3.257   8.335   6.731
  172K+      K+  837   4.076   9.238   8.655
  173K+      K+  838   9.449   9.377   3.966
  174K+      K+  839   9.608   9.730   5.028
  175K+      K+  840   8.578   6.373   8.830
  176K+      K+  841   4.110   3.000   6.780
  177K+      K+  842   7.670   5.676   3.389
  178K+      K+  843   4.925   2.863   5.620
  179K+      K+  844   3.528   7.216   3.918
  180K+      K+  845   5.554   2.213   5.685
  181K+      K+  846   8.810   1.453   4.226
  182K+      K+  847   6.837   2.567   1.699
  183K+      K+  848   6.260   2.972   3.632
  184K+      K+  849   2.870   4.515   1.412
  185K+      K+  850   8.437   4.980   8.432
  186K+      K+  851   4.912   4.119   5.086
  187K+      K+  852   5.235   5.097   5.716
  188K+      K+  853   6.638   0.741   4.091
  189K+      K+  854   7.226   1.887   5.947
  190K+      K+  855   1.896   9.021   5.805
  191K+      K+  856   8.195   4.886   4.353
  192K+      K+  857   5.592   1.173   4.734
  193K+      K+  858   6.552   3.150   4.631
  194K+      K+  859   4.211   5.839   1.690
  195K+      K+  860   9.084   0.595   4.156
  196K+      K+  861   7.523   6.154   9.889
  197K+      K+  862   5.210   3.860   5.287
  198K+      K+  863   8.456   2.152   9.821
  199K+      K+  864   4.329   7.465   6.523
  200K+      K+  865   6.396   7.932   6.923
  201K+      K+  866   3.978   1.451   4.197
  202K+      K+  867   5.527   0.578   6.444
  203K+      K+  868   4.124   0.701   3.754
  204K+      K+  869   2.559   6.626   9.770
  205K+      K+  870   3.513   8.389   4.537
  206K+      K+  871   2.456   1.706   5.672
  207K+      K+  872   5.425   3.577   8.740
  208K+      K+  873   4.617   0.007   1.060
  209K+      K+  874   2.677   5.959   3.380
  210K+      K+  875   5.113   2.558   6.068
  211K+      K+  876   5.680   1.542   7.226
  212WAT      O  877   1.930   8.324   1.386
  212WAT     H1  878   1.938   8.227   1.363
  212WAT     H2  879   1.844   8.360   1.349
  213WAT      O  880   3.201   9.527   0.998
  213WAT     H1  881   3.238   9.612   1.036
  213WAT     H2  882   3.131   9.549   0.931
  214WAT      O  883   5.196   3.963   9.321
  214WAT     H1  884   5.239   3.883   9.362
  214WAT     H2  885   5.134   3.934   9.248
  215WAT      O  886   2.347   9.743   9.813
  215WAT     H1  887   2.428   9.777   9.765
  215WAT     H2  888   2.375   9.683   9.887
  216WAT      O  889   6.633   9.048   1.197
  216WAT     H1  890   6.722   9.009   1.216
  216WAT     H2  891   6.593   9.002   1.117
  217WAT      O  892   6.075   6.565   5.461
  217WAT     H1  893   6.125   6.647   5.435
  217WAT     H2  894   5.988   6.592   5.505
  218WAT      O  895   3.549   1.282   5.306
  218WAT     H1  896   3.477   1.348   5.285
  218WAT     H2  897   3.585   1.300   5.397
  219WAT      O  898   9.606   2.202   3.883
  219WAT     H1  899   9.604   2.120   3.940
  219WAT     H2  900   9.614   2.176   3.787
  220WAT      O  901   4.743   8.575   0.831
  220WAT     H1  902   4.837   8.589   0.863
  220WAT     H2  903   4.742   8.569   0.732
  221WAT      O  904   9.442   0.065   8.170
  221WAT     H1  905   9.540   0.047   8.160
  221WAT     H2  906   9.423   0.094   8.264
  222WAT      O  907   3.102   0.066   6.092
  222WAT     H1  908   3.011   0.099   6.116
  222WAT     H2  909   3.113   0.069   5.993
  223WAT      O  910   6.203   5.657   0.802
  223WAT     H1  911   6.115   5.697   0.776
  223WAT     H2  912   6.197   5.557   0.795
  224WAT      O  913   4.513   3.924   6.461
  224WAT     H1  914   4.515   3.842   6.405
  224WAT     H2  915   4.542   4.003   6.407
  225WAT      O  916   9.276   3.284   7.692
  225WAT     H1  917   9.248   3.352   7.623
  225WAT     H2  918   9.232   3.197   7.673
  226WAT      O  919   7.338   6.350   8.136
  226WAT     H1  920   7.340   6.252   8.118
  226WAT     H2  921   7.353   6.400   8.050
  227WAT      O  922   9.236   6.434   4.013
  227WAT     H1  923   9.189   6.407   4.098
  227WAT     H2  924   9.200   6.381   3.937
  228WAT      O  925   7.725   8.655   6.827
  228WAT     H1  926   7.750   8.634   6.732
  228WAT     H2  927   7.626   8.650   6.837
  229WAT      O  928   0.252   9.190   9.484
  229WAT     H1  929   0.352   9.191   9.493
  229WAT     H2  930   0.213   9.265   9.538
  230WAT      O  931   2.136   5.237   7.457
  230WAT     H1  932   2.108   5.321   7.504
  230WAT     H2  933   2.106   5.157   7.509
  231WAT      O  934   5.543   3.508   5.500
  231WAT     H1  935   5.477   3.568   5.454
  231WAT     H2  936   5.627   3.503   5.446
  232WAT      O  937   9.383   5.964   1.439
  232WAT     H1  938   9.451   5.959   1.512
  232WAT     H2  939   9.396   5.888   1.376
  233WAT      O  940   3.215   8.236   9.136
  233WAT     H1  941   3.296   8.272   9.088
  233WAT     H2  942   3.193   8.296   9.213
  234WAT      O  943   4.812   9.311   3.345
  234WAT     H1  944   4.766   9.278   3.263
  234WAT     H2  945   4.865   9.393   3.323
  235WAT      O  946   7.900   5.874   8.732
  235WAT     H1  947   7.981   5.929   8.750
  235WAT     H2  948   7.823   5.934   8.709
  236WAT      O  949   0.398   7.658   8.526
  236WAT     H1  950   0.358   7.640   8.437
  236WAT     H2  951   0.459   7.738   8.519
  237WAT      O  952   2.135   6.922   6.699
  237WAT     H1  953   2.092   6.954   6.614
  237WAT     H2  954   2.232   6.905   6.682
  238WAT      O  955   8.137   4.090   7.562
  238WAT     H1  956   8.140   4.185   7.592
  238WAT     H2  957   8.048   4.071   7.521
  239WAT      O  958   0.754   0.022   9.867
  239WAT     H1  959   0.766   0.001   9.770
  239WAT     H2  960   0.719  -0.058   9.915
  240WAT      O  961   2.296   0.610   3.748
  240WAT     H1  962   2.270   0.658   3.832
  240WAT     H2  963   2.375   0.551   3.768
  241WAT      O  964   2.690   3.448   2.519
  241WAT     H1  965   2.703   3.518   2.449
  241WAT     H2  966   2.611   3.472   2.576
  242WAT      O  967   6.744   1.814   5.872
  242WAT     H1  968   6.718   1.718   5.866
  242WAT     H2  969   6.694   1.857   5.948
  243WAT      O  970   9.617   5.019   9.174
  243WAT     H1  971   9.706   5.054   9.144
  243WAT     H2  972   9.620   5.003   9.273
  244WAT      O  973   1.117   2.513   8.541
  244WAT     H1  974   1.145   2.444   8.474
  244WAT     H2  975   1.018   2.528   8.534
  245WAT      O  976   3.220   7.733   0.566
  245WAT     H1  977   3.181   7.768   0.481
  245WAT     H2  978   3.182   7.643   0.586
  246WAT      O  979   8.795   4.244   8.639
  246WAT     H1  980   8.717   4.252   8.701
  246WAT     H2  981   8.830   4.335   8.618
  247WAT      O  982   9.618   3.371   0.438
  247WAT     H1  983   9.699   3.403   0.487
  247WAT     H2  984   9.631   3.275   0.411
  248WAT      O  985   0.124   8.321   1.325
  248WAT     H1  986   0.191   8.372   1.271
  248WAT     H2  987   0.038   8.315   1.274
  249WAT      O  988   0.040   2.061   4.776
  249WAT     H1  989   0.081   2.152   4.789
  249WAT     H2  990   0.010   2.026   4.865
  250WAT      O  991   5.915   2.663   3.639
  250WAT     H1  992   5.906   2.571   3.602
  250WAT     H2  993   5.826   2.708   3.640
  251WAT      O  994   0.503   9.021   7.280
  251WAT     H1  995   0.454   8.961   7.344
  251WAT     H2  996   0.466   9.008   7.188
  252WAT      O  997   6.161   9.409   8.010
  252WAT     H1  998   6.136   9.335   8.072
  252WAT     H2  999   6.090   9.421   7.940
  253WAT      O 1000   6.667   3.427   3.893
  253WAT     H1 1001   6.599   3.421   3.820
  253WAT     H2 1002   6.674   3.339   3.940
  254WAT      O 1003   5.181   6.330   1.707
  254WAT     H1 1004   5.100   6.275   1.722
  254WAT     H2 1005   5.187   6.401   1.777
  255WAT      O 1006   1.074   2.046   3.538
  255WAT     H1 1007   0.979   2.072   3.556
  255WAT     H2 1008   1.107   1.987   3.612
  256WAT      O 1009   7.078   7.083   6.544
  256WAT     H1 1010   7.040   7.166   6.503
  256WAT     H2 1011   7.085   7.011   6.474
  257WAT      O 1012   9.024   7.369   2.373
  257WAT     H1 1013   9.019   7.394   2.470
  257WAT     H2 1014   8.961   7.427   2.321
  258WAT      O 1015   4.942   7.577   2.788
  258WAT     H1 1016   5.027   7.628   2.804
  258WAT     H2 1017   4.903   7.548   2.875
  259WAT      O 1018   7.619   4.189   7.969
  259WAT     H1 1019   7.617   4.119   7.897
  259WAT     H2 1020   7.672   4.155   8.047
  260WAT      O 1021   3.021   2.225   6.485
  260WAT     H1 1022   3.118   2.249   6.484
  260WAT     H2 1023   3.012   2.127   6.505
  261WAT      O 1024   0.594   1.385   6.410
  261WAT     H1 1025   0.565   1.466   6.359
  261WAT     H2 1026   0.670   1.341   6.362
  262WAT      O 1027   4.273   8.891   6.020
  262WAT     H1 1028   4.296   8.974   5.969
  262WAT     H2 1029   4.180   8.863   5.996
  263WAT      O 1030   5.180   8.138   7.601
  263WAT     H1 1031   5.206   8.116   7.507
  263WAT     H2 1032   5.199   8.060   7.661
  264WAT      O 1033   1.252   7.171   6.820
  264WAT     H1 1034   1.350   7.172   6.803
  264WAT     H2 1035   1.235   7.138   6.914
  265WAT      O 1036   0.669   7.148   7.964
  265WAT     H1 1037   0.745   7.203   7.998
  265WAT     H2 1038   0.593   7.152   8.028
  266WAT      O 1039   9.771   0.235   7.038
  266WAT     H1 1040   9.849   0.186   7.078
  266WAT     H2 1041   9.779   0.234   6.938
  267WAT      O 1042   2.328   4.817   1.371
  267WAT     H1 1043   2.333   4.743   1.438
  267WAT     H2 1044   2.402   4.882   1.387
  268WAT      O 1045   0.568   4.052   1.489
  268WAT     H1 1046   0.547   3.984   1.418
  268WAT     H2 1047   0.493   4.055   1.555
  269WAT      O 1048   0.607   2.485   6.723
  269WAT     H1 1049   0.616   2.541   6.805
  269WAT     H2 1050   0.586   2.391   6.749
  270WAT      O 1051   5.879   4.313   5.811
  270WAT     H1 1052   5.923   4.326   5.900
  270WAT     H2 1053   5.854   4.217   5.801
  271WAT      O 1054   2.253   6.003   9.859
  271WAT     H1 1055   2.226   5.928   9.920
  271WAT     H2 1056   2.202   5.995   9.773
  272WAT      O 1057   5.859   9.817   6.984
  272WAT     H1 1058   5.783   9.789   6.926
  272WAT     H2 1059   5.869   9.751   7.059
  273WAT      O 1060   6.088   5.118   2.337
  273WAT     H1 1061   6.092   5.126   2.437
  273WAT     H2 1062   6.115   5.205   2.296
  274WAT      O 1063   7.654   4.019   9.759
  274WAT     H1 1064   7.626   4.052   9.669
  274WAT     H2 1065   7.573   3.991   9.811
  275WAT      O 1066   5.351   2.967   7.498
  275WAT     H1 1067   5.359   3.022   7.582
  275WAT     H2 1068   5.278   2.899   7.510
  276WAT      O 1069   8.845   5.262   0.611
  276WAT     H1 1070   8.924   5.202   0.613
  276WAT     H2 1071   8.872   5.354   0.637
  277WAT      O 1072   9.716   7.809   7.909
  277WAT     H1 1073   9.797   7.806   7.851
  277WAT     H2 1074   9.671   7.897   7.900
  278WAT      O 1075   7.212   1.478   5.512
  278WAT     H1 1076   7.252   1.473   5.421
  278WAT     H2 1077   7.285   1.473   5.581
  279WAT      O 1078   9.510   3.216   6.104
  279WAT     H1 1079   9.425   3.185   6.148
  279WAT     H2 1080   9.502   3.314   6.084
  280WAT      O 1081   0.243   0.117   1.148
  280WAT     H1 1082   0.223   0.203   1.103
  280WAT     H2 1083   0.315   0.131   1.216
  281WAT      O 1084   8.146   0.122   4.428
  281WAT     H1 1085   8.235   0.130   4.473
  281WAT     H2 1086   8.091   0.053   4.475
  282WAT      O 1087   6.275   0.850   0.175
  282WAT     H1 1088   6.271   0.869   0.077
  282WAT     H2 1089   6.187   0.812   0.205
  283WAT      O 1090   4.747   9.489   7.018
  283WAT     H1 1091   4.832   9.501   6.969
  283WAT     H2 1092   4.750   9.403   7.070
  284WAT      O 1093   2.402   4.435   1.272
  284WAT     H1 1094   2.436   4.453   1.180
  284WAT     H2 1095   2.315   4.482   1.286
  285WAT      O 1096   8.584   7.071   6.305
  285WAT     H1 1097   8.571   6.992   6.366
  285WAT     H2 1098   8.662   7.054   6.245
  286WAT      O 1099   9.616   7.065   6.993
  286WAT     H1 1100   9.576   7.054   7.084
  286WAT     H2 1101   9.715   7.058   6.999
  287WAT      O 1102   5.593   7.380   9.597
  287WAT     H1 1103   5.620   7.474   9.618
  287WAT     H2 1104   5.500   7.379   9.561
  288WAT      O 1105   8.445   3.697   0.421
  288WAT     H1 1106   8.496   3.642   0.355
  288WAT     H2 1107   8.347   3.681   0.411
  289WAT      O 1108   6.605   5.712   4.418
  289WAT     H1 1109   6.705   5.715   4.423
  289WAT     H2 1110   6.573   5.628   4.460
  290WAT      O 1111   7.050   6.307   4.226
  290WAT     H1 1112   7.026   6.231   4.166
  290WAT     H2 1113   6.989   6.307   4.306
  291WAT      O 1114   0.979   0.810   3.351
  291WAT     H1 1115   1.071   0.847   3.343
  291WAT     H2 1116   0.926   0.834   3.270
  292WAT      O 1117   0.398   9.314   7.838
  292WAT     H1 1118   0.491   9.331   7.808
  292WAT     H2 1119   0.399   9.283   7.934
  293WAT      O 1120   6.379   2.853   2.422
  293WAT     H1 1121   6.293   2.804   2.407
  293WAT     H2 1122   6.395   2.917   2.346
  294WAT      O 1123   2.673   1.035   6.091
  294WAT     H1 1124   2.685   1.016   5.993
  294WAT     H2 1125   2.760   1.064   6.131
  295WAT      O 1126   7.457   8.359   7.711
  295WAT     H1 1127   7.479   8.449   7.748
  295WAT     H2 1128   7.540   8.315   7.676
  296WAT      O 1129   3.795   6.671   8.922
  296WAT     H1 1130   3.778   6.614   8.841
  296WAT     H2 1131   3.894   6.679   8.936
  297WAT      O 1132   9.790   4.146   6.615
  297WAT     H1 1133   9.817   4.050   6.601
  297WAT     H2 1134   9.697   4.149   6.654
  298WAT      O 1135   8.871   7.172   2.425
  298WAT     H1 1136   8.789   7.206   2.471
  298WAT     H2 1137   8.938   7.245   2.418
  299WAT      O 1138   1.010   0.767   0.484
  299WAT     H1 1139   1.043   0.811   0.568
  299WAT     H2 1140   1.037   0.671   0.483
  300WAT      O 1141   1.861   0.022   2.048
  300WAT     H1 1142   1.917   0.049   1.969
  300WAT     H2 1143   1.821   0.104   2.089
  301WAT      O 1144   6.429   4.972   4.137
  301WAT     H1 1145   6.395   4.949   4.046
  301WAT     H2 1146   6.362   4.943   4.206
  302WAT      O 1147   1.308   1.890   3.920
  302WAT     H1 1148   1.244   1.888   3.843
  302WAT     H2 1149   1.385   1.950   3.898
  303WAT      O 1150   0.685   4.394   4.567
  303WAT     H1 1151   0.616   4.405   4.495
  303WAT     H2 1152   0.658   4.319   4.628
  304WAT      O 1153   8.726   8.677   7.885
  304WAT     H1 1154   8.730   8.723   7.974
  304WAT     H2 1155   8.707   8.745   7.814
  305WAT      O 1156   0.698   8.877   0.751
  305WAT     H1 1157   0.691   8.810   0.677
  305WAT     H2 1158   0.753   8.955   0.721
  306WAT      O 1159   3.638   7.763   6.628
  306WAT     H1 1160   3.716   7.825   6.621
  306WAT     H2 1161   3.603   7.763   6.722
  307WAT      O 1162   0.974   5.338   3.501
  307WAT     H1 1163   1.030   5.389   3.566
  307WAT     H2 1164   1.006   5.358   3.408
  308WAT      O 1165   7.351   6.349   8.605
  308WAT     H1 1166   7.386   6.423   8.547
  308WAT     H2 1167   7.259   6.372   8.637
  309WAT      O 1168   7.558   4.213   2.594
  309WAT     H1 1169   7.535   4.123   2.632
  309WAT     H2 1170   7.587   4.202   2.499
  310WAT      O 1171   4.778   5.251   9.088
  310WAT     H1 1172   4.808   5.346   9.099
  310WAT     H2 1173   4.702   5.233   9.150
  311WAT      O 1174   5.069   3.216   3.139
  311WAT     H1 1175   5.073   3.122   3.105
  311WAT     H2 1176   5.044   3.215   3.236
  312WAT      O 1177   6.214   5.620   3.561
  312WAT     H1 1178   6.120   5.619   3.527
  312WAT     H2 1179   6.214   5.603   3.660
  313WAT      O 1180   4.798   4.222   1.867
  313WAT     H1 1181   4.812   4.320   1.873
  313WAT     H2 1182   4.804   4.182   1.959
  314WAT      O 1183   0.816   7.174   7.447
  314WAT     H1 1184   0.874   7.213   7.376
  314WAT     H2 1185   0.850   7.084   7.473
  315WAT      O 1186   8.328   2.368   2.258
  315WAT     H1 1187   8.418   2.327   2.274
  315WAT     H2 1188   8.317   2.448   2.316
  316WAT      O 1189   2.128   3.051   3.705
  316WAT     H1 1190   2.116   3.148   3.725
  316WAT     H2 1191   2.142   3.039   3.606
  317WAT      O 1192   5.908   9.234   4.538
  317WAT     H1 1193   5.809   9.239   4.523
  317WAT     H2 1194   5.928   9.170   4.612
  318WAT      O 1195   8.806   3.436   5.181
  318WAT     H1 1196   8.902   3.456   5.199
  318WAT     H2 1197   8.785   3.343   5.212
  319WAT      O 1198   1.816   0.873   8.181
  319WAT     H1 1199   1.761   0.956   8.174
  319WAT     H2 1200   1.900   0.892   8.232
  320WAT      O 1201   8.245   5.490   8.892
  320WAT     H1 1202   8.286   5.469   8.981
  320WAT     H2 1203   8.163   5.546   8.906
  321WAT      O 1204   7.526   7.972   9.752
  321WAT     H1 1205   7.514   7.880   9.715
  321WAT     H2 1206   7.615   8.008   9.723
  322WAT      O 1207   8.760   7.768   2.450
  322WAT     H1 1208   8.840   7.721   2.412
  322WAT     H2 1209   8.680   7.709   2.442
  323WAT      O 1210   3.101   7.147   1.844
  323WAT     H1 1211   3.192   7.114   1.819
  323WAT     H2 1212   3.093   7.149   1.944
  324WAT      O 1213   6.409   2.050   8.944
  324WAT     H1 1214   6.346   1.983   8.984
  324WAT     H2 1215   6.461   2.007   8.871
  325WAT      O 1216   7.899   4.967   6.874
  325WAT     H1 1217   7.846   4.892   6.915
  325WAT     H2 1218   7.851   5.053   6.890
  326WAT      O 1219   6.661   2.981   9.526
  326WAT     H1 1220   6.567   2.988   9.559
  326WAT     H2 1221   6.669   2.901   9.467
  327WAT      O 1222   4.416   1.630   1.107
  327WAT     H1 1223   4.492   1.587   1.156
  327WAT     H2 1224   4.426   1.611   1.009
  328WAT      O 1225   2.996   0.749   2.131
  328WAT     H1 1226   2.992   0.809   2.052
  328WAT     H2 1227   2.945   0.665   2.112
  329WAT      O 1228   3.878   3.945   6.583
  329WAT     H1 1229   3.849   3.907   6.495
  329WAT     H2 1230   3.847   4.040   6.590
  330WAT      O 1231   0.614   2.300   5.290
  330WAT     H1 1232   0.680   2.372   5.313
  330WAT     H2 1233   0.522   2.331   5.312
  331WAT      O 1234   8.125   0.859   6.318
  331WAT     H1 1235   8.135   0.785   6.385
  331WAT     H2 1236   8.215   0.897   6.296
  332WAT      O 1237   5.711   8.257   8.620
  332WAT     H1 1238   5.716   8.354   8.642
  332WAT     H2 1239   5.616   8.231   8.606
  333WAT      O 1240   3.339   4.246   3.873
  333WAT     H1 1241   3.335   4.250   3.973
  333WAT     H2 1242   3.248   4.265   3.836
  334WAT      O 1243   2.130   1.477   6.779
  334WAT     H1 1244   2.210   1.432   6.740
  334WAT     H2 1245   2.148   1.501   6.874
  335WAT      O 1246   6.426   0.595   5.999
  335WAT     H1 1247   6.418   0.496   5.991
  335WAT     H2 1248   6.384   0.625   6.085
  336WAT      O 1249   0.076   2.923   5.798
  336WAT     H1 1250   0.060   2.852   5.867
  336WAT     H2 1251   0.126   2.884   5.721
  337WAT      O 1252   6.455   7.801   2.971
  337WAT     H1 1253   6.422   7.893   2.953
  337WAT     H2 1254   6.426   7.773   3.063
  338WAT      O 1255   0.161   3.480   2.511
  338WAT     H1 1256   0.107   3.537   2.449
  338WAT     H2 1257   0.149   3.512   2.605
  339WAT      O 1258   4.612   6.333   7.076
  339WAT     H1 1259   4.662   6.248   7.089
  339WAT     H2 1260   4.514   6.317   7.092
  340WAT      O 1261   2.989   0.559   7.875
  340WAT     H1 1262   2.958   0.601   7.960
  340WAT     H2 1263   2.921   0.492   7.844
  341WAT      O 1264   9.726   7.838   6.458
  341WAT     H1 1265   9.646   7.864   6.405
  341WAT     H2 1266   9.787   7.917   6.467
  342WAT      O 1267   4.136   7.042   7.785
  342WAT     H1 1268   4.209   7.036   7.853
  342WAT     H2 1269   4.069   6.970   7.802
  343WAT      O 1270   4.674   7.418   5.215
  343WAT     H1 1271   4.606   7.405   5.288
  343WAT     H2 1272   4.640   7.486   5.150
  344WAT      O 1273   2.827   1.566   4.391
  344WAT     H1 1274   2.855   1.510   4.312
  344WAT     H2 1275   2.800   1.505   4.466
  345WAT      O 1276   8.236   5.693   9.549
  345WAT     H1 1277   8.206   5.704   9.455
  345WAT     H2 1278   8.158   5.665   9.606
  346WAT      O 1279   6.340   2.228   7.913
  346WAT     H1 1280   6.435   2.224   7.946
  346WAT     H2 1281   6.282   2.170   7.971
  347WAT      O 1282   6.852   3.410   9.849
  347WAT     H1 1283   6.937   3.392   9.899
  347WAT     H2 1284   6.826   3.329   9.796
  348WAT      O 1285   8.187   7.442   0.447
  348WAT     H1 1286   8.141   7.483   0.526
  348WAT     H2 1287   8.276   7.407   0.474
  349WAT      O 1288   4.657   4.665   2.202
  349WAT     H1 1289   4.685   4.631   2.292
  349WAT     H2 1290   4.731   4.719   2.162
  350WAT      O 1291   0.676   7.984   5.545
  350WAT     H1 1292   0.629   7.912   5.597
  350WAT     H2 1293   0.625   8.002   5.461
  351WAT      O 1294   0.990   1.749   7.332
  351WAT     H1 1295   0.905   1.781   7.289
  351WAT     H2 1296   1.017   1.813   7.404
  352WAT      O 1297   6.295   0.647   2.626
  352WAT     H1 1298   6.347   0.572   2.586
  352WAT     H2 1299   6.199   0.622   2.632
  353WAT      O 1300   1.681   6.295   8.384
  353WAT     H1 1301   1.694   6.237   8.465
  353WAT     H2 1302   1.596   6.346   8.393
  354WAT      O 1303   2.923   9.020   6.088
  354WAT     H1 1304   2.935   9.093   6.021
  354WAT     H2 1305   3.003   9.017   6.148
  355WAT      O 1306   0.556   2.018   6.175
  355WAT     H1 1307   0.580   1.938   6.120
  355WAT     H2 1308   0.604   2.098   6.140
  356WAT      O 1309   9.021   4.063   8.649
  356WAT     H1 1310   8.979   3.978   8.682
  356WAT     H2 1311   8.952   4.136   8.650
  357WAT      O 1312   8.912   3.215   1.621
  357WAT     H1 1313   9.003   3.256   1.615
  357WAT     H2 1314   8.900   3.171   1.710
  358WAT      O 1315   5.653   8.886   2.089
  358WAT     H1 1316   5.727   8.925   2.143
  358WAT     H2 1317   5.653   8.786   2.099
  359WAT      O 1318   4.438   8.248   3.228
  359WAT     H1 1319   4.524   8.231   3.276
  359WAT     H2 1320   4.428   8.345   3.210
  360WAT      O 1321   4.566   0.396   1.722
  360WAT     H1 1322   4.555   0.453   1.640
  360WAT     H2 1323   4.476   0.374   1.759
  361WAT      O 1324   5.012   2.754   3.779
  361WAT     H1 1325   5.092   2.738   3.837
  361WAT     H2 1326   5.042   2.777   3.686
  362WAT      O 1327   5.736   0.378   8.467
  362WAT     H1 1328   5.714   0.462   8.517
  362WAT     H2 1329   5.776   0.401   8.379
  363WAT      O 1330   0.095   3.178   8.264
  363WAT     H1 1331   0.013   3.234   8.271
  363WAT     H2 1332   0.094   3.107   8.333
  364WAT      O 1333   8.293   7.925   7.470
  364WAT     H1 1334   8.286   7.862   7.548
  364WAT     H2 1335   8.284   8.019   7.503
  365WAT      O 1336   8.458   4.977   9.579
  365WAT     H1 1337   8.476   4.939   9.488
  365WAT     H2 1338   8.439   5.075   9.571
  366WAT      O 1339   7.117   6.019   9.474
  366WAT     H1 1340   7.045   6.026   9.543
  366WAT     H2 1341   7.079   6.037   9.383
  367WAT      O 1342   8.016   2.217   6.467
  367WAT     H1 1343   8.040   2.297   6.412
  367WAT     H2 1344   8.056   2.135   6.426
  368WAT      O 1345   7.326   9.767   4.986
  368WAT     H1 1346   7.404   9.713   5.019
  368WAT     H2 1347   7.346   9.864   4.998
  369WAT      O 1348   5.233   7.793   4.951
  369WAT     H1 1349   5.251   7.844   4.867
  369WAT     H2 1350   5.204   7.700   4.928
  370WAT      O 1351   5.165   7.340   4.108
  370WAT     H1 1352   5.075   7.371   4.076
  370WAT     H2 1353   5.237   7.383   4.054
  371WAT      O 1354   7.976   1.960   4.975
  371WAT     H1 1355   8.074   1.955   4.994
  371WAT     H2 1356   7.933   1.873   5.000
  372WAT      O 1357   0.849   2.950   8.957
  372WAT     H1 1358   0.751   2.938   8.943
  372WAT     H2 1359   0.898   2.937   8.871
  373WAT      O 1360   6.135   2.842   9.621
  373WAT     H1 1361   6.088   2.824   9.707
  373WAT     H2 1362   6.092   2.919   9.574
  374WAT      O 1363   7.601   6.203   5.051
  374WAT     H1 1364   7.535   6.152   5.106
  374WAT     H2 1365   7.693   6.184   5.085
  375WAT      O 1366   2.075   3.526   7.835
  375WAT     H1 1367   2.153   3.468   7.813
  375WAT     H2 1368   2.022   3.483   7.908
  376WAT      O 1369   6.541   3.075   0.564
  376WAT     H1 1370   6.528   2.986   0.519
  376WAT     H2 1371   6.633   3.079   0.604
  377WAT      O 1372   6.742   4.303   6.873
  377WAT     H1 1373   6.719   4.242   6.948
  377WAT     H2 1374   6.658   4.335   6.829
  378WAT      O 1375   7.719   4.050   6.866
  378WAT     H1 1376   7.813   4.083   6.867
  378WAT     H2 1377   7.666   4.098   6.937
  379WAT      O 1378   0.995   1.366   4.564
  379WAT     H1 1379   1.039   1.335   4.648
  379WAT     H2 1380   0.944   1.290   4.523
  380WAT      O 1381   0.915   5.762   3.474
  380WAT     H1 1382   0.839   5.785   3.412
  380WAT     H2 1383   0.998   5.750   3.421
  381WAT      O 1384   4.679   9.663   6.092
  381WAT     H1 1385   4.645   9.651   5.999
  381WAT     H2 1386   4.779   9.655   6.093
  382WAT      O 1387   3.677   4.778   6.800
  382WAT     H1 1388   3.772   4.747   6.797
  382WAT     H2 1389   3.618   4.710   6.755
  383WAT      O 1390   1.243   9.040   9.518
  383WAT     H1 1391   1.274   9.125   9.476
  383WAT     H2 1392   1.183   9.061   9.595
  384WAT      O 1393   0.792   5.157   5.416
  384WAT     H1 1394   0.836   5.074   5.381
  384WAT     H2 1395   0.813   5.233   5.355
  385WAT      O 1396   8.350   8.609   5.964
  385WAT     H1 1397   8.377   8.631   6.057
  385WAT     H2 1398   8.299   8.685   5.924
  386WAT      O 1399   0.497   9.203   6.506
  386WAT     H1 1400   0.450   9.128   6.554
  386WAT     H2 1401   0.505   9.180   6.409
  387WAT      O 1402   0.840   7.849   3.491
  387WAT     H1 1403   0.926   7.875   3.535
  387WAT     H2 1404   0.857   7.830   3.394
  388WAT      O 1405   1.807   2.373   9.746
  388WAT     H1 1406   1.903   2.345   9.752
  388WAT     H2 1407   1.773   2.357   9.654
  389WAT      O 1408   2.152   5.947   6.691
  389WAT     H1 1409   2.207   5.937   6.608
  389WAT     H2 1410   2.106   5.861   6.712
  390WAT      O 1411   5.507   3.394   2.995
  390WAT     H1 1412   5.569   3.358   2.925
  390WAT     H2 1413   5.520   3.493   3.002
  391WAT      O 1414   6.767   4.828   9.322
  391WAT     H1 1415   6.809   4.751   9.275
  391WAT     H2 1416   6.669   4.831   9.300
  392WAT      O 1417   9.637   3.178   3.835
  392WAT     H1 1418   9.728   3.220   3.841
  392WAT     H2 1419   9.567   3.249   3.839
  393WAT      O 1420   6.842   5.516   9.885
  393WAT     H1 1421   6.826   5.422   9.914
  393WAT     H2 1422   6.790   5.535   9.801
  394WAT      O 1423   7.611   0.727   2.524
  394WAT     H1 1424   7.521   0.729   2.568
  394WAT     H2 1425   7.674   0.786   2.573
  395WAT      O 1426   5.984   9.337   0.906
  395WAT     H1 1427   6.039   9.254   0.915
  395WAT     H2 1428   5.901   9.316   0.855
  396WAT      O 1429   1.831   1.314   3.711
  396WAT     H1 1430   1.856   1.405   3.679
  396WAT     H2 1431   1.769   1.272   3.644
  397WAT      O 1432   6.989   0.984   4.993
  397WAT     H1 1433   6.911   1.037   4.959
  397WAT     H2 1434   6.961   0.930   5.072
  398WAT      O 1435   3.551   1.754   2.712
  398WAT     H1 1436   3.541   1.850   2.687
  398WAT     H2 1437   3.484   1.700   2.660
  399WAT      O 1438   3.826   0.388   2.586
  399WAT     H1 1439   3.887   0.400   2.665
  399WAT     H2 1440   3.862   0.317   2.526
  400WAT      O 1441   1.024   9.655   1.693
  400WAT     H1 1442   1.051   9.744   1.730
  400WAT     H2 1443   1.067   9.582   1.746
  401WAT      O 1444   5.288   8.800   2.838
  401WAT     H1 1445   5.348   8.721   2.828
  401WAT     H2 1446   5.200   8.782   2.794
  402WAT      O 1447   7.046   4.307   2.971
  402WAT     H1 1448   7.138   4.318   2.934
  402WAT     H2 1449   7.014   4.214   2.954
  403WAT      O 1450   6.874   8.672   6.864
  403WAT     H1 1451   6.908   8.704   6.952
  403WAT     H2 1452   6.943   8.615   6.820
  404WAT      O 1453   2.958   5.388   4.261
  404WAT     H1 1454   2.920   5.298   4.283
  404WAT     H2 1455   3.049   5.397   4.302
  405WAT      O 1456   6.450   3.178   8.071
  405WAT     H1 1457   6.384   3.123   8.020
  405WAT     H2 1458   6.540   3.171   8.028
  406WAT      O 1459   5.789   8.558   6.474
  406WAT     H1 1460   5.705   8.545   6.526
  406WAT     H2 1461   5.796   8.487   6.404
  407WAT      O 1462   4.160   7.425   3.567
  407WAT     H1 1463   4.179   7.331   3.539
  407WAT     H2 1464   4.148   7.482   3.485
  408WAT      O 1465   7.514   8.332   5.473
  408WAT     H1 1466   7.578   8.257   5.489
  408WAT     H2 1467   7.564   8.412   5.441
  409WAT      O 1468   8.833   5.888   3.558
  409WAT     H1 1469   8.820   5.966   3.497
  409WAT     H2 1470   8.745   5.864   3.600
  410WAT      O 1471   6.568   2.295   2.648
  410WAT     H1 1472   6.663   2.276   2.672
  410WAT     H2 1473   6.565   2.355   2.568
  411WAT      O 1474   3.264   1.353   7.006
  411WAT     H1 1475   3.339   1.415   6.983
  411WAT     H2 1476   3.201   1.348   6.929
  412WAT      O 1477   2.229   6.960   5.743
  412WAT     H1 1478   2.152   6.900   5.765
  412WAT     H2 1479   2.199   7.030   5.678
  413WAT      O 1480   9.753   2.965   2.742
  413WAT     H1 1481   9.844   2.994   2.715
  413WAT     H2 1482   9.686   3.034   2.716
  414WAT      O 1483   4.408   3.992   8.667
  414WAT     H1 1484   4.328   3.937   8.687
  414WAT     H2 1485   4.398   4.083   8.709
  415WAT      O 1486   4.466   6.613   3.295
  415WAT     H1 1487   4.474   6.612   3.394
  415WAT     H2 1488   4.531   6.549   3.255
  416WAT      O 1489   3.111   4.163   7.477
  416WAT     H1 1490   3.084   4.070   7.455
  416WAT     H2 1491   3.146   4.208   7.394
  417WAT      O 1492   8.100   3.806   8.983
  417WAT     H1 1493   8.134   3.841   8.896
  417WAT     H2 1494   8.013   3.849   9.005
  418WAT      O 1495   1.410   5.569   6.315
  418WAT     H1 1496   1.456   5.528   6.237
  418WAT     H2 1497   1.444   5.528   6.400
  419WAT      O 1498   5.015   7.902   2.292
  419WAT     H1 1499   4.940   7.938   2.238
  419WAT     H2 1500   5.084   7.973   2.305
  420WAT      O 1501   7.797   7.646   6.671
  420WAT     H1 1502   7.857   7.638   6.750
  420WAT     H2 1503   7.851   7.649   6.587
  421WAT      O 1504   3.395   3.073   7.973
  421WAT     H1 1505   3.406   3.155   8.030
  421WAT     H2 1506   3.396   2.992   8.032
  422WAT      O 1507   6.936   8.122   1.754
  422WAT     H1 1508   6.844   8.096   1.726
  422WAT     H2 1509   6.948   8.105   1.852
  423WAT      O 1510   3.125   5.923   7.145
  423WAT     H1 1511   3.074   5.995   7.098
  423WAT     H2 1512   3.069   5.840   7.150
  424WAT      O 1513   6.817   7.344   4.323
  424WAT     H1 1514   6.807   7.377   4.417
  424WAT     H2 1515   6.772   7.406   4.260
  425WAT      O 1516   0.989   1.544   2.771
  425WAT     H1 1517   0.920   1.594   2.823
  425WAT     H2 1518   1.053   1.499   2.834
  426WAT      O 1519   8.333   4.463   7.195
  426WAT     H1 1520   8.255   4.503   7.147
  426WAT     H2 1521   8.414   4.467   7.136
  427WAT      O 1522   3.882   6.138   4.917
  427WAT     H1 1523   3.941   6.166   4.993
  427WAT     H2 1524   3.790   6.118   4.953
  428WAT      O 1525   4.442   2.993   2.690
  428WAT     H1 1526   4.455   2.936   2.609
  428WAT     H2 1527   4.348   3.025   2.693
  429WAT      O 1528   3.032   5.493   9.738
  429WAT     H1 1529   3.053   5.461   9.646
  429WAT     H2 1530   3.029   5.415   9.801
  430WAT      O 1531   8.802   0.451   6.010
  430WAT     H1 1532   8.882   0.504   6.040
  430WAT     H2 1533   8.806   0.360   6.051
  431WAT      O 1534   6.980   7.598   8.125
  431WAT     H1 1535   6.899   7.636   8.169
  431WAT     H2 1536   7.039   7.555   8.194
  432WAT      O 1537   9.822   3.133   0.003
  432WAT     H1 1538   9.740   3.145  -0.054
  432WAT     H2 1539   9.818   3.044   0.048
  433WAT      O 1540   9.674   7.519   3.332
  433WAT     H1 1541   9.649   7.476   3.246
  433WAT     H2 1542   9.770   7.547   3.330
  434WAT      O 1543   2.679   8.726   9.488
  434WAT     H1 1544   2.601   8.754   9.432
  434WAT     H2 1545   2.764   8.750   9.441
  435WAT      O 1546   9.661   2.396   2.273
  435WAT     H1 1547   9.640   2.321   2.336
  435WAT     H2 1548   9.577   2.426   2.227
  436WAT      O 1549   4.236   5.938   0.433
  436WAT     H1 1550   4.208   5.854   0.386
  436WAT     H2 1551   4.272   6.003   0.366
  437WAT      O 1552   9.527   8.987   2.118
  437WAT     H1 1553   9.505   9.079   2.150
  437WAT     H2 1554   9.627   8.979   2.108
  438WAT      O 1555   6.187   3.619   0.221
  438WAT     H1 1556   6.272   3.565   0.226
  438WAT     H2 1557   6.124   3.589   0.293
  439WAT      O 1558   6.696   5.390   7.404
  439WAT     H1 1559   6.737   5.357   7.489
  439WAT     H2 1560   6.599   5.366   7.403
  440WAT      O 1561   9.183   6.126   8.718
  440WAT     H1 1562   9.236   6.118   8.633
  440WAT     H2 1563   9.089   6.097   8.701
  441WAT      O 1564   8.737   8.995   5.690
  441WAT     H1 1565   8.718   9.010   5.787
  441WAT     H2 1566   8.749   8.897   5.673
  442WAT      O 1567   0.015   1.772   3.035
  442WAT     H1 1568   0.071   1.769   2.951
  442WAT     H2 1569  -0.047   1.850   3.030
  443WAT      O 1570   6.090   5.904   4.285
  443WAT     H1 1571   6.168   5.860   4.329
  443WAT     H2 1572   6.122   5.980   4.228
  444WAT      O 1573   3.946   3.072   8.423
  444WAT     H1 1574   3.974   2.978   8.440
  444WAT     H2 1575   3.942   3.088   8.324
  445WAT      O 1576   4.477   7.839   1.893
  445WAT     H1 1577   4.485   7.748   1.853
  445WAT     H2 1578   4.486   7.832   1.992
  446WAT      O 1579   9.579   7.226   9.442
  446WAT     H1 1580   9.603   7.178   9.358
  446WAT     H2 1581   9.528   7.165   9.502
  447WAT      O 1582   3.335   5.080   4.936
  447WAT     H1 1583   3.280   5.133   4.871
  447WAT     H2 1584   3.279   5.008   4.977
  448WAT      O 1585   1.139   8.088   6.321
  448WAT     H1 1586   1.154   8.164   6.258
  448WAT     H2 1587   1.056   8.038   6.294
  449WAT      O 1588   7.812   8.492   2.301
  449WAT     H1 1589   7.842   8.563   2.365
  449WAT     H2 1590   7.744   8.433   2.345
  450WAT      O 1591   5.803   1.022   4.009
  450WAT     H1 1592   5.884   0.972   4.040
  450WAT     H2 1593   5.722   0.984   4.054
  451WAT      O 1594   5.881   5.835   4.459
  451WAT     H1 1595   5.805   5.834   4.394
  451WAT     H2 1596   5.964   5.868   4.413
  452WAT      O 1597   5.403   0.773   0.195
  452WAT     H1 1598   5.309   0.803   0.211
  452WAT     H2 1599   5.409   0.734   0.103
  453WAT      O 1600   3.579   7.209   4.195
  453WAT     H1 1601   3.586   7.297   4.243
  453WAT     H2 1602   3.656   7.151   4.221
  454WAT      O 1603   5.518   3.398   9.786
  454WAT     H1 1604   5.469   3.332   9.844
  454WAT     H2 1605   5.604   3.423   9.831
  455WAT      O 1606   0.754   8.226   3.951
  455WAT     H1 1607   0.820   8.202   3.880
  455WAT     H2 1608   0.796   8.288   4.016
  456WAT      O 1609   7.008   4.122   6.541
  456WAT     H1 1610   6.960   4.081   6.618
  456WAT     H2 1611   7.099   4.151   6.569
  457WAT      O 1612   7.832   9.728   9.135
  457WAT     H1 1613   7.851   9.724   9.233
  457WAT     H2 1614   7.739   9.761   9.120
  458WAT      O 1615   2.358   5.494   1.703
  458WAT     H1 1616   2.351   5.425   1.775
  458WAT     H2 1617   2.398   5.577   1.741
  459WAT      O 1618   5.345   1.754   0.320
  459WAT     H1 1619   5.270   1.775   0.383
  459WAT     H2 1620   5.407   1.688   0.363
  460WAT      O 1621   7.569   6.871   3.194
  460WAT     H1 1622   7.476   6.853   3.164
  460WAT     H2 1623   7.568   6.942   3.265
  461WAT      O 1624   1.195   4.403   8.152
  461WAT     H1 1625   1.100   4.386   8.128
  461WAT     H2 1626   1.231   4.326   8.205
  462WAT      O 1627   6.620   4.150   8.523
  462WAT     H1 1628   6.550   4.079   8.521
  462WAT     H2 1629   6.579   4.238   8.496
  463WAT      O 1630   9.233   0.107   0.756
  463WAT     H1 1631   9.162   0.116   0.826
  463WAT     H2 1632   9.197   0.058   0.677
  464WAT      O 1633   7.764   5.667   4.647
  464WAT     H1 1634   7.823   5.589   4.625
  464WAT     H2 1635   7.676   5.655   4.600
  465WAT      O 1636   5.727   8.029   3.128
  465WAT     H1 1637   5.757   8.031   3.224
  465WAT     H2 1638   5.805   8.016   3.068
  466WAT      O 1639   9.648   1.048   6.939
  466WAT     H1 1640   9.700   1.039   7.025
  466WAT     H2 1641   9.563   1.097   6.956
  467WAT      O 1642   7.850   1.100   9.354
  467WAT     H1 1643   7.867   1.021   9.295
  467WAT     H2 1644   7.936   1.128   9.398
  468WAT      O 1645   9.383   2.882   5.798
  468WAT     H1 1646   9.403   2.803   5.855
  468WAT     H2 1647   9.372   2.852   5.703
  469WAT      O 1648   9.626   6.149   1.796
  469WAT     H1 1649   9.606   6.237   1.753
  469WAT     H2 1650   9.725   6.142   1.811
  470WAT      O 1651   8.728   2.884   5.926
  470WAT     H1 1652   8.637   2.857   5.956
  470WAT     H2 1653   8.748   2.976   5.959
  471WAT      O 1654   3.753   8.050   3.332
  471WAT     H1 1655   3.732   8.129   3.274
  471WAT     H2 1656   3.818   7.991   3.285
  472WAT      O 1657   8.794   0.146   6.423
  472WAT     H1 1658   8.796   0.238   6.462
  472WAT     H2 1659   8.726   0.091   6.471
  473WAT      O 1660   8.866   1.877   1.868
  473WAT     H1 1661   8.926   1.929   1.807
  473WAT     H2 1662   8.789   1.934   1.896
  474WAT      O 1663   9.131   3.860   5.552
  474WAT     H1 1664   9.049   3.808   5.577
  474WAT     H2 1665   9.152   3.925   5.625
  475WAT      O 1666   0.599   8.597   6.080
  475WAT     H1 1667   0.534   8.637   6.016
  475WAT     H2 1668   0.635   8.511   6.043
  476WAT      O 1669   3.627   5.102   5.546
  476WAT     H1 1670   3.566   5.174   5.578
  476WAT     H2 1671   3.686   5.138   5.473
  477WAT      O 1672   0.824   8.340   1.800
  477WAT     H1 1673   0.895   8.382   1.743
  477WAT     H2 1674   0.754   8.301   1.742
  478WAT      O 1675   6.111   4.129   5.417
  478WAT     H1 1676   6.099   4.030   5.422
  478WAT     H2 1677   6.127   4.166   5.509
  479WAT      O 1678   2.610   8.599   0.433
  479WAT     H1 1679   2.654   8.629   0.349
  479WAT     H2 1680   2.567   8.678   0.478
  480WAT      O 1681   6.542   8.953   6.150
  480WAT     H1 1682   6.502   8.887   6.213
  480WAT     H2 1683   6.637   8.972   6.178
  481WAT      O 1684   2.267   6.254   7.819
  481WAT     H1 1685   2.289   6.180   7.755
  481WAT     H2 1686   2.250   6.215   7.910
  482WAT      O 1687   9.473   6.904   6.801
  482WAT     H1 1688   9.377   6.912   6.827
  482WAT     H2 1689   9.531   6.942   6.873
  483WAT      O 1690   5.111   1.587   8.420
  483WAT     H1 1691   5.184   1.623   8.478
  483WAT     H2 1692   5.083   1.657   8.354
  484WAT      O 1693   4.960   1.877   6.633
  484WAT     H1 1694   4.906   1.961   6.622
  484WAT     H2 1695   4.906   1.809   6.681
  485WAT      O 1696   3.462   7.728   9.746
  485WAT     H1 1697   3.373   7.686   9.761
  485WAT     H2 1698   3.465   7.771   9.656
  486WAT      O 1699   5.106   5.898   0.621
  486WAT     H1 1700   5.108   5.992   0.656
  486WAT     H2 1701   5.163   5.840   0.678
  487WAT      O 1702   2.099   8.246   5.332
  487WAT     H1 1703   2.047   8.273   5.413
  487WAT     H2 1704   2.168   8.179   5.358
  488WAT      O 1705   4.718   1.419   9.514
  488WAT     H1 1706   4.642   1.371   9.472
  488WAT     H2 1707   4.802   1.400   9.463
  489WAT      O 1708   3.969   6.155   8.219
  489WAT     H1 1709   3.898   6.182   8.284
  489WAT     H2 1710   4.042   6.106   8.267
  490WAT      O 1711   6.950   2.260   5.787
  490WAT     H1 1712   6.929   2.162   5.792
  490WAT     H2 1713   6.905   2.307   5.862
  491WAT      O 1714   9.326   5.371   3.498
  491WAT     H1 1715   9.249   5.353   3.437
  491WAT     H2 1716   9.339   5.470   3.506
  492WAT      O 1717   4.171   5.226   4.691
  492WAT     H1 1718   4.171   5.128   4.672
  492WAT     H2 1719   4.108   5.273   4.628
  493WAT      O 1720   0.206   7.828   5.177
  493WAT     H1 1721   0.143   7.903   5.154
  493WAT     H2 1722   0.261   7.854   5.256
  494WAT      O 1723   0.263   3.840   1.293
  494WAT     H1 1724   0.275   3.884   1.382
  494WAT     H2 1725   0.196   3.891   1.239
  495WAT      O 1726   0.688   2.028   0.947
  495WAT     H1 1727   0.613   2.089   0.923
  495WAT     H2 1728   0.738   2.065   1.025
  496WAT      O 1729   6.517   5.900   4.274
  496WAT     H1 1730   6.420   5.898   4.298
  496WAT     H2 1731   6.566   5.829   4.325
  497WAT      O 1732   6.171   0.426   3.116
  497WAT     H1 1733   6.157   0.425   3.215
  497WAT     H2 1734   6.198   0.517   3.087
  498WAT      O 1735   2.664   0.585   7.819
  498WAT     H1 1736   2.657   0.644   7.739
  498WAT     H2 1737   2.667   0.489   7.789
  499WAT      O 1738   3.555   5.033   5.825
  499WAT     H1 1739   3.501   5.105   5.868
  499WAT     H2 1740   3.637   5.073   5.784
  500WAT      O 1741   3.937   6.432   1.200
  500WAT     H1 1742   3.923   6.478   1.112
  500WAT     H2 1743   3.903   6.338   1.194
  501WAT      O 1744   5.078   8.813   8.285
  501WAT     H1 1745   5.111   8.881   8.351
  501WAT     H2 1746   5.117   8.724   8.308
  502WAT      O 1747   6.227   7.843   7.637
  502WAT     H1 1748   6.199   7.787   7.559
  502WAT     H2 1749   6.327   7.851   7.638
  503WAT      O 1750   4.820   6.730   1.518
  503WAT     H1 1751   4.789   6.764   1.607
  503WAT     H2 1752   4.897   6.667   1.533
  504WAT      O 1753   7.816   7.376   9.886
  504WAT     H1 1754   7.871   7.446   9.930
  504WAT     H2 1755   7.738   7.418   9.839
  505WAT      O 1756   8.509   0.912   8.663
  505WAT     H1 1757   8.427   0.909   8.605
  505WAT     H2 1758   8.482   0.909   8.759
  506WAT      O 1759   2.862   8.631   0.610
  506WAT     H1 1760   2.825   8.571   0.681
  506WAT     H2 1761   2.795   8.642   0.537
  507WAT      O 1762   9.235   0.631   7.126
  507WAT     H1 1763   9.268   0.707   7.070
  507WAT     H2 1764   9.147   0.655   7.167
  508WAT      O 1765   9.107   5.371   6.454
  508WAT     H1 1766   9.025   5.339   6.501
  508WAT     H2 1767   9.139   5.456   6.496
  509WAT      O 1768   0.499   0.853   7.210
  509WAT     H1 1769   0.402   0.876   7.221
  509WAT     H2 1770   0.552   0.938   7.203
  510WAT      O 1771   5.967   9.815   3.371
  510WAT     H1 1772   5.991   9.799   3.466
  510WAT     H2 1773   5.880   9.770   3.350
  511WAT      O 1774   5.510   5.504   5.208
  511WAT     H1 1775   5.547   5.584   5.254
  511WAT     H2 1776   5.411   5.501   5.220
  512WAT      O 1777   1.156   1.364   1.635
  512WAT     H1 1778   1.248   1.323   1.639
  512WAT     H2 1779   1.127   1.388   1.728
  513WAT      O 1780   2.461   7.379   9.245
  513WAT     H1 1781   2.417   7.291   9.263
  513WAT     H2 1782   2.556   7.376   9.276
  514WAT      O 1783   2.002   4.599   2.796
  514WAT     H1 1784   1.981   4.685   2.843
  514WAT     H2 1785   1.994   4.612   2.697
  515WAT      O 1786   2.402   7.840   2.227
  515WAT     H1 1787   2.427   7.745   2.209
  515WAT     H2 1788   2.346   7.844   2.310
  516WAT      O 1789   7.271   1.100   1.253
  516WAT     H1 1790   7.350   1.119   1.311
  516WAT     H2 1791   7.242   1.184   1.208
  517WAT      O 1792   9.644   2.673   6.139
  517WAT     H1 1793   9.628   2.585   6.183
  517WAT     H2 1794   9.647   2.745   6.208
  518WAT      O 1795   9.174   1.733   9.197
  518WAT     H1 1796   9.218   1.745   9.286
  518WAT     H2 1797   9.087   1.782   9.196
  519WAT      O 1798   4.574   8.101   6.435
  519WAT     H1 1799   4.621   8.138   6.515
  519WAT     H2 1800   4.641   8.059   6.373
  520WAT      O 1801   7.725   7.874   7.361
  520WAT     H1 1802   7.797   7.884   7.429
  520WAT     H2 1803   7.642   7.839   7.404
  521WAT      O 1804   6.309   5.677   5.921
  521WAT     H1 1805   6.405   5.705   5.908
  521WAT     H2 1806   6.263   5.676   5.832
  522WAT      O 1807   5.770   4.683   3.195
  522WAT     H1 1808   5.724   4.633   3.121
  522WAT     H2 1809   5.863   4.648   3.204
  523WAT      O 1810   7.426   1.882   8.983
  523WAT     H1 1811   7.411   1.793   9.026
  523WAT     H2 1812   7.464   1.946   9.051
  524WAT      O 1813   8.486   8.067   6.178
  524WAT     H1 1814   8.546   8.082   6.257
  524WAT     H2 1815   8.399   8.029   6.210
  525WAT      O 1816   7.913   9.802   9.407
  525WAT     H1 1817   7.937   9.872   9.340
  525WAT     H2 1818   7.996   9.763   9.446
  526WAT      O 1819   6.885   1.217   4.900
  526WAT     H1 1820   6.837   1.255   4.979
  526WAT     H2 1821   6.941   1.288   4.857
  527WAT      O 1822   7.126   2.530   7.713
  527WAT     H1 1823   7.093   2.624   7.728
  527WAT     H2 1824   7.053   2.466   7.734
  528WAT      O 1825   0.765   9.693   0.461
  528WAT     H1 1826   0.852   9.697   0.510
  528WAT     H2 1827   0.689   9.693   0.527
  529WAT      O 1828   3.676   3.336   7.727
  529WAT     H1 1829   3.717   3.266   7.785
  529WAT     H2 1830   3.580   3.349   7.754
  530WAT      O 1831   7.863   8.470   6.961
  530WAT     H1 1832   7.815   8.544   6.914
  530WAT     H2 1833   7.882   8.396   6.897
  531WAT      O 1834   3.258   4.801   1.640
  531WAT     H1 1835   3.270   4.730   1.710
  531WAT     H2 1836   3.333   4.795   1.574
  532WAT      O 1837   3.898   0.226   3.567
  532WAT     H1 1838   3.820   0.163   3.565
  532WAT     H2 1839   3.982   0.175   3.582
  533WAT      O 1840   8.745   3.798   9.795
  533WAT     H1 1841   8.758   3.886   9.749
  533WAT     H2 1842   8.652   3.792   9.831
  534WAT      O 1843   1.957   8.385   0.829
  534WAT     H1 1844   2.044   8.418   0.791
  534WAT     H2 1845   1.976   8.312   0.894
  535WAT      O 1846   4.407   0.060   3.687
  535WAT     H1 1847   4.338   0.078   3.757
  535WAT     H2 1848   4.384  -0.025   3.639
  536WAT      O 1849   7.474   1.703   9.562
  536WAT     H1 1850   7.424   1.737   9.482
  536WAT     H2 1851   7.521   1.618   9.538
  537WAT      O 1852   3.362   5.534   6.778
  537WAT     H1 1853   3.322   5.562   6.865
  537WAT     H2 1854   3.307   5.570   6.703
  538WAT      O 1855   7.813   0.808   9.273
  538WAT     H1 1856   7.866   0.758   9.341
  538WAT     H2 1857   7.716   0.803   9.295
  539WAT      O 1858   1.728   6.371   2.539
  539WAT     H1 1859   1.798   6.302   2.554
  539WAT     H2 1860   1.762   6.439   2.473
  540WAT      O 1861   2.204   6.330   9.476
  540WAT     H1 1862   2.151   6.248   9.453
  540WAT     H2 1863   2.142   6.405   9.498
  541WAT      O 1864   2.040   7.131   8.105
  541WAT     H1 1865   2.022   7.106   8.200
  541WAT     H2 1866   2.039   7.048   8.049
  542WAT      O 1867   8.931   2.435   8.550
  542WAT     H1 1868   8.920   2.446   8.451
  542WAT     H2 1869   8.939   2.525   8.593
  543WAT      O 1870   4.255   9.085   7.486
  543WAT     H1 1871   4.347   9.123   7.498
  543WAT     H2 1872   4.256   8.987   7.505
  544WAT      O 1873   8.230   6.547   9.652
  544WAT     H1 1874   8.225   6.518   9.556
  544WAT     H2 1875   8.301   6.495   9.699
  545WAT      O 1876   4.913   0.976   2.311
  545WAT     H1 1877   4.981   1.046   2.288
  545WAT     H2 1878   4.896   0.977   2.409
  546WAT      O 1879   3.546   8.877   6.445
  546WAT     H1 1880   3.635   8.906   6.411
  546WAT     H2 1881   3.515   8.798   6.394
  547WAT      O 1882   0.675   9.205   5.757
  547WAT     H1 1883   0.714   9.176   5.845
  547WAT     H2 1884   0.576   9.191   5.758
  548WAT      O 1885   3.458   6.671   4.438
  548WAT     H1 1886   3.449   6.572   4.434
  548WAT     H2 1887   3.555   6.696   4.444
  549WAT      O 1888   1.471   7.074   7.166
  549WAT     H1 1889   1.446   7.165   7.201
  549WAT     H2 1890   1.512   7.084   7.075
  550WAT      O 1891   8.989   7.296   9.647
  550WAT     H1 1892   9.006   7.197   9.651
  550WAT     H2 1893   8.999   7.327   9.552
  551WAT      O 1894   0.878   7.061   2.145
  551WAT     H1 1895   0.854   7.146   2.100
  551WAT     H2 1896   0.959   7.076   2.203
  552WAT      O 1897   2.164   9.675   8.635
  552WAT     H1 1898   2.094   9.616   8.595
  552WAT     H2 1899   2.236   9.691   8.567
  553WAT      O 1900   6.795   4.461   3.285
  553WAT     H1 1901   6.845   4.381   3.316
  553WAT     H2 1902   6.704   4.433   3.253
  554WAT      O 1903   9.242   3.964   3.885
  554WAT     H1 1904   9.143   3.948   3.883
  554WAT     H2 1905   9.274   3.959   3.980
  555WAT      O 1906   9.226   4.567   4.357
  555WAT     H1 1907   9.217   4.471   4.384
  555WAT     H2 1908   9.152   4.621   4.400
  556WAT      O 1909   9.756   8.210   8.070
  556WAT     H1 1910   9.779   8.271   7.994
  556WAT     H2 1911   9.746   8.263   8.154
  557WAT      O 1912   7.072   9.112   5.707
  557WAT     H1 1913   7.055   9.074   5.798
  557WAT     H2 1914   7.152   9.066   5.667
  558WAT      O 1915   9.455   4.921   9.670
  558WAT     H1 1916   9.534   4.859   9.666
  558WAT     H2 1917   9.373   4.868   9.693
  559WAT      O 1918   1.958   9.648   3.528
  559WAT     H1 1919   1.946   9.729   3.471
  559WAT     H2 1920   1.928   9.567   3.478
  560WAT      O 1921   0.136   6.925   5.052
  560WAT     H1 1922   0.190   6.845   5.078
  560WAT     H2 1923   0.096   6.967   5.133
  561WAT      O 1924   9.497   6.532   2.214
  561WAT     H1 1925   9.405   6.494   2.221
  561WAT     H2 1926   9.544   6.519   2.302
  562WAT      O 1927   7.264   5.803   5.188
  562WAT     H1 1928   7.234   5.879   5.131
  562WAT     H2 1929   7.307   5.838   5.271
  563WAT      O 1930   3.576   3.223   8.895
  563WAT     H1 1931   3.546   3.181   8.809
  563WAT     H2 1932   3.497   3.261   8.943
  564WAT      O 1933   0.842   9.332   7.265
  564WAT     H1 1934   0.773   9.391   7.306
  564WAT     H2 1935   0.798   9.255   7.220
  565WAT      O 1936   1.534   9.399   4.892
  565WAT     H1 1937   1.436   9.413   4.879
  565WAT     H2 1938   1.584   9.480   4.863
  566WAT      O 1939   2.700   9.470   5.907
  566WAT     H1 1940   2.782   9.418   5.933
  566WAT     H2 1941   2.685   9.462   5.809
  567WAT      O 1942   9.018   0.185   8.620
  567WAT     H1 1943   8.942   0.123   8.602
  567WAT     H2 1944   9.104   0.134   8.618
  568WAT      O 1945   8.635   8.189   7.290
  568WAT     H1 1946   8.726   8.155   7.315
  568WAT     H2 1947   8.582   8.204   7.373
  569WAT      O 1948   3.618   3.491   8.854
  569WAT     H1 1949   3.620   3.554   8.932
  569WAT     H2 1950   3.636   3.398   8.887
  570WAT      O 1951   2.495   0.967   5.656
  570WAT     H1 1952   2.463   0.937   5.746
  570WAT     H2 1953   2.561   0.900   5.621
  571WAT      O 1954   4.627   8.647   9.064
  571WAT     H1 1955   4.709   8.637   9.120
  571WAT     H2 1956   4.589   8.738   9.076
  572WAT      O 1957   0.175   5.900   6.708
  572WAT     H1 1958   0.268   5.868   6.726
  572WAT     H2 1959   0.132   5.926   6.794
  573WAT      O 1960   5.701   9.173   1.400
  573WAT     H1 1961   5.679   9.131   1.487
  573WAT     H2 1962   5.626   9.157   1.335
  574WAT      O 1963   2.070   1.041   7.502
  574WAT     H1 1964   2.066   1.007   7.407
  574WAT     H2 1965   1.998   1.108   7.516
  575WAT      O 1966   6.441   1.629   3.707
  575WAT     H1 1967   6.402   1.698   3.646
  575WAT     H2 1968   6.523   1.590   3.665
  576WAT      O 1969   0.771   9.060   1.432
  576WAT     H1 1970   0.828   8.991   1.387
  576WAT     H2 1971   0.821   9.099   1.509
  577WAT      O 1972   9.507   5.568   6.415
  577WAT     H1 1973   9.605   5.581   6.420
  577WAT     H2 1974   9.462   5.656   6.397
  578WAT      O 1975   1.368   1.979   5.360
  578WAT     H1 1976   1.467   1.963   5.360
  578WAT     H2 1977   1.321   1.895   5.333
  579WAT      O 1978   7.997   2.711   6.822
  579WAT     H1 1979   8.017   2.678   6.730
  579WAT     H2 1980   7.912   2.765   6.821
  580WAT      O 1981   6.278   6.800   0.372
  580WAT     H1 1982   6.195   6.746   0.359
  580WAT     H2 1983   6.267   6.890   0.331
  581WAT      O 1984   0.344   6.282   6.154
  581WAT     H1 1985   0.342   6.295   6.055
  581WAT     H2 1986   0.342   6.371   6.200
  582WAT      O 1987   7.441   5.564   1.286
  582WAT     H1 1988   7.499   5.566   1.368
  582WAT     H2 1989   7.425   5.469   1.260
  583WAT      O 1990   4.386   5.023   9.578
  583WAT     H1 1991   4.447   5.097   9.607
  583WAT     H2 1992   4.413   4.938   9.625
  584WAT      O 1993   9.729   1.033   0.194
  584WAT     H1 1994   9.762   1.094   0.122
  584WAT     H2 1995   9.722   0.940   0.158
  585WAT      O 1996   4.000   6.488   4.917
  585WAT     H1 1997   3.978   6.463   4.823
  585WAT     H2 1998   3.915   6.504   4.968
  586WAT      O 1999   0.281   9.818   6.216
  586WAT     H1 2000   0.185   9.791   6.207
  586WAT     H2 2001   0.304   9.884   6.144
  587WAT      O 2002   1.065   6.182   8.731
  587WAT     H1 2003   1.089   6.177   8.634
  587WAT     H2 2004   0.980   6.132   8.748
  588WAT      O 2005   4.863   4.142   3.587
  588WAT     H1 2006   4.813   4.055   3.595
  588WAT     H2 2007   4.948   4.127   3.536
  589WAT      O 2008   4.017   1.478   6.874
  589WAT     H1 2009   4.052   1.500   6.965
  589WAT     H2 2010   3.941   1.539   6.852
  590WAT      O 2011   8.118   5.201   0.589
  590WAT     H1 2012   8.170   5.282   0.616
  590WAT     H2 2013   8.025   5.207   0.625
  591WAT      O 2014   5.301   4.362   1.474
  591WAT     H1 2015   5.241   4.434   1.507
  591WAT     H2 2016   5.394   4.398   1.463
  592WAT      O 2017   5.452   1.089   4.332
  592WAT     H1 2018   5.454   1.188   4.349
  592WAT     H2 2019   5.466   1.040   4.418
  593WAT      O 2020   4.923   9.737   9.129
  593WAT     H1 2021   4.985   9.719   9.205
  593WAT     H2 2022   4.881   9.652   9.098
  594WAT      O 2023   5.999   3.422   3.810
  594WAT     H1 2024   5.928   3.355   3.787
  594WAT     H2 2025   5.956   3.509   3.836
  595WAT      O 2026   2.328   1.561   4.918
  595WAT     H1 2027   2.357   1.494   4.986
  595WAT     H2 2028   2.409   1.604   4.877
  596WAT      O 2029   4.516   1.036   3.393
  596WAT     H1 2030   4.438   0.983   3.360
  596WAT     H2 2031   4.601   0.995   3.360
  597WAT      O 2032   8.331   7.118   5.857
  597WAT     H1 2033   8.336   7.068   5.943
  597WAT     H2 2034   8.337   7.216   5.876
  598WAT      O 2035   2.233   8.472   4.414
  598WAT     H1 2036   2.279   8.439   4.331
  598WAT     H2 2037   2.136   8.448   4.408
  599WAT      O 2038   7.349   2.789   9.888
  599WAT     H1 2039   7.276   2.835   9.938
  599WAT     H2 2040   7.418   2.856   9.861
  600WAT      O 2041   4.693   6.925   6.131
  600WAT     H1 2042   4.723   6.841   6.176
  600WAT     H2 2043   4.693   6.999   6.198
  601WAT      O 2044   5.986   6.470   3.768
  601WAT     H1 2045   5.902   6.448   3.719
  601WAT     H2 2046   6.064   6.460   3.707
  602WAT      O 2047   5.599   9.486   5.650
  602WAT     H1 2048   5.541   9.485   5.732
  602WAT     H2 2049   5.689   9.448   5.672
  603WAT      O 2050   2.509   7.919   7.053
  603WAT     H1 2051   2.553   7.842   7.007
  603WAT     H2 2052   2.565   8.002   7.040
  604WAT      O 2053   3.010   7.055   6.457
  604WAT     H1 2054   2.911   7.051   6.459
  604WAT     H2 2055   3.039   7.112   6.380
  605WAT      O 2056   7.290   3.517   3.039
  605WAT     H1 2057   7.319   3.496   3.132
  605WAT     H2 2058   7.370   3.517   2.979
  606WAT      O 2059   3.750   6.509   5.038
  606WAT     H1 2060   3.723   6.546   4.949
  606WAT     H2 2061   3.770   6.584   5.100
  607WAT      O 2062   3.710   2.440   6.310
  607WAT     H1 2063   3.785   2.396   6.359
  607WAT     H2 2064   3.658   2.499   6.372
  608WAT      O 2065   7.898   5.423   4.626
  608WAT     H1 2066   7.981   5.382   4.664
  608WAT     H2 2067   7.820   5.364   4.647
  609WAT      O 2068   3.772   3.743   7.456
  609WAT     H1 2069   3.727   3.706   7.375
  609WAT     H2 2070   3.725   3.826   7.485
  610WAT      O 2071   7.207   4.792   3.011
  610WAT     H1 2072   7.160   4.775   3.097
  610WAT     H2 2073   7.142   4.828   2.944
  611WAT      O 2074   2.800   7.804   9.700
  611WAT     H1 2075   2.893   7.824   9.670
  611WAT     H2 2076   2.791   7.823   9.797
  612WAT      O 2077   4.141   5.839   9.650
  612WAT     H1 2078   4.134   5.850   9.551
  612WAT     H2 2079   4.237   5.827   9.676
  613WAT      O 2080   3.864   3.153   4.898
  613WAT     H1 2081   3.842   3.119   4.807
  613WAT     H2 2082   3.914   3.239   4.891
  614WAT      O 2083   4.199   9.546   3.621
  614WAT     H1 2084   4.217   9.477   3.690
  614WAT     H2 2085   4.108   9.585   3.635
  615WAT      O 2086   5.321   2.344   8.162
  615WAT     H1 2087   5.227   2.364   8.136
  615WAT     H2 2088   5.381   2.416   8.130
  616WAT      O 2089   8.117   4.360   3.093
  616WAT     H1 2090   8.206   4.378   3.137
  616WAT     H2 2091   8.127   4.285   3.028
  617WAT      O 2092   3.833   5.046   4.138
  617WAT     H1 2093   3.922   5.083   4.165
  617WAT     H2 2094   3.845   4.954   4.101
  618WAT      O 2095   3.294   4.041   8.349
  618WAT     H1 2096   3.360   4.099   8.396
  618WAT     H2 2097   3.252   4.091   8.274
  619WAT      O 2098   3.358   8.130   8.804
  619WAT     H1 2099   3.269   8.085   8.802
  619WAT     H2 2100   3.431   8.061   8.808
  620WAT      O 2101   0.869   2.065   9.472
  620WAT     H1 2102   0.939   2.135   9.484
  620WAT     H2 2103   0.843   2.060   9.376
  621WAT      O 2104   4.518   4.227   9.034
  621WAT     H1 2105   4.524   4.327   9.034
  621WAT     H2 2106   4.498   4.195   8.941
  622WAT      O 2107   7.938   2.861   8.121
  622WAT     H1 2108   7.889   2.937   8.078
  622WAT     H2 2109   8.036   2.872   8.107
  623WAT      O 2110   0.219   5.005   0.417
  623WAT     H1 2111   0.190   5.078   0.478
  623WAT     H2 2112   0.139   4.969   0.368
  624WAT      O 2113   4.427   2.479   4.358
  624WAT     H1 2114   4.516   2.504   4.395
  624WAT     H2 2115   4.379   2.420   4.423
  625WAT      O 2116   4.761   4.775   9.638
  625WAT     H1 2117   4.797   4.788   9.730
  625WAT     H2 2118   4.837   4.774   9.573
  626WAT      O 2119   0.011   8.325   3.089
  626WAT     H1 2120   0.035   8.233   3.119
  626WAT     H2 2121  -0.068   8.357   3.142
  627WAT      O 2122   7.803   8.057   0.802
  627WAT     H1 2123   7.763   7.970   0.830
  627WAT     H2 2124   7.787   8.071   0.704
  628WAT      O 2125   2.859   2.695   0.678
  628WAT     H1 2126   2.949   2.671   0.642
  628WAT     H2 2127   2.799   2.721   0.603
  629WAT      O 2128   5.826   8.879   1.621
  629WAT     H1 2129   5.859   8.932   1.700
  629WAT     H2 2130   5.894   8.882   1.548
  630WAT      O 2131   6.528   8.788   9.378
  630WAT     H1 2132   6.510   8.819   9.471
  630WAT     H2 2133   6.512   8.689   9.372
  631WAT      O 2134   7.023   3.300   4.605
  631WAT     H1 2135   6.998   3.380   4.659
  631WAT     H2 2136   7.122   3.294   4.598
  632WAT      O 2137   6.038   0.565   7.741
  632WAT     H1 2138   6.084   0.480   7.768
  632WAT     H2 2139   6.027   0.567   7.641
  633WAT      O 2140   8.934   3.371   0.911
  633WAT     H1 2141   8.913   3.287   0.961
  633WAT     H2 2142   8.860   3.437   0.925
  634WAT      O 2143   8.018   6.372   2.832
  634WAT     H1 2144   7.932   6.351   2.878
  634WAT     H2 2145   8.010   6.461   2.786
  635WAT      O 2146   8.980   9.835   6.937
  635WAT     H1 2147   9.003   9.794   7.025
  635WAT     H2 2148   8.886   9.813   6.912
  636WAT      O 2149   9.204   6.258   0.752
  636WAT     H1 2150   9.165   6.291   0.837
  636WAT     H2 2151   9.215   6.158   0.757
  637WAT      O 2152   2.705   6.169   4.597
  637WAT     H1 2153   2.701   6.109   4.677
  637WAT     H2 2154   2.617   6.216   4.586
  638WAT      O 2155   3.672   1.841   3.921
  638WAT     H1 2156   3.637   1.881   4.006
  638WAT     H2 2157   3.599   1.792   3.875
  639WAT      O 2158   2.522   4.778   5.357
  639WAT     H1 2159   2.439   4.782   5.413
  639WAT     H2 2160   2.520   4.695   5.301
  640WAT      O 2161   3.573   5.615   8.665
  640WAT     H1 2162   3.672   5.621   8.676
  640WAT     H2 2163   3.552   5.576   8.575
  641WAT      O 2164   3.987   4.780   5.324
  641WAT     H1 2165   3.952   4.743   5.410
  641WAT     H2 2166   4.016   4.705   5.264
  642WAT      O 2167   5.420   5.873   4.006
  642WAT     H1 2168   5.492   5.805   4.018
  642WAT     H2 2169   5.332   5.832   4.028
  643WAT      O 2170   6.024   8.984   8.279
  643WAT     H1 2171   5.995   8.928   8.202
  643WAT     H2 2172   6.054   8.925   8.354
  644WAT      O 2173   3.980   3.418   5.473
  644WAT     H1 2174   3.966   3.340   5.413
  644WAT     H2 2175   3.981   3.502   5.419
  645WAT      O 2176   7.185   0.058   2.346
  645WAT     H1 2177   7.245   0.046   2.267
  645WAT     H2 2178   7.097   0.094   2.315
  646WAT      O 2179   0.004   3.152   7.654
  646WAT     H1 2180  -0.036   3.243   7.639
  646WAT     H2 2181   0.002   3.100   7.569
  647WAT      O 2182   3.074   7.057   4.073
  647WAT     H1 2183   3.045   6.962   4.090
  647WAT     H2 2184   3.083   7.104   4.161
  648WAT      O 2185   7.391   5.287   4.115
  648WAT     H1 2186   7.304   5.318   4.077
  648WAT     H2 2187   7.465   5.308   4.051
  649WAT      O 2188   3.398   0.113   3.931
  649WAT     H1 2189   3.455   0.048   3.881
  649WAT     H2 2190   3.326   0.148   3.871
  650WAT      O 2191   1.779   6.550   9.013
  650WAT     H1 2192   1.720   6.566   8.933
  650WAT     H2 2193   1.810   6.455   9.012
  651WAT      O 2194   2.219   0.715   6.973
  651WAT     H1 2195   2.268   0.729   7.059
  651WAT     H2 2196   2.245   0.626   6.935
  652WAT      O 2197   9.815   3.495   0.587
  652WAT     H1 2198   9.902   3.480   0.541
  652WAT     H2 2199   9.807   3.590   0.615
  653WAT      O 2200   8.025   1.787   1.880
  653WAT     H1 2201   8.084   1.716   1.840
  653WAT     H2 2202   8.065   1.819   1.966
  654WAT      O 2203   7.554   1.756   1.439
  654WAT     H1 2204   7.517   1.666   1.460
  654WAT     H2 2205   7.518   1.823   1.504
  655WAT      O 2206   4.939   6.434   0.624
  655WAT     H1 2207   4.916   6.340   0.602
  655WAT     H2 2208   4.857   6.491   0.619
  656WAT      O 2209   7.409   5.939   0.120
  656WAT     H1 2210   7.404   5.845   0.155
  656WAT     H2 2211   7.317   5.974   0.105
  657WAT      O 2212   3.740   0.299   0.755
  657WAT     H1 2213   3.649   0.336   0.738
  657WAT     H2 2214   3.765   0.235   0.682
  658WAT      O 2215   7.057   7.736   9.602
  658WAT     H1 2216   6.965   7.772   9.590
  658WAT     H2 2217   7.056   7.637   9.586
  659WAT      O 2218   2.727   5.103   7.328
  659WAT     H1 2219   2.803   5.153   7.369
  659WAT     H2 2220   2.716   5.015   7.374
  660WAT      O 2221   9.341   0.311   0.562
  660WAT     H1 2222   9.314   0.249   0.636
  660WAT     H2 2223   9.383   0.393   0.602
  661WAT      O 2224   9.530   5.919   5.170
  661WAT     H1 2225   9.500   5.855   5.241
  661WAT     H2 2226   9.605   5.879   5.118
  662WAT      O 2227   6.654   9.595   2.055
  662WAT     H1 2228   6.728   9.529   2.040
  662WAT     H2 2229   6.578   9.550   2.101
  663WAT      O 2230   5.019   3.842   4.619
  663WAT     H1 2231   4.940   3.846   4.558
  663WAT     H2 2232   5.066   3.930   4.618
  664WAT      O 2233   8.883   9.735   1.272
  664WAT     H1 2234   8.825   9.813   1.296
  664WAT     H2 2235   8.978   9.765   1.265
  665WAT      O 2236   7.172   4.145   5.398
  665WAT     H1 2237   7.143   4.223   5.453
  665WAT     H2 2238   7.184   4.065   5.457
  666WAT      O 2239   1.950   1.540   8.328
  666WAT     H1 2240   1.944   1.443   8.305
  666WAT     H2 2241   1.968   1.550   8.426
  667WAT      O 2242   2.813   1.769   2.061
  667WAT     H1 2243   2.815   1.846   1.998
  667WAT     H2 2244   2.906   1.737   2.079
  668WAT      O 2245   7.733   5.962   7.568
  668WAT     H1 2246   7.715   5.938   7.664
  668WAT     H2 2247   7.675   6.040   7.542
  669WAT      O 2248   0.681   7.387   2.124
  669WAT     H1 2249   0.636   7.418   2.208
  669WAT     H2 2250   0.623   7.407   2.045
  670WAT      O 2251   4.763   6.390   9.542
  670WAT     H1 2252   4.814   6.476   9.533
  670WAT     H2 2253   4.733   6.359   9.452
  671WAT      O 2254   3.212   0.464   5.436
  671WAT     H1 2255   3.199   0.560   5.459
  671WAT     H2 2256   3.135   0.432   5.381
  672WAT      O 2257   2.149   5.999   6.063
  672WAT     H1 2258   2.061   6.032   6.029
  672WAT     H2 2259   2.206   5.972   5.986
  673WAT      O 2260   4.834   0.757   9.343
  673WAT     H1 2261   4.878   0.673   9.373
  673WAT     H2 2262   4.752   0.735   9.290
  674WAT      O 2263   6.859   6.087   2.393
  674WAT     H1 2264   6.764   6.117   2.401
  674WAT     H2 2265   6.915   6.162   2.357
  675WAT      O 2266   0.445   4.914   9.301
  675WAT     H1 2267   0.391   4.847   9.352
  675WAT     H2 2268   0.397   4.938   9.217
  676WAT      O 2269   0.896   4.684   8.112
  676WAT     H1 2270   0.945   4.598   8.099
  676WAT     H2 2271   0.946   4.759   8.069
  677WAT      O 2272   1.616   9.682   2.474
  677WAT     H1 2273   1.708   9.643   2.465
  677WAT     H2 2274   1.591   9.686   2.571
  678WAT      O 2275   2.950   7.996   3.972
  678WAT     H1 2276   2.925   7.977   3.877
  678WAT     H2 2277   2.918   8.087   3.997
  679WAT      O 2278   2.442   2.879   0.135
  679WAT     H1 2279   2.528   2.921   0.162
  679WAT     H2 2280   2.454   2.831   0.048
  680WAT      O 2281   0.947   2.814   0.192
  680WAT     H1 2282   0.897   2.738   0.234
  680WAT     H2 2283   0.973   2.880   0.263
  681WAT      O 2284   8.131   4.584   2.062
  681WAT     H1 2285   8.074   4.606   1.983
  681WAT     H2 2286   8.157   4.488   2.060
  682WAT      O 2287   3.325   5.151   6.427
  682WAT     H1 2288   3.338   5.215   6.503
  682WAT     H2 2289   3.286   5.200   6.349
  683WAT      O 2290   0.907   3.760   7.127
  683WAT     H1 2291   0.890   3.785   7.032
  683WAT     H2 2292   0.842   3.690   7.155
  684WAT      O 2293   3.781   8.821   1.836
  684WAT     H1 2294   3.858   8.839   1.775
  684WAT     H2 2295   3.813   8.776   1.919
  685WAT      O 2296   5.599   2.018   5.958
  685WAT     H1 2297   5.682   1.979   5.919
  685WAT     H2 2298   5.523   2.004   5.895
  686WAT      O 2299   0.072   4.226   5.026
  686WAT     H1 2300   0.100   4.137   5.060
  686WAT     H2 2301   0.128   4.252   4.947
  687WAT      O 2302   2.611   5.852   0.297
  687WAT     H1 2303   2.602   5.951   0.299
  687WAT     H2 2304   2.622   5.817   0.390
  688WAT      O 2305   7.290   1.775   2.250
  688WAT     H1 2306   7.326   1.682   2.236
  688WAT     H2 2307   7.342   1.839   2.194
  689WAT      O 2308   5.911   0.357   3.974
  689WAT     H1 2309   5.914   0.457   3.983
  689WAT     H2 2310   5.953   0.330   3.887
  690WAT      O 2311   9.273   0.407   1.215
  690WAT     H1 2312   9.231   0.456   1.291
  690WAT     H2 2313   9.216   0.416   1.133
  691WAT      O 2314   2.040   0.062   2.424
  691WAT     H1 2315   1.994  -0.001   2.361
  691WAT     H2 2316   2.111   0.113   2.376
  692WAT      O 2317   3.248   3.266   0.536
  692WAT     H1 2318   3.253   3.265   0.436
  692WAT     H2 2319   3.167   3.216   0.566
  693WAT      O 2320   3.937   7.900   3.206
  693WAT     H1 2321   3.971   7.904   3.111
  693WAT     H2 2322   4.011   7.926   3.268
  694WAT      O 2323   7.986   4.064   1.767
  694WAT     H1 2324   8.073   4.106   1.743
  694WAT     H2 2325   7.964   3.991   1.702
  695WAT      O 2326   0.997   0.102   6.097
  695WAT     H1 2327   1.048   0.016   6.103
  695WAT     H2 2328   1.012   0.143   6.007
  696WAT      O 2329   6.535   9.362   0.121
  696WAT     H1 2330   6.437   9.370   0.103
  696WAT     H2 2331   6.551   9.366   0.220
  697WAT      O 2332   7.668   3.634   7.637
  697WAT     H1 2333   7.568   3.630   7.633
  697WAT     H2 2334   7.705   3.541   7.645
  698WAT      O 2335   2.922   5.169   9.232
  698WAT     H1 2336   3.021   5.163   9.240
  698WAT     H2 2337   2.888   5.089   9.182
  699WAT      O 2338   6.355   0.329   2.885
  699WAT     H1 2339   6.315   0.299   2.971
  699WAT     H2 2340   6.290   0.312   2.811
  700WAT      O 2341   4.340   5.664   4.439
  700WAT     H1 2342   4.320   5.602   4.514
  700WAT     H2 2343   4.256   5.683   4.388
  701WAT      O 2344   6.423   3.316   1.901
  701WAT     H1 2345   6.497   3.282   1.844
  701WAT     H2 2346   6.415   3.415   1.891
  702WAT      O 2347   4.602   1.807   8.987
  702WAT     H1 2348   4.558   1.840   8.903
  702WAT     H2 2349   4.605   1.881   9.054
  703WAT      O 2350   4.339   6.329   1.135
  703WAT     H1 2351   4.392   6.338   1.050
  703WAT     H2 2352   4.295   6.416   1.155
  704WAT      O 2353   4.630   2.846   2.256
  704WAT     H1 2354   4.607   2.768   2.197
  704WAT     H2 2355   4.548   2.872   2.308
  705WAT      O 2356   5.426   7.686   3.792
  705WAT     H1 2357   5.520   7.715   3.775
  705WAT     H2 2358   5.363   7.741   3.737
  706WAT      O 2359   6.468   3.888   7.864
  706WAT     H1 2360   6.403   3.814   7.882
  706WAT     H2 2361   6.500   3.883   7.770
  707WAT      O 2362   9.386   5.762   3.318
  707WAT     H1 2363   9.401   5.858   3.343
  707WAT     H2 2364   9.340   5.715   3.393
  708WAT      O 2365   0.865   4.241   7.017
  708WAT     H1 2366   0.941   4.221   7.079
  708WAT     H2 2367   0.889   4.210   6.925
  709WAT      O 2368   7.421   3.852   8.187
  709WAT     H1 2369   7.446   3.853   8.090
  709WAT     H2 2370   7.321   3.846   8.195
  710WAT      O 2371   4.687   5.805   2.619
  710WAT     H1 2372   4.786   5.822   2.612
  710WAT     H2 2373   4.644   5.825   2.531
  711WAT      O 2374   5.549   6.712   6.093
  711WAT     H1 2375   5.599   6.798   6.084
  711WAT     H2 2376   5.568   6.655   6.013
  712WAT      O 2377   8.790   6.420   6.175
  712WAT     H1 2378   8.873   6.381   6.215
  712WAT     H2 2379   8.814   6.497   6.116
  713WAT      O 2380   5.618   5.660   1.446
  713WAT     H1 2381   5.550   5.609   1.394
  713WAT     H2 2382   5.704   5.609   1.449
  714WAT      O 2383   1.031   2.563   6.453
  714WAT     H1 2384   0.973   2.514   6.518
  714WAT     H2 2385   1.045   2.506   6.371
  715WAT      O 2386   3.323   1.779   3.896
  715WAT     H1 2387   3.301   1.815   3.987
  715WAT     H2 2388   3.333   1.856   3.832
  716WAT      O 2389   1.184   6.955   4.412
  716WAT     H1 2390   1.274   6.912   4.421
  716WAT     H2 2391   1.171   6.985   4.318
  717WAT      O 2392   2.759   6.497   4.116
  717WAT     H1 2393   2.686   6.457   4.061
  717WAT     H2 2394   2.771   6.443   4.199
  718WAT      O 2395   2.159   5.725   2.299
  718WAT     H1 2396   2.147   5.637   2.344
  718WAT     H2 2397   2.081   5.743   2.238
  719WAT      O 2398   4.509   4.355   6.166
  719WAT     H1 2399   4.518   4.256   6.152
  719WAT     H2 2400   4.432   4.374   6.226
  720WAT      O 2401   4.864   7.226   2.805
  720WAT     H1 2402   4.890   7.177   2.722
  720WAT     H2 2403   4.946   7.256   2.853
  721WAT      O 2404   4.394   6.434   9.267
  721WAT     H1 2405   4.299   6.412   9.244
  721WAT     H2 2406   4.399   6.460   9.364
  722WAT      O 2407   9.314   5.731   4.899
  722WAT     H1 2408   9.312   5.646   4.846
  722WAT     H2 2409   9.343   5.711   4.993
  723WAT      O 2410   4.974   4.328   2.603
  723WAT     H1 2411   4.882   4.323   2.641
  723WAT     H2 2412   5.034   4.377   2.666
  724WAT      O 2413   2.887   6.267   9.093
  724WAT     H1 2414   2.850   6.185   9.137
  724WAT     H2 2415   2.984   6.275   9.116
  725WAT      O 2416   0.283   3.966   2.771
  725WAT     H1 2417   0.335   3.963   2.856
  725WAT     H2 2418   0.274   3.874   2.733
  726WAT      O 2419   3.409   6.768   9.654
  726WAT     H1 2420   3.365   6.723   9.576
  726WAT     H2 2421   3.351   6.843   9.685
  727WAT      O 2422   7.978   2.618   9.552
  727WAT     H1 2423   7.915   2.677   9.502
  727WAT     H2 2424   7.957   2.522   9.532
  728WAT      O 2425   1.170   0.757   1.836
  728WAT     H1 2426   1.134   0.665   1.851
  728WAT     H2 2427   1.164   0.809   1.921
  729WAT      O 2428   9.503   8.468   2.157
  729WAT     H1 2429   9.463   8.454   2.248
  729WAT     H2 2430   9.600   8.447   2.160
  730WAT      O 2431   4.004   0.321   3.824
  730WAT     H1 2432   3.971   0.298   3.732
  730WAT     H2 2433   4.069   0.397   3.819
  731WAT      O 2434   8.979   7.373   0.374
  731WAT     H1 2435   8.958   7.368   0.277
  731WAT     H2 2436   9.067   7.328   0.392
  732WAT      O 2437   9.055   1.652   3.047
  732WAT     H1 2438   8.995   1.673   3.123
  732WAT     H2 2439   9.064   1.733   2.988
  733WAT      O 2440   7.952   8.854   1.012
  733WAT     H1 2441   7.875   8.904   0.971
  733WAT     H2 2442   7.994   8.910   1.083
  734WAT      O 2443   0.102   6.118   2.918
  734WAT     H1 2444   0.199   6.142   2.929
  734WAT     H2 2445   0.059   6.180   2.853
  735WAT      O 2446   0.669   9.491   7.372
  735WAT     H1 2447   0.583   9.487   7.422
  735WAT     H2 2448   0.739   9.535   7.429
  736WAT      O 2449   0.019   8.380   9.429
  736WAT     H1 2450   0.002   8.354   9.334
  736WAT     H2 2451   0.041   8.478   9.434
  737WAT      O 2452   3.543   0.054   1.604
  737WAT     H1 2453   3.489  -0.015   1.651
  737WAT     H2 2454   3.540   0.038   1.505
  738WAT      O 2455   5.151   8.092   2.126
  738WAT     H1 2456   5.138   8.071   2.029
  738WAT     H2 2457   5.190   8.183   2.135
  739WAT      O 2458   7.301   8.099   4.559
  739WAT     H1 2459   7.348   8.013   4.540
  739WAT     H2 2460   7.367   8.170   4.580
  740WAT      O 2461   8.849   0.555   1.442
  740WAT     H1 2462   8.805   0.477   1.487
  740WAT     H2 2463   8.945   0.533   1.422
  741WAT      O 2464   4.407   1.525   1.448
  741WAT     H1 2465   4.367   1.433   1.442
  741WAT     H2 2466   4.483   1.524   1.513
  742WAT      O 2467   7.034   7.568   7.439
  742WAT     H1 2468   7.105   7.538   7.502
  742WAT     H2 2469   7.066   7.648   7.388
  743WAT      O 2470   2.046   6.257   7.637
  743WAT     H1 2471   2.043   6.352   7.606
  743WAT     H2 2472   2.116   6.248   7.708
  744WAT      O 2473   6.464   0.616   1.788
  744WAT     H1 2474   6.410   0.681   1.735
  744WAT     H2 2475   6.487   0.538   1.731
  745WAT      O 2476   3.616   9.033   4.057
  745WAT     H1 2477   3.569   8.977   3.988
  745WAT     H2 2478   3.549   9.080   4.114
  746WAT      O 2479   4.342   6.394   0.139
  746WAT     H1 2480   4.302   6.482   0.165
  746WAT     H2 2481   4.431   6.409   0.095
  747WAT      O 2482   3.537   4.965   1.612
  747WAT     H1 2483   3.594   4.929   1.538
  747WAT     H2 2484   3.452   5.001   1.574
  748WAT      O 2485   8.401   2.474   8.187
  748WAT     H1 2486   8.385   2.480   8.089
  748WAT     H2 2487   8.453   2.391   8.207
  749WAT      O 2488   1.293   6.754   8.732
  749WAT     H1 2489   1.214   6.735   8.790
  749WAT     H2 2490   1.276   6.835   8.677
  750WAT      O 2491   1.283   0.309   3.413
  750WAT     H1 2492   1.338   0.354   3.485
  750WAT     H2 2493   1.312   0.343   3.324
  751WAT      O 2494   5.398   7.184   5.684
  751WAT     H1 2495   5.496   7.203   5.693
  751WAT     H2 2496   5.352   7.263   5.644
  752WAT      O 2497   7.473   7.869   0.532
  752WAT     H1 2498   7.429   7.914   0.454
  752WAT     H2 2499   7.458   7.925   0.614
  753WAT      O 2500   5.420   2.570   8.060
  753WAT     H1 2501   5.413   2.636   7.986
  753WAT     H2 2502   5.418   2.617   8.148
  754WAT      O 2503   4.445   3.468   8.591
  754WAT     H1 2504   4.404   3.541   8.536
  754WAT     H2 2505   4.482   3.397   8.530
  755WAT      O 2506   4.966   4.794   0.234
  755WAT     H1 2507   4.951   4.713   0.291
  755WAT     H2 2508   5.048   4.782   0.179
  756WAT      O 2509   8.308   8.932   2.646
  756WAT     H1 2510   8.394   8.979   2.665
  756WAT     H2 2511   8.295   8.925   2.547
  757WAT      O 2512   5.999   0.711   1.179
  757WAT     H1 2513   5.921   0.771   1.196
  757WAT     H2 2514   6.080   0.766   1.159
  758WAT      O 2515   8.327   9.305   1.498
  758WAT     H1 2516   8.272   9.222   1.492
  758WAT     H2 2517   8.366   9.326   1.408
  759WAT      O 2518   6.008   9.087  -0.006
  759WAT     H1 2519   5.986   9.156   0.064
  759WAT     H2 2520   6.054   9.009   0.038
  760WAT      O 2521   6.145   5.299   8.401
  760WAT     H1 2522   6.240   5.269   8.413
  760WAT     H2 2523   6.131   5.332   8.308
  761WAT      O 2524   0.439   6.661   6.532
  761WAT     H1 2525   0.380   6.587   6.500
  761WAT     H2 2526   0.479   6.636   6.620
  762WAT      O 2527   3.117   3.321   6.801
  762WAT     H1 2528   3.104   3.222   6.800
  762WAT     H2 2529   3.205   3.343   6.843
  763WAT      O 2530   3.328   6.999   6.937
  763WAT     H1 2531   3.313   7.074   6.872
  763WAT     H2 2532   3.272   6.921   6.910
  764WAT      O 2533   2.646   9.094   1.955
  764WAT     H1 2534   2.583   9.079   1.879
  764WAT     H2 2535   2.737   9.116   1.919
  765WAT      O 2536   7.037   7.952   0.138
  765WAT     H1 2537   6.978   8.010   0.193
  765WAT     H2 2538   7.088   8.009   0.073
  766WAT      O 2539   7.899   2.143   3.271
  766WAT     H1 2540   7.883   2.051   3.307
  766WAT     H2 2541   7.989   2.148   3.229
  767WAT      O 2542   6.040   3.421   4.098
  767WAT     H1 2543   6.030   3.409   4.000
  767WAT     H2 2544   6.023   3.334   4.144
  768WAT      O 2545   3.537   1.707   8.311
  768WAT     H1 2546   3.556   1.793   8.263
  768WAT     H2 2547   3.458   1.662   8.269
  769WAT      O 2548   1.466   2.539   9.587
  769WAT     H1 2549   1.503   2.521   9.678
  769WAT     H2 2550   1.430   2.454   9.548
  770WAT      O 2551   7.613   2.120   6.609
  770WAT     H1 2552   7.626   2.030   6.652
  770WAT     H2 2553   7.669   2.125   6.527
  771WAT      O 2554   3.231   8.232   6.992
  771WAT     H1 2555   3.197   8.225   7.085
  771WAT     H2 2556   3.245   8.140   6.954
  772WAT      O 2557   7.765   2.600   2.841
  772WAT     H1 2558   7.784   2.653   2.924
  772WAT     H2 2559   7.668   2.607   2.819
  773WAT      O 2560   9.700   9.319   5.368
  773WAT     H1 2561   9.659   9.228   5.373
  773WAT     H2 2562   9.796   9.314   5.395
  774WAT      O 2563   8.964   7.124   6.996
  774WAT     H1 2564   9.039   7.183   7.027
  774WAT     H2 2565   8.994   7.073   6.915
  775WAT      O 2566   8.397   1.685   9.268
  775WAT     H1 2567   8.408   1.596   9.223
  775WAT     H2 2568   8.487   1.717   9.299
  776WAT      O 2569   3.145   3.508   2.546
  776WAT     H1 2570   3.230   3.542   2.508
  776WAT     H2 2571   3.163   3.458   2.631
  777WAT      O 2572   2.302   0.698   0.387
  777WAT     H1 2573   2.227   0.761   0.365
  777WAT     H2 2574   2.365   0.743   0.450
  778WAT      O 2575   7.629   0.174   2.381
  778WAT     H1 2576   7.719   0.138   2.406
  778WAT     H2 2577   7.599   0.240   2.450
  779WAT      O 2578   4.280   7.823   8.481
  779WAT     H1 2579   4.273   7.723   8.492
  779WAT     H2 2580   4.375   7.847   8.459
  780WAT      O 2581   3.286   5.135   8.695
  780WAT     H1 2582   3.269   5.140   8.793
  780WAT     H2 2583   3.267   5.043   8.662
  781WAT      O 2584   3.864   2.370   3.221
  781WAT     H1 2585   3.874   2.387   3.123
  781WAT     H2 2586   3.893   2.452   3.271
  782WAT      O 2587   0.881   5.984   8.645
  782WAT     H1 2588   0.854   6.064   8.591
  782WAT     H2 2589   0.863   5.901   8.593
  783WAT      O 2590   4.474   8.222   8.525
  783WAT     H1 2591   4.430   8.227   8.436
  783WAT     H2 2592   4.475   8.313   8.567
  784WAT      O 2593   4.419   7.411   9.665
  784WAT     H1 2594   4.514   7.426   9.691
  784WAT     H2 2595   4.413   7.404   9.565
  785WAT      O 2596   8.513   4.835   5.022
  785WAT     H1 2597   8.601   4.855   5.066
  785WAT     H2 2598   8.480   4.746   5.053
  786WAT      O 2599   8.327   3.140   8.484
  786WAT     H1 2600   8.364   3.203   8.417
  786WAT     H2 2601   8.329   3.182   8.575
  787WAT      O 2602   5.345   3.661   5.417
  787WAT     H1 2603   5.370   3.731   5.483
  787WAT     H2 2604   5.253   3.627   5.438
  788WAT      O 2605   5.852   6.161   2.571
  788WAT     H1 2606   5.875   6.217   2.491
  788WAT     H2 2607   5.929   6.162   2.635
  789WAT      O 2608   9.399   3.684   7.638
  789WAT     H1 2609   9.491   3.705   7.672
  789WAT     H2 2610   9.386   3.725   7.548
  790WAT      O 2611   1.482   2.064   0.652
  790WAT     H1 2612   1.551   1.995   0.672
  790WAT     H2 2613   1.423   2.031   0.578
  791WAT      O 2614   9.832   4.590   3.044
  791WAT     H1 2615   9.773   4.520   3.005
  791WAT     H2 2616   9.799   4.614   3.135
  792WAT      O 2617   5.289   9.170   5.227
  792WAT     H1 2618   5.263   9.228   5.149
  792WAT     H2 2619   5.246   9.081   5.217
  793WAT      O 2620   4.960   4.248   7.596
  793WAT     H1 2621   5.056   4.223   7.581
  793WAT     H2 2622   4.914   4.175   7.646
  794WAT      O 2623   4.773   3.556   2.279
  794WAT     H1 2624   4.713   3.574   2.201
  794WAT     H2 2625   4.717   3.537   2.360
  795WAT      O 2626   1.787   3.012   6.636
  795WAT     H1 2627   1.762   3.109   6.637
  795WAT     H2 2628   1.818   2.984   6.727
  796WAT      O 2629   4.362   7.740   4.830
  796WAT     H1 2630   4.357   7.668   4.760
  796WAT     H2 2631   4.271   7.755   4.869
  797WAT      O 2632   4.731   7.466   1.224
  797WAT     H1 2633   4.830   7.465   1.242
  797WAT     H2 2634   4.710   7.403   1.149
  798WAT      O 2635   8.054   8.398   9.193
  798WAT     H1 2636   7.983   8.442   9.249
  798WAT     H2 2637   8.127   8.365   9.253
  799WAT      O 2638   9.765   1.772   4.063
  799WAT     H1 2639   9.727   1.862   4.039
  799WAT     H2 2640   9.829   1.782   4.139
  800WAT      O 2641   6.291   3.856   4.509
  800WAT     H1 2642   6.347   3.936   4.528
  800WAT     H2 2643   6.194   3.883   4.507
  801WAT      O 2644   3.975   8.348   1.956
  801WAT     H1 2645   4.017   8.257   1.957
  801WAT     H2 2646   3.901   8.351   2.023
  802WAT      O 2647   8.780   2.257   6.733
  802WAT     H1 2648   8.841   2.179   6.718
  802WAT     H2 2649   8.756   2.299   6.645
  803WAT      O 2650   7.224   3.881   3.392
  803WAT     H1 2651   7.314   3.906   3.428
  803WAT     H2 2652   7.233   3.846   3.299
  804WAT      O 2653   8.135   7.607   9.298
  804WAT     H1 2654   8.102   7.524   9.253
  804WAT     H2 2655   8.120   7.685   9.239
  805WAT      O 2656   2.483   4.916   4.287
  805WAT     H1 2657   2.454   4.837   4.232
  805WAT     H2 2658   2.558   4.889   4.347
  806WAT      O 2659   6.205   7.682   0.227
  806WAT     H1 2660   6.106   7.679   0.243
  806WAT     H2 2661   6.242   7.589   0.233
  807WAT      O 2662   7.231   5.381   5.430
  807WAT     H1 2663   7.173   5.387   5.348
  807WAT     H2 2664   7.310   5.442   5.419
  808WAT      O 2665   1.488   4.540   4.420
  808WAT     H1 2666   1.438   4.529   4.506
  808WAT     H2 2667   1.564   4.476   4.417
  809WAT      O 2668   9.070   8.988   5.893
  809WAT     H1 2669   9.038   8.965   5.802
  809WAT     H2 2670   9.115   8.909   5.934
  810WAT      O 2671   0.006   9.731   8.046
  810WAT     H1 2672  -0.037   9.671   8.114
  810WAT     H2 2673  -0.052   9.810   8.030
  811WAT      O 2674   1.189   3.576   1.778
  811WAT     H1 2675   1.163   3.621   1.864
  811WAT     H2 2676   1.263   3.512   1.796
  812WAT      O 2677   0.758   3.809   8.106
  812WAT     H1 2678   0.782   3.713   8.090
  812WAT     H2 2679   0.818   3.847   8.176
  813WAT      O 2680   6.525   4.292   0.060
  813WAT     H1 2681   6.559   4.241   0.139
  813WAT     H2 2682   6.485   4.378   0.091
  814WAT      O 2683   7.039   3.120   3.503
  814WAT     H1 2684   7.055   3.082   3.412
  814WAT     H2 2685   7.004   3.049   3.564
  815WAT      O 2686   1.384   2.299   8.706
  815WAT     H1 2687   1.322   2.376   8.718
  815WAT     H2 2688   1.336   2.223   8.661
  816WAT      O 2689   0.865   5.586   3.693
  816WAT     H1 2690   0.947   5.529   3.695
  816WAT     H2 2691   0.878   5.662   3.630
  817WAT      O 2692   6.908   4.125   7.270
  817WAT     H1 2693   6.864   4.065   7.203
  817WAT     H2 2694   6.913   4.218   7.233
  818WAT      O 2695   3.775   9.757   2.319
  818WAT     H1 2696   3.799   9.662   2.301
  818WAT     H2 2697   3.854   9.816   2.302
  819WAT      O 2698   7.110   5.080   8.759
  819WAT     H1 2699   7.113   5.143   8.681
  819WAT     H2 2700   7.153   4.993   8.733
  820WAT      O 2701   2.929   6.750   5.112
  820WAT     H1 2702   2.920   6.841   5.070
  820WAT     H2 2703   2.931   6.680   5.041
  821WAT      O 2704   0.881   9.306   0.709
  821WAT     H1 2705   0.787   9.337   0.726
  821WAT     H2 2706   0.924   9.366   0.642
  822WAT      O 2707   8.727   0.077   1.410
  822WAT     H1 2708   8.670   0.027   1.475
  822WAT     H2 2709   8.671   0.146   1.364
  823WAT      O 2710   4.364   2.815   3.862
  823WAT     H1 2711   4.443   2.876   3.869
  823WAT     H2 2712   4.394   2.720   3.863
  824WAT      O 2713   8.444   4.130   3.715
  824WAT     H1 2714   8.448   4.040   3.672
  824WAT     H2 2715   8.349   4.161   3.718
  825WAT      O 2716   8.449   9.187   8.778
  825WAT     H1 2717   8.356   9.222   8.774
  825WAT     H2 2718   8.513   9.260   8.752
  826WAT      O 2719   1.040   6.161   7.511
  826WAT     H1 2720   0.997   6.071   7.500
  826WAT     H2 2721   1.119   6.153   7.571
  827WAT      O 2722   0.743   3.553   7.162
  827WAT     H1 2723   0.753   3.456   7.183
  827WAT     H2 2724   0.672   3.566   7.093
  828WAT      O 2725   2.909   4.710   1.818
  828WAT     H1 2726   2.963   4.639   1.773
  828WAT     H2 2727   2.971   4.778   1.857
  829WAT      O 2728   0.957   5.756   6.560
  829WAT     H1 2729   0.940   5.758   6.462
  829WAT     H2 2730   1.054   5.733   6.576
  830WAT      O 2731   8.849   1.997   3.683
  830WAT     H1 2732   8.910   1.923   3.654
  830WAT     H2 2733   8.847   2.068   3.613
  831WAT      O 2734   2.319   5.084   5.337
  831WAT     H1 2735   2.341   5.070   5.433
  831WAT     H2 2736   2.385   5.033   5.281
  832WAT      O 2737   0.798   5.376   1.165
  832WAT     H1 2738   0.804   5.276   1.162
  832WAT     H2 2739   0.703   5.404   1.151
  833WAT      O 2740   7.184   8.404   2.642
  833WAT     H1 2741   7.126   8.327   2.669
  833WAT     H2 2742   7.182   8.474   2.714
  834WAT      O 2743   2.995   6.885   6.036
  834WAT     H1 2744   2.940   6.861   5.956
  834WAT     H2 2745   2.951   6.850   6.119
  835WAT      O 2746   2.318   3.055   0.725
  835WAT     H1 2747   2.311   3.030   0.821
  835WAT     H2 2748   2.228   3.081   0.690
  836WAT      O 2749   0.399   8.635   5.891
  836WAT     H1 2750   0.346   8.713   5.926
  836WAT     H2 2751   0.376   8.620   5.795
  837WAT      O 2752   7.059   7.504   8.951
  837WAT     H1 2753   7.094   7.411   8.958
  837WAT     H2 2754   7.132   7.570   8.966
  838WAT      O 2755   6.092   6.450   2.716
  838WAT     H1 2756   6.148   6.505   2.778
  838WAT     H2 2757   6.118   6.469   2.622
  839WAT      O 2758   0.020   3.771   1.036
  839WAT     H1 2759   0.083   3.769   0.958
  839WAT     H2 2760   0.009   3.865   1.067
  840WAT      O 2761   0.515   6.885   0.353
  840WAT     H1 2762   0.456   6.960   0.323
  840WAT     H2 2763   0.506   6.808   0.289
  841WAT      O 2764   4.614   9.804   0.114
  841WAT     H1 2765   4.679   9.861   0.064
  841WAT     H2 2766   4.639   9.805   0.211
  842WAT      O 2767   6.633   0.210   2.802
  842WAT     H1 2768   6.700   0.271   2.844
  842WAT     H2 2769   6.541   0.235   2.831
  843WAT      O 2770   4.327   1.099   7.770
  843WAT     H1 2771   4.420   1.119   7.738
  843WAT     H2 2772   4.308   1.002   7.756
  844WAT      O 2773   3.820   1.155   1.446
  844WAT     H1 2774   3.784   1.153   1.352
  844WAT     H2 2775   3.917   1.176   1.444
  845WAT      O 2776   9.162   8.489   9.336
  845WAT     H1 2777   9.251   8.460   9.369
  845WAT     H2 2778   9.156   8.589   9.338
  846WAT      O 2779   9.442   3.503   7.435
  846WAT     H1 2780   9.541   3.498   7.426
  846WAT     H2 2781   9.418   3.555   7.516
  847WAT      O 2782   2.919   4.895   9.144
  847WAT     H1 2783   2.984   4.857   9.078
  847WAT     H2 2784   2.825   4.875   9.114
  848WAT      O 2785   9.036   0.240   2.339
  848WAT     H1 2786   8.953   0.188   2.316
  848WAT     H2 2787   9.073   0.207   2.425
  849WAT      O 2788   1.473   8.649   9.322
  849WAT     H1 2789   1.569   8.621   9.322
  849WAT     H2 2790   1.465   8.741   9.362
  850WAT      O 2791   7.118   2.719   3.368
  850WAT     H1 2792   7.029   2.701   3.411
  850WAT     H2 2793   7.130   2.657   3.290
  851WAT      O 2794   1.410   9.125   2.219
  851WAT     H1 2795   1.430   9.195   2.151
  851WAT     H2 2796   1.350   9.162   2.289
  852WAT      O 2797   6.269   6.577   7.482
  852WAT     H1 2798   6.312   6.500   7.435
  852WAT     H2 2799   6.225   6.544   7.566
  853WAT      O 2800   6.893   7.134   4.161
  853WAT     H1 2801   6.874   7.165   4.068
  853WAT     H2 2802   6.875   7.208   4.225
  854WAT      O 2803   7.307   3.330   5.268
  854WAT     H1 2804   7.403   3.356   5.258
  854WAT     H2 2805   7.250   3.412   5.275
  855WAT      O 2806   9.253   2.567   7.224
  855WAT     H1 2807   9.174   2.614   7.264
  855WAT     H2 2808   9.221   2.496   7.162
  856WAT      O 2809   5.373   9.347   9.352
  856WAT     H1 2810   5.441   9.306   9.291
  856WAT     H2 2811   5.404   9.438   9.380
  857WAT      O 2812   5.645   4.277   8.709
  857WAT     H1 2813   5.729   4.330   8.723
  857WAT     H2 2814   5.566   4.337   8.717
  858WAT      O 2815   8.647   9.495   0.842
  858WAT     H1 2816   8.667   9.403   0.878
  858WAT     H2 2817   8.695   9.508   0.756
  859WAT      O 2818   1.748   9.295   0.443
  859WAT     H1 2819   1.816   9.247   0.387
  859WAT     H2 2820   1.722   9.238   0.521
  860WAT      O 2821   9.615   8.873   8.428
  860WAT     H1 2822   9.710   8.893   8.405
  860WAT     H2 2823   9.555   8.934   8.376
  861WAT      O 2824   6.523   4.631   9.727
  861WAT     H1 2825   6.449   4.654   9.791
  861WAT     H2 2826   6.577   4.556   9.765
  862WAT      O 2827   6.518   2.280   6.129
  862WAT     H1 2828   6.444   2.345   6.144
  862WAT     H2 2829   6.529   2.222   6.209
  863WAT      O 2830   3.154   5.630   8.524
  863WAT     H1 2831   3.118   5.690   8.453
  863WAT     H2 2832   3.152   5.535   8.491
  864WAT      O 2833   4.108   7.368   5.758
  864WAT     H1 2834   4.020   7.371   5.711
  864WAT     H2 2835   4.174   7.317   5.702
  865WAT      O 2836   0.416   8.323   9.271
  865WAT     H1 2837   0.422   8.337   9.172
  865WAT     H2 2838   0.423   8.411   9.318
  866WAT      O 2839   5.763   3.271   1.654
  866WAT     H1 2840   5.693   3.257   1.584
  866WAT     H2 2841   5.805   3.360   1.641
  867WAT      O 2842   0.485   2.103   6.651
  867WAT     H1 2843   0.512   2.012   6.682
  867WAT     H2 2844   0.548   2.135   6.580
  868WAT      O 2845   1.619   6.304   3.580
  868WAT     H1 2846   1.673   6.340   3.503
  868WAT     H2 2847   1.658   6.217   3.609
  869WAT      O 2848   5.523   1.591   4.487
  869WAT     H1 2849   5.536   1.682   4.447
  869WAT     H2 2850   5.494   1.600   4.582
  870WAT      O 2851   6.039   0.613   5.879
  870WAT     H1 2852   6.004   0.690   5.932
  870WAT     H2 2853   5.964   0.571   5.828
  871WAT      O 2854   4.031   1.346   0.543
  871WAT     H1 2855   4.022   1.332   0.444
  871WAT     H2 2856   3.949   1.394   0.576
  872WAT      O 2857   5.706   8.339   5.063
  872WAT     H1 2858   5.758   8.308   5.143
  872WAT     H2 2859   5.754   8.312   4.980
  873WAT      O 2860   8.800   3.266   4.573
  873WAT     H1 2861   8.809   3.363   4.552
  873WAT     H2 2862   8.839   3.247   4.663
  874WAT      O 2863   3.643   5.643   4.059
  874WAT     H1 2864   3.724   5.589   4.032
  874WAT     H2 2865   3.568   5.624   3.996
  875WAT      O 2866   9.308   5.762   8.522
  875WAT     H1 2867   9.214   5.769   8.556
  875WAT     H2 2868   9.372   5.769   8.599
  876WAT      O 2869   3.570   0.578   1.505
  876WAT     H1 2870   3.577   0.577   1.405
  876WAT     H2 2871   3.573   0.484   1.540
  877WAT      O 2872   6.634   2.461   9.456
  877WAT     H1 2873   6.554   2.446   9.399
  877WAT     H2 2874   6.685   2.376   9.467
  878WAT      O 2875   2.296   1.176   7.184
  878WAT     H1 2876   2.348   1.260   7.198
  878WAT     H2 2877   2.346   1.115   7.123
  879WAT      O 2878   0.970   4.506   3.684
  879WAT     H1 2879   0.875   4.521   3.713
  879WAT     H2 2880   0.971   4.450   3.602
  880WAT      O 2881   0.407   1.993   8.252
  880WAT     H1 2882   0.327   2.010   8.311
  880WAT     H2 2883   0.454   2.079   8.234
  881WAT      O 2884   4.554   7.875   8.498
  881WAT     H1 2885   4.557   7.890   8.399
  881WAT     H2 2886   4.570   7.962   8.545
  882WAT      O 2887   9.552   1.655   7.950
  882WAT     H1 2888   9.555   1.618   7.858
  882WAT     H2 2889   9.619   1.729   7.959
  883WAT      O 2890   2.710   8.008   7.699
  883WAT     H1 2891   2.718   8.087   7.637
  883WAT     H2 2892   2.801   7.984   7.733
  884WAT      O 2893   1.038   5.129   9.703
  884WAT     H1 2894   1.087   5.134   9.790
  884WAT     H2 2895   1.101   5.151   9.628
  885WAT      O 2896   5.119   7.115   1.977
  885WAT     H1 2897   5.076   7.130   1.889
  885WAT     H2 2898   5.200   7.057   1.966
  886WAT      O 2899   9.642   6.962   2.145
  886WAT     H1 2900   9.572   6.987   2.077
  886WAT     H2 2901   9.685   7.046   2.180
  887WAT      O 2902   5.220   5.585   8.016
  887WAT     H1 2903   5.310   5.577   7.974
  887WAT     H2 2904   5.187   5.494   8.042
  888WAT      O 2905   5.815   0.895   1.248
  888WAT     H1 2906   5.807   0.995   1.250
  888WAT     H2 2907   5.743   0.855   1.304
  889WAT      O 2908   6.224   4.417   9.869
  889WAT     H1 2909   6.212   4.464   9.781
  889WAT     H2 2910   6.225   4.318   9.854
  890WAT      O 2911   3.726   6.555   3.720
  890WAT     H1 2912   3.780   6.621   3.669
  890WAT     H2 2913   3.638   6.595   3.744
  891WAT      O 2914   5.605   4.395   1.749
  891WAT     H1 2915   5.565   4.430   1.834
  891WAT     H2 2916   5.676   4.328   1.771
  892WAT      O 2917   5.907   9.841   0.941
  892WAT     H1 2918   5.814   9.815   0.915
  892WAT     H2 2919   5.906   9.879   1.033
  893WAT      O 2920   5.667   3.176   9.255
  893WAT     H1 2921   5.752   3.209   9.215
  893WAT     H2 2922   5.649   3.226   9.340
  894WAT      O 2923   8.698   4.238   8.382
  894WAT     H1 2924   8.628   4.171   8.356
  894WAT     H2 2925   8.735   4.216   8.472
  895WAT      O 2926   4.310   8.782   2.701
  895WAT     H1 2927   4.328   8.775   2.799
  895WAT     H2 2928   4.393   8.812   2.654
  896WAT      O 2929   9.218   9.629   8.482
  896WAT     H1 2930   9.130   9.605   8.441
  896WAT     H2 2931   9.221   9.595   8.576
  897WAT      O 2932   7.009   8.458   7.152
  897WAT     H1 2933   6.958   8.372   7.158
  897WAT     H2 2934   7.098   8.447   7.197
  898WAT      O 2935   6.431   3.066   5.394
  898WAT     H1 2936   6.385   3.044   5.308
  898WAT     H2 2937   6.453   2.981   5.442
  899WAT      O 2938   3.190   1.833   3.195
  899WAT     H1 2939   3.289   1.841   3.201
  899WAT     H2 2940   3.163   1.737   3.204
  900WAT      O 2941   7.776   1.086   1.811
  900WAT     H1 2942   7.712   1.156   1.778
  900WAT     H2 2943   7.866   1.128   1.827
  901WAT      O 2944   6.116   0.110   9.355
  901WAT     H1 2945   6.157   0.191   9.313
  901WAT     H2 2946   6.111   0.122   9.454
  902WAT      O 2947   0.268   3.291   4.710
  902WAT     H1 2948   0.211   3.372   4.726
  902WAT     H2 2949   0.364   3.318   4.706
  903WAT      O 2950   0.930   3.705   0.701
  903WAT     H1 2951   0.945   3.746   0.611
  903WAT     H2 2952   0.916   3.778   0.769
  904WAT      O 2953   1.042   4.125   7.984
  904WAT     H1 2954   0.998   4.080   7.907
  904WAT     H2 2955   0.982   4.197   8.019
  905WAT      O 2956   6.490   7.801   7.641
  905WAT     H1 2957   6.553   7.851   7.581
  905WAT     H2 2958   6.538   7.726   7.686
  906WAT      O 2959   7.177   8.806   2.716
  906WAT     H1 2960   7.141   8.893   2.749
  906WAT     H2 2961   7.118   8.731   2.747
  907WAT      O 2962   0.999   7.250   5.061
  907WAT     H1 2963   1.081   7.220   5.112
  907WAT     H2 2964   0.925   7.185   5.077
  908WAT      O 2965   5.270   0.920   4.248
  908WAT     H1 2966   5.361   0.951   4.274
  908WAT     H2 2967   5.202   0.962   4.308
  909WAT      O 2968   3.242   1.904   6.405
  909WAT     H1 2969   3.227   1.857   6.318
  909WAT     H2 2970   3.331   1.951   6.403
  910WAT      O 2971   0.939   6.792   0.198
  910WAT     H1 2972   1.006   6.741   0.144
  910WAT     H2 2973   0.848   6.778   0.160
  911WAT      O 2974   3.312   4.821   4.628
  911WAT     H1 2975   3.383   4.752   4.646
  911WAT     H2 2976   3.313   4.846   4.531
  912WAT      O 2977   5.478   8.584   9.509
  912WAT     H1 2978   5.505   8.669   9.465
  912WAT     H2 2979   5.387   8.558   9.477
  913WAT      O 2980   4.177   6.906   2.220
  913WAT     H1 2981   4.226   6.982   2.262
  913WAT     H2 2982   4.243   6.840   2.184
  914WAT      O 2983   7.429   2.270   4.838
  914WAT     H1 2984   7.522   2.264   4.876
  914WAT     H2 2985   7.410   2.365   4.813
  915WAT      O 2986   8.932   7.582   9.386
  915WAT     H1 2987   8.997   7.634   9.440
  915WAT     H2 2988   8.920   7.625   9.297
  916WAT      O 2989   0.415   4.726   6.072
  916WAT     H1 2990   0.465   4.644   6.100
  916WAT     H2 2991   0.420   4.735   5.972
  917WAT      O 2992   3.472   6.251   1.169
  917WAT     H1 2993   3.417   6.317   1.118
  917WAT     H2 2994   3.538   6.208   1.107
  918WAT      O 2995   2.200   6.989   7.047
  918WAT     H1 2996   2.194   7.087   7.067
  918WAT     H2 2997   2.223   6.939   7.130
  919WAT      O 2998   9.411   2.089   2.178
  919WAT     H1 2999   9.423   2.159   2.108
  919WAT     H2 3000   9.379   2.004   2.136
  920WAT      O 3001   1.972   1.043   6.763
  920WAT     H1 3002   2.042   0.974   6.745
  920WAT     H2 3003   2.011   1.135   6.751
  921WAT      O 3004   4.193   4.683   4.354
  921WAT     H1 3005   4.103   4.642   4.365
  921WAT     H2 3006   4.258   4.638   4.415
  922WAT      O 3007   3.281   2.416   6.275
  922WAT     H1 3008   3.326   2.505   6.282
  922WAT     H2 3009   3.293   2.366   6.361
  923WAT      O 3010   8.045   1.975   9.602
  923WAT     H1 3011   8.026   1.898   9.540
  923WAT     H2 3012   8.131   2.018   9.575
  924WAT      O 3013   9.244   3.686   2.423
  924WAT     H1 3014   9.281   3.741   2.348
  924WAT     H2 3015   9.248   3.589   2.400
  925WAT      O 3016   1.311   8.688   0.440
  925WAT     H1 3017   1.352   8.700   0.349
  925WAT     H2 3018   1.375   8.641   0.500
  926WAT      O 3019   7.662   8.662   5.752
  926WAT     H1 3020   7.656   8.755   5.716
  926WAT     H2 3021   7.571   8.628   5.772
  927WAT      O 3022   0.104   2.200   4.232
  927WAT     H1 3023   0.168   2.171   4.160
  927WAT     H2 3024   0.114   2.140   4.311
  928WAT      O 3025   0.476   4.434   5.811
  928WAT     H1 3026   0.563   4.416   5.764
  928WAT     H2 3027   0.463   4.532   5.820
  929WAT      O 3028   7.310   3.256   5.669
  929WAT     H1 3029   7.378   3.329   5.669
  929WAT     H2 3030   7.262   3.255   5.757
  930WAT      O 3031   0.423   9.387   3.466
  930WAT     H1 3032   0.518   9.386   3.436
  930WAT     H2 3033   0.369   9.322   3.412
  931WAT      O 3034   0.790   7.960   1.767
  931WAT     H1 3035   0.855   7.906   1.821
  931WAT     H2 3036   0.705   7.971   1.818
  932WAT      O 3037   4.800   2.760   2.461
  932WAT     H1 3038   4.883   2.750   2.408
  932WAT     H2 3039   4.723   2.777   2.399
  933WAT      O 3040   8.783   5.373   3.434
  933WAT     H1 3041   8.816   5.443   3.497
  933WAT     H2 3042   8.796   5.282   3.473
  934WAT      O 3043   5.944   5.386   5.748
  934WAT     H1 3044   5.985   5.296   5.730
  934WAT     H2 3045   5.866   5.399   5.687
  935WAT      O 3046   5.694   7.911   4.347
  935WAT     H1 3047   5.693   7.899   4.247
  935WAT     H2 3048   5.678   8.007   4.368
  936WAT      O 3049   4.732   6.980   4.613
  936WAT     H1 3050   4.692   6.905   4.561
  936WAT     H2 3051   4.682   7.065   4.593
  937WAT      O 3052   4.968   9.445   8.879
  937WAT     H1 3053   4.900   9.467   8.950
  937WAT     H2 3054   4.944   9.492   8.794
  938WAT      O 3055   8.304   7.031   1.630
  938WAT     H1 3056   8.352   7.119   1.627
  938WAT     H2 3057   8.338   6.978   1.707
  939WAT      O 3058   6.076   8.964   7.457
  939WAT     H1 3059   5.981   8.993   7.447
  939WAT     H2 3060   6.136   9.032   7.414
  940WAT      O 3061   8.736   7.239   8.917
  940WAT     H1 3062   8.684   7.171   8.866
  940WAT     H2 3063   8.732   7.217   9.015
  941WAT      O 3064   9.029   8.165   8.241
  941WAT     H1 3065   9.022   8.149   8.340
  941WAT     H2 3066   8.980   8.248   8.217
  942WAT      O 3067   4.865   5.618   8.643
  942WAT     H1 3068   4.907   5.543   8.593
  942WAT     H2 3069   4.870   5.702   8.589
  943WAT      O 3070   3.927   6.873   3.096
  943WAT     H1 3071   3.868   6.853   3.018
  943WAT     H2 3072   3.959   6.967   3.091
  944WAT      O 3073   6.577   1.452   1.721
  944WAT     H1 3074   6.672   1.481   1.717
  944WAT     H2 3075   6.521   1.514   1.665
  945WAT      O 3076   7.056   2.978   4.193
  945WAT     H1 3077   7.040   2.879   4.193
  945WAT     H2 3078   7.011   3.020   4.271
  946WAT      O 3079   8.191   3.619   4.760
  946WAT     H1 3080   8.276   3.605   4.709
  946WAT     H2 3081   8.140   3.533   4.763
  947WAT      O 3082   1.164   2.412   4.123
  947WAT     H1 3083   1.123   2.412   4.032
  947WAT     H2 3084   1.094   2.429   4.192
  948WAT      O 3085   2.243   2.412   3.000
  948WAT     H1 3086   2.172   2.412   2.929
  948WAT     H2 3087   2.201   2.435   3.088
  949WAT      O 3088   9.174   3.939   9.056
  949WAT     H1 3089   9.232   3.859   9.067
  949WAT     H2 3090   9.112   3.947   9.134
  950WAT      O 3091   9.810   1.347   8.201
  950WAT     H1 3092   9.763   1.354   8.114
  950WAT     H2 3093   9.908   1.359   8.187
  951WAT      O 3094   8.411   5.231   1.282
  951WAT     H1 3095   8.407   5.319   1.328
  951WAT     H2 3096   8.489   5.230   1.218
  952WAT      O 3097   3.488   9.367   6.807
  952WAT     H1 3098   3.584   9.351   6.786
  952WAT     H2 3099   3.440   9.397   6.724
  953WAT      O 3100   5.915   5.902   6.895
  953WAT     H1 3101   5.907   5.944   6.986
  953WAT     H2 3102   5.871   5.812   6.897
  954WAT      O 3103   2.415   6.511   6.779
  954WAT     H1 3104   2.346   6.486   6.711
  954WAT     H2 3105   2.499   6.460   6.761
  955WAT      O 3106   6.102   7.888   0.901
  955WAT     H1 3107   6.163   7.886   0.822
  955WAT     H2 3108   6.079   7.795   0.928
  956WAT      O 3109   9.710   0.784   7.877
  956WAT     H1 3110   9.773   0.794   7.800
  956WAT     H2 3111   9.632   0.846   7.865
  957WAT      O 3112   1.679   1.172   3.512
  957WAT     H1 3113   1.752   1.184   3.444
  957WAT     H2 3114   1.615   1.102   3.480
  958WAT      O 3115   1.159   2.078   2.670
  958WAT     H1 3116   1.082   2.133   2.703
  958WAT     H2 3117   1.244   2.127   2.684
  959WAT      O 3118   2.959   8.375   8.534
  959WAT     H1 3119   2.929   8.358   8.628
  959WAT     H2 3120   2.954   8.473   8.515
  960WAT      O 3121   7.477   5.007   8.570
  960WAT     H1 3122   7.536   5.078   8.611
  960WAT     H2 3123   7.498   4.999   8.473
  961WAT      O 3124   0.247   9.570   3.620
  961WAT     H1 3125   0.273   9.500   3.554
  961WAT     H2 3126   0.175   9.628   3.581
  962WAT      O 3127   8.961   8.445   1.960
  962WAT     H1 3128   9.058   8.432   1.942
  962WAT     H2 3129   8.921   8.501   1.888
  963WAT      O 3130   3.978   0.440   9.642
  963WAT     H1 3131   3.947   0.419   9.550
  963WAT     H2 3132   3.900   0.469   9.698
  964WAT      O 3133   5.832   3.533   2.560
  964WAT     H1 3134   5.875   3.483   2.485
  964WAT     H2 3135   5.899   3.548   2.633
  965WAT      O 3136   3.709   6.217   6.110
  965WAT     H1 3137   3.638   6.168   6.059
  965WAT     H2 3138   3.799   6.183   6.084
  966WAT      O 3139   6.144   0.052   4.005
  966WAT     H1 3140   6.059   0.036   3.953
  966WAT     H2 3141   6.145  -0.008   4.085
  967WAT      O 3142   2.140   7.105   0.600
  967WAT     H1 3143   2.111   7.120   0.505
  967WAT     H2 3144   2.214   7.168   0.623
  968WAT      O 3145   2.992   5.359   6.742
  968WAT     H1 3146   2.951   5.338   6.830
  968WAT     H2 3147   3.013   5.457   6.737
  969WAT      O 3148   3.209   9.480   6.196
  969WAT     H1 3149   3.143   9.537   6.148
  969WAT     H2 3150   3.273   9.440   6.130
  970WAT      O 3151   6.218   3.942   8.983
  970WAT     H1 3152   6.308   3.917   8.948
  970WAT     H2 3153   6.221   4.034   9.021
  971WAT      O 3154   6.347   2.626   7.947
  971WAT     H1 3155   6.262   2.680   7.955
  971WAT     H2 3156   6.406   2.669   7.879
  972WAT      O 3157   5.041   7.049   6.188
  972WAT     H1 3158   5.125   7.037   6.241
  972WAT     H2 3159   5.065   7.064   6.092
  973WAT      O 3160   4.320   5.439   1.472
  973WAT     H1 3161   4.220   5.435   1.472
  973WAT     H2 3162   4.358   5.347   1.479
  974WAT      O 3163   7.470   7.621   0.936
  974WAT     H1 3164   7.552   7.630   0.879
  974WAT     H2 3165   7.496   7.589   1.027
  975WAT      O 3166   6.252   0.218   8.155
  975WAT     H1 3167   6.288   0.173   8.237
  975WAT     H2 3168   6.328   0.255   8.101
  976WAT      O 3169   4.275   2.019   6.619
  976WAT     H1 3170   4.267   2.119   6.612
  976WAT     H2 3171   4.235   1.976   6.539
  977WAT      O 3172   8.597   4.568   9.536
  977WAT     H1 3173   8.513   4.578   9.589
  977WAT     H2 3174   8.648   4.488   9.570
  978WAT      O 3175   3.116   0.685   0.290
  978WAT     H1 3176   3.129   0.586   0.282
  978WAT     H2 3177   3.179   0.732   0.228
  979WAT      O 3178   8.633   8.865   6.913
  979WAT     H1 3179   8.569   8.935   6.946
  979WAT     H2 3180   8.703   8.849   6.983
  980WAT      O 3181   1.770   8.873   2.022
  980WAT     H1 3182   1.793   8.776   2.025
  980WAT     H2 3183   1.707   8.895   2.096
  981WAT      O 3184   0.975   2.292   2.676
  981WAT     H1 3185   1.005   2.372   2.625
  981WAT     H2 3186   0.980   2.311   2.774
  982WAT      O 3187   1.740   2.642   8.677
  982WAT     H1 3188   1.699   2.556   8.708
  982WAT     H2 3189   1.830   2.653   8.720
  983WAT      O 3190   8.277   1.840   5.287
  983WAT     H1 3191   8.230   1.864   5.372
  983WAT     H2 3192   8.318   1.923   5.247
  984WAT      O 3193   5.521   5.225   8.371
  984WAT     H1 3194   5.480   5.220   8.280
  984WAT     H2 3195   5.483   5.152   8.428
  985WAT      O 3196   8.424   3.266   8.269
  985WAT     H1 3197   8.511   3.217   8.258
  985WAT     H2 3198   8.356   3.229   8.206
  986WAT      O 3199   2.323   8.366   5.917
  986WAT     H1 3200   2.335   8.288   5.979
  986WAT     H2 3201   2.412   8.394   5.881
  987WAT      O 3202   9.734   3.355   8.191
  987WAT     H1 3203   9.696   3.268   8.223
  987WAT     H2 3204   9.732   3.357   8.091
  988WAT      O 3205   8.354   9.806   6.871
  988WAT     H1 3206   8.298   9.829   6.951
  988WAT     H2 3207   8.423   9.739   6.896
  989WAT      O 3208   2.352   0.988   4.725
  989WAT     H1 3209   2.267   0.990   4.777
  989WAT     H2 3210   2.400   1.075   4.735
  990WAT      O 3211   1.910   0.158   2.949
  990WAT     H1 3212   1.907   0.063   2.919
  990WAT     H2 3213   1.878   0.217   2.874
  991WAT      O 3214   9.499   5.952   3.878
  991WAT     H1 3215   9.552   5.971   3.795
  991WAT     H2 3216   9.496   5.854   3.894
  992WAT      O 3217   1.534   6.663   6.749
  992WAT     H1 3218   1.472   6.628   6.679
  992WAT     H2 3219   1.488   6.733   6.803
  993WAT      O 3220   0.933   5.807   9.820
  993WAT     H1 3221   1.009   5.848   9.870
  993WAT     H2 3222   0.957   5.799   9.723
  994WAT      O 3223   2.365   5.419   9.669
  994WAT     H1 3224   2.437   5.441   9.735
  994WAT     H2 3225   2.372   5.323   9.643
  995WAT      O 3226   1.019   3.923   3.580
  995WAT     H1 3227   0.971   3.975   3.509
  995WAT     H2 3228   1.097   3.876   3.539
  996WAT      O 3229   1.528   1.341   1.058
  996WAT     H1 3230   1.624   1.330   1.033
  996WAT     H2 3231   1.514   1.432   1.097
  997WAT      O 3232   7.794   1.608   4.403
  997WAT     H1 3233   7.851   1.616   4.321
  997WAT     H2 3234   7.852   1.592   4.483
  998WAT      O 3235   9.616   6.818   2.763
  998WAT     H1 3236   9.689   6.873   2.804
  998WAT     H2 3237   9.540   6.878   2.737
  999WAT      O 3238   1.411   4.319   2.213
  999WAT     H1 3239   1.407   4.410   2.253
  999WAT     H2 3240   1.446   4.325   2.119
 1000WAT      O 3241   9.152   8.789   0.813
 1000WAT     H1 3242   9.245   8.756   0.802
 1000WAT     H2 3243   9.089   8.726   0.767
 1001WAT      O 3244   5.603   6.550   0.988
 1001WAT     H1 3245   5.520   6.512   1.028
 1001WAT     H2 3246   5.602   6.533   0.889
 1002WAT      O 3247   1.970   4.870   1.038
 1002WAT     H1 3248   2.052   4.849   1.091
 1002WAT     H2 3249   1.890   4.832   1.085
 1003WAT      O 3250   3.281   5.715   2.458
 1003WAT     H1 3251   3.350   5.697   2.529
 1003WAT     H2 3252   3.313   5.789   2.399
 1004WAT      O 3253   2.774   2.730   7.958
 1004WAT     H1 3254   2.741   2.732   8.052
 1004WAT     H2 3255   2.741   2.646   7.914
 1005WAT      O 3256   9.179   3.694   4.311
 1005WAT     H1 3257   9.258   3.682   4.251
 1005WAT     H2 3258   9.154   3.606   4.352
 1006WAT      O 3259   4.821   2.815   3.962
 1006WAT     H1 3260   4.832   2.751   4.038
 1006WAT     H2 3261   4.887   2.793   3.890
 1007WAT      O 3262   4.623   8.374   4.411
 1007WAT     H1 3263   4.583   8.380   4.502
 1007WAT     H2 3264   4.638   8.465   4.374
 1008WAT      O 3265   1.956   0.903   0.898
 1008WAT     H1 3266   1.931   0.842   0.823
 1008WAT     H2 3267   1.987   0.849   0.976
 1009WAT      O 3268   7.073   5.808   9.239
 1009WAT     H1 3269   6.980   5.844   9.233
 1009WAT     H2 3270   7.130   5.850   9.169
 1010WAT      O 3271   2.953   9.318   2.667
 1010WAT     H1 3272   2.915   9.376   2.739
 1010WAT     H2 3273   3.049   9.344   2.651
 1011WAT      O 3274   3.818   9.549   5.754
 1011WAT     H1 3275   3.783   9.459   5.726
 1011WAT     H2 3276   3.903   9.537   5.805
 1012WAT      O 3277   6.737   6.594   6.342
 1012WAT     H1 3278   6.811   6.545   6.296
 1012WAT     H2 3279   6.649   6.552   6.318
 1013WAT      O 3280   2.370   8.205   2.932
 1013WAT     H1 3281   2.443   8.211   2.864
 1013WAT     H2 3282   2.396   8.255   3.015
 1014WAT      O 3283   8.545   4.507   0.818
 1014WAT     H1 3284   8.565   4.440   0.890
 1014WAT     H2 3285   8.466   4.476   0.765
 1015WAT      O 3286   9.168   2.120   5.010
 1015WAT     H1 3287   9.218   2.169   4.939
 1015WAT     H2 3288   9.168   2.173   5.095
 1016WAT      O 3289   6.256   3.257   9.696
 1016WAT     H1 3290   6.328   3.321   9.722
 1016WAT     H2 3291   6.189   3.250   9.769
 1017WAT      O 3292   2.647   1.147   2.612
 1017WAT     H1 3293   2.572   1.100   2.659
 1017WAT     H2 3294   2.687   1.215   2.674
 1018WAT      O 3295   7.088   2.132   8.415
 1018WAT     H1 3296   7.100   2.231   8.410
 1018WAT     H2 3297   7.167   2.091   8.462
 1019WAT      O 3298   2.644   2.691   8.659
 1019WAT     H1 3299   2.612   2.607   8.703
 1019WAT     H2 3300   2.739   2.708   8.686
 1020WAT      O 3301   1.807   5.491   7.815
 1020WAT     H1 3302   1.836   5.396   7.808
 1020WAT     H2 3303   1.732   5.508   7.750
 1021WAT      O 3304   3.428   1.173   5.865
 1021WAT     H1 3305   3.516   1.164   5.819
 1021WAT     H2 3306   3.355   1.143   5.804
 1022WAT      O 3307   9.348   8.334   1.287
 1022WAT     H1 3308   9.357   8.246   1.240
 1022WAT     H2 3309   9.428   8.349   1.345
 1023WAT      O 3310   9.086   4.791   0.887
 1023WAT     H1 3311   9.167   4.734   0.905
 1023WAT     H2 3312   9.012   4.734   0.852
 1024WAT      O 3313   5.748   4.950   1.031
 1024WAT     H1 3314   5.761   4.959   0.932
 1024WAT     H2 3315   5.697   5.029   1.066
 1025WAT      O 3316   3.827   2.517   4.764
 1025WAT     H1 3317   3.913   2.565   4.778
 1025WAT     H2 3318   3.763   2.542   4.836
 1026WAT      O 3319   7.973   8.869   3.795
 1026WAT     H1 3320   8.043   8.903   3.732
 1026WAT     H2 3321   7.887   8.856   3.746
 1027WAT      O 3322   7.853   5.220   5.579
 1027WAT     H1 3323   7.896   5.173   5.502
 1027WAT     H2 3324   7.762   5.253   5.552
 1028WAT      O 3325   7.648   2.562   9.518
 1028WAT     H1 3326   7.730   2.505   9.522
 1028WAT     H2 3327   7.571   2.511   9.556
 1029WAT      O 3328   8.825   3.791   3.564
 1029WAT     H1 3329   8.742   3.820   3.611
 1029WAT     H2 3330   8.822   3.693   3.548
 1030WAT      O 3331   2.997   9.673   2.431
 1030WAT     H1 3332   3.043   9.696   2.517
 1030WAT     H2 3333   3.041   9.722   2.356
 1031WAT      O 3334   6.917   2.106   3.263
 1031WAT     H1 3335   6.933   2.075   3.357
 1031WAT     H2 3336   6.987   2.174   3.238
 1032WAT      O 3337   9.754   1.798   8.613
 1032WAT     H1 3338   9.771   1.732   8.687
 1032WAT     H2 3339   9.658   1.794   8.587
 1033WAT      O 3340   0.169   3.912   2.039
 1033WAT     H1 3341   0.237   3.839   2.031
 1033WAT     H2 3342   0.101   3.887   2.108
 1034WAT      O 3343   1.825   3.758   4.193
 1034WAT     H1 3344   1.758   3.701   4.241
 1034WAT     H2 3345   1.905   3.771   4.251
 1035WAT      O 3346   2.587   5.632   4.130
 1035WAT     H1 3347   2.494   5.654   4.160
 1035WAT     H2 3348   2.647   5.627   4.210
 1036WAT      O 3349   4.356   2.868   8.394
 1036WAT     H1 3350   4.446   2.826   8.401
 1036WAT     H2 3351   4.350   2.946   8.456
 1037WAT      O 3352   8.439   4.559   0.188
 1037WAT     H1 3353   8.482   4.497   0.254
 1037WAT     H2 3354   8.509   4.602   0.131
 1038WAT      O 3355   5.871   5.434   8.557
 1038WAT     H1 3356   5.930   5.374   8.612
 1038WAT     H2 3357   5.834   5.382   8.480
 1039WAT      O 3358   6.325   6.600   9.005
 1039WAT     H1 3359   6.299   6.661   9.080
 1039WAT     H2 3360   6.268   6.618   8.925
 1040WAT      O 3361   7.565   2.935   1.237
 1040WAT     H1 3362   7.545   2.894   1.148
 1040WAT     H2 3363   7.510   2.890   1.307
 1041WAT      O 3364   9.699   6.604   3.715
 1041WAT     H1 3365   9.643   6.545   3.772
 1041WAT     H2 3366   9.782   6.630   3.765
 1042WAT      O 3367   2.758   2.940   2.257
 1042WAT     H1 3368   2.797   2.995   2.331
 1042WAT     H2 3369   2.735   2.849   2.292
 1043WAT      O 3370   1.652   1.938   1.968
 1043WAT     H1 3371   1.717   2.013   1.975
 1043WAT     H2 3372   1.693   1.854   2.005
 1044WAT      O 3373   7.957   9.342   1.079
 1044WAT     H1 3374   7.925   9.404   1.151
 1044WAT     H2 3375   8.045   9.374   1.045
 1045WAT      O 3376   8.216   5.769   6.025
 1045WAT     H1 3377   8.123   5.733   6.029
 1045WAT     H2 3378   8.247   5.791   6.118
 1046WAT      O 3379   9.223   8.574   3.904
 1046WAT     H1 3380   9.153   8.545   3.971
 1046WAT     H2 3381   9.231   8.674   3.907
 1047WAT      O 3382   7.395   2.602   1.411
 1047WAT     H1 3383   7.357   2.694   1.420
 1047WAT     H2 3384   7.343   2.538   1.468
 1048WAT      O 3385   6.558   8.290   4.043
 1048WAT     H1 3386   6.548   8.347   4.125
 1048WAT     H2 3387   6.582   8.197   4.070
 1049WAT      O 3388   0.153   1.402   3.433
 1049WAT     H1 3389   0.158   1.440   3.341
 1049WAT     H2 3390   0.181   1.306   3.430
 1050WAT      O 3391   8.256   0.634   6.436
 1050WAT     H1 3392   8.349   0.601   6.422
 1050WAT     H2 3393   8.191   0.570   6.394
 1051WAT      O 3394   3.522   5.728   2.591
 1051WAT     H1 3395   3.570   5.758   2.674
 1051WAT     H2 3396   3.561   5.642   2.559
 1052WAT      O 3397   6.026   7.756   3.013
 1052WAT     H1 3398   5.928   7.763   2.996
 1052WAT     H2 3399   6.076   7.766   2.927
 1053WAT      O 3400   0.913   0.146   1.145
 1053WAT     H1 3401   0.853   0.135   1.066
 1053WAT     H2 3402   0.874   0.098   1.223
 1054WAT      O 3403   4.376   1.168   1.046
 1054WAT     H1 3404   4.297   1.220   1.079
 1054WAT     H2 3405   4.460   1.213   1.077
 1055WAT      O 3406   7.710   1.088   1.273
 1055WAT     H1 3407   7.662   1.134   1.199
 1055WAT     H2 3408   7.795   1.048   1.238
 1056WAT      O 3409   6.391   2.811   6.376
 1056WAT     H1 3410   6.478   2.796   6.424
 1056WAT     H2 3411   6.316   2.771   6.430
 1057WAT      O 3412   6.538   4.701   6.972
 1057WAT     H1 3413   6.508   4.645   7.049
 1057WAT     H2 3414   6.463   4.710   6.907
 1058WAT      O 3415   9.883   9.415   6.814
 1058WAT     H1 3416   9.874   9.508   6.849
 1058WAT     H2 3417   9.970   9.377   6.844
 1059WAT      O 3418   8.302   5.065   3.949
 1059WAT     H1 3419   8.339   5.014   3.872
 1059WAT     H2 3420   8.225   5.120   3.919
 1060WAT      O 3421   6.265   0.253   0.507
 1060WAT     H1 3422   6.235   0.234   0.601
 1060WAT     H2 3423   6.359   0.221   0.494
 1061WAT      O 3424   3.706   3.709   6.890
 1061WAT     H1 3425   3.768   3.786   6.901
 1061WAT     H2 3426   3.672   3.681   6.980
 1062WAT      O 3427   1.018   9.455   6.899
 1062WAT     H1 3428   0.965   9.373   6.916
 1062WAT     H2 3429   1.115   9.432   6.895
 1063WAT      O 3430   8.949   5.741   9.021
 1063WAT     H1 3431   9.025   5.703   8.969
 1063WAT     H2 3432   8.956   5.712   9.117
 1064WAT      O 3433   0.245   8.396   5.409
 1064WAT     H1 3434   0.333   8.393   5.457
 1064WAT     H2 3435   0.259   8.426   5.315
 1065WAT      O 3436   2.841   2.586   5.410
 1065WAT     H1 3437   2.763   2.618   5.355
 1065WAT     H2 3438   2.905   2.662   5.423
 1066WAT      O 3439   6.291   3.636   5.460
 1066WAT     H1 3440   6.236   3.557   5.485
 1066WAT     H2 3441   6.267   3.665   5.367
 1067WAT      O 3442   5.728   4.424   2.639
 1067WAT     H1 3443   5.744   4.340   2.588
 1067WAT     H2 3444   5.654   4.410   2.705
 1068WAT      O 3445   3.669   8.220   8.715
 1068WAT     H1 3446   3.752   8.222   8.770
 1068WAT     H2 3447   3.642   8.126   8.697
 1069WAT      O 3448   0.113   5.780   5.890
 1069WAT     H1 3449   0.115   5.877   5.864
 1069WAT     H2 3450   0.095   5.773   5.988
 1070WAT      O 3451   2.406   1.915   5.221
 1070WAT     H1 3452   2.479   1.977   5.249
 1070WAT     H2 3453   2.322   1.967   5.206
 1071WAT      O 3454   4.809   2.377   2.481
 1071WAT     H1 3455   4.839   2.286   2.510
 1071WAT     H2 3456   4.792   2.434   2.561
 1072WAT      O 3457   6.212   4.946   8.610
 1072WAT     H1 3458   6.116   4.922   8.599
 1072WAT     H2 3459   6.220   5.039   8.646
 1073WAT      O 3460   0.772   8.589   5.556
 1073WAT     H1 3461   0.786   8.682   5.590
 1073WAT     H2 3462   0.685   8.554   5.590
 1074WAT      O 3463   9.889   6.982   5.310
 1074WAT     H1 3464   9.943   7.009   5.390
 1074WAT     H2 3465   9.814   6.922   5.339
 1075WAT      O 3466   6.810   0.273   0.476
 1075WAT     H1 3467   6.780   0.194   0.530
 1075WAT     H2 3468   6.816   0.248   0.380
 1076WAT      O 3469   6.767   4.514   2.529
 1076WAT     H1 3470   6.795   4.422   2.557
 1076WAT     H2 3471   6.825   4.546   2.454
 1077WAT      O 3472   5.364   4.316   7.606
 1077WAT     H1 3473   5.436   4.376   7.641
 1077WAT     H2 3474   5.397   4.265   7.527
 1078WAT      O 3475   6.476   2.374   4.336
 1078WAT     H1 3476   6.502   2.421   4.421
 1078WAT     H2 3477   6.557   2.360   4.280
 1079WAT      O 3478   1.148   5.696   2.705
 1079WAT     H1 3479   1.143   5.789   2.740
 1079WAT     H2 3480   1.177   5.634   2.777
 1080WAT      O 3481   3.078   1.093   5.069
 1080WAT     H1 3482   3.015   1.034   5.018
 1080WAT     H2 3483   3.156   1.039   5.101
 1081WAT      O 3484   6.294   4.427   8.751
 1081WAT     H1 3485   6.196   4.427   8.733
 1081WAT     H2 3486   6.336   4.508   8.710
 1082WAT      O 3487   7.551   1.122   5.612
 1082WAT     H1 3488   7.476   1.057   5.623
 1082WAT     H2 3489   7.567   1.169   5.699
 1083WAT      O 3490   3.159   0.532   5.905
 1083WAT     H1 3491   3.243   0.537   5.958
 1083WAT     H2 3492   3.169   0.463   5.833
 1084WAT      O 3493   5.676   6.406   6.761
 1084WAT     H1 3494   5.754   6.400   6.699
 1084WAT     H2 3495   5.683   6.489   6.816
 1085WAT      O 3496   8.362   1.707   0.818
 1085WAT     H1 3497   8.445   1.662   0.785
 1085WAT     H2 3498   8.347   1.683   0.914
 1086WAT      O 3499   3.566   4.841   3.240
 1086WAT     H1 3500   3.614   4.768   3.289
 1086WAT     H2 3501   3.632   4.910   3.210
 1087WAT      O 3502   1.811   4.654   4.491
 1087WAT     H1 3503   1.806   4.640   4.590
 1087WAT     H2 3504   1.856   4.575   4.449
 1088WAT      O 3505   0.107   1.023   4.600
 1088WAT     H1 3506   0.023   1.076   4.611
 1088WAT     H2 3507   0.090   0.944   4.540
 1089WAT      O 3508   3.775   9.573   8.159
 1089WAT     H1 3509   3.810   9.661   8.127
 1089WAT     H2 3510   3.833   9.538   8.232
 1090WAT      O 3511   5.662   3.171   7.238
 1090WAT     H1 3512   5.754   3.210   7.241
 1090WAT     H2 3513   5.654   3.099   7.308
 1091WAT      O 3514   2.624   8.475   8.039
 1091WAT     H1 3515   2.695   8.432   8.095
 1091WAT     H2 3516   2.624   8.435   7.948
 1092WAT      O 3517   5.151   8.446   6.419
 1092WAT     H1 3518   5.117   8.474   6.329
 1092WAT     H2 3519   5.230   8.385   6.407
 1093WAT      O 3520   6.996   2.089   6.994
 1093WAT     H1 3521   7.013   2.159   6.924
 1093WAT     H2 3522   6.911   2.040   6.971
 1094WAT      O 3523   2.434   4.713   1.611
 1094WAT     H1 3524   2.520   4.676   1.576
 1094WAT     H2 3525   2.427   4.693   1.709
 1095WAT      O 3526   0.344   5.115   1.950
 1095WAT     H1 3527   0.425   5.165   1.981
 1095WAT     H2 3528   0.311   5.155   1.865
 1096WAT      O 3529   6.323   4.297   3.229
 1096WAT     H1 3530   6.319   4.228   3.157
 1096WAT     H2 3531   6.234   4.342   3.237
 1097WAT      O 3532   7.525   6.795   0.639
 1097WAT     H1 3533   7.561   6.812   0.731
 1097WAT     H2 3534   7.429   6.821   0.634
 1098WAT      O 3535   3.209   1.262   2.524
 1098WAT     H1 3536   3.157   1.273   2.609
 1098WAT     H2 3537   3.228   1.165   2.508
 1099WAT      O 3538   6.513   4.227   1.865
 1099WAT     H1 3539   6.480   4.181   1.947
 1099WAT     H2 3540   6.611   4.208   1.854
 1100WAT      O 3541   3.789   9.372   7.060
 1100WAT     H1 3542   3.816   9.443   7.125
 1100WAT     H2 3543   3.868   9.345   7.005
 1101WAT      O 3544   5.896   4.203   4.622
 1101WAT     H1 3545   5.809   4.170   4.659
 1101WAT     H2 3546   5.950   4.125   4.590
 1102WAT      O 3547   3.837   0.230   4.008
 1102WAT     H1 3548   3.906   0.270   3.949
 1102WAT     H2 3549   3.859   0.134   4.024
 1103WAT      O 3550   1.327   1.839   5.802
 1103WAT     H1 3551   1.240   1.816   5.846
 1103WAT     H2 3552   1.310   1.887   5.716
 1104WAT      O 3553   5.664   0.277   0.627
 1104WAT     H1 3554   5.725   0.320   0.694
 1104WAT     H2 3555   5.716   0.214   0.570
 1105WAT      O 3556   0.612   1.758   0.882
 1105WAT     H1 3557   0.676   1.681   0.874
 1105WAT     H2 3558   0.661   1.840   0.911
 1106WAT      O 3559   7.999   5.194   7.296
 1106WAT     H1 3560   8.078   5.178   7.237
 1106WAT     H2 3561   7.961   5.106   7.326
 1107WAT      O 3562   3.561   8.502   4.261
 1107WAT     H1 3563   3.660   8.497   4.250
 1107WAT     H2 3564   3.517   8.437   4.200
 1108WAT      O 3565   7.745   6.210   0.771
 1108WAT     H1 3566   7.817   6.279   0.758
 1108WAT     H2 3567   7.781   6.135   0.827
 1109WAT      O 3568   3.009   1.627   1.574
 1109WAT     H1 3569   3.032   1.692   1.501
 1109WAT     H2 3570   3.061   1.650   1.656
 1110WAT      O 3571   2.249   5.111   4.006
 1110WAT     H1 3572   2.189   5.032   3.999
 1110WAT     H2 3573   2.264   5.134   4.102
 1111WAT      O 3574   0.032   8.005   6.116
 1111WAT     H1 3575  -0.016   8.092   6.126
 1111WAT     H2 3576  -0.034   7.933   6.095
 1112WAT      O 3577   0.853   7.660   4.971
 1112WAT     H1 3578   0.905   7.724   4.915
 1112WAT     H2 3579   0.916   7.604   5.025
 1113WAT      O 3580   2.574   5.957   1.230
 1113WAT     H1 3581   2.506   5.886   1.245
 1113WAT     H2 3582   2.656   5.936   1.283
 1114WAT      O 3583   1.324   9.292   3.904
 1114WAT     H1 3584   1.333   9.282   4.003
 1114WAT     H2 3585   1.236   9.254   3.874
 1115WAT      O 3586   4.409   4.216   8.795
 1115WAT     H1 3587   4.315   4.245   8.815
 1115WAT     H2 3588   4.455   4.286   8.741
 1116WAT      O 3589   0.733   9.109   7.121
 1116WAT     H1 3590   0.772   9.033   7.070
 1116WAT     H2 3591   0.656   9.077   7.176
 1117WAT      O 3592   9.869   7.053   7.052
 1117WAT     H1 3593   9.890   6.955   7.051
 1117WAT     H2 3594   9.894   7.092   7.141
 1118WAT      O 3595   2.842   5.301   2.260
 1118WAT     H1 3596   2.865   5.219   2.208
 1118WAT     H2 3597   2.745   5.302   2.281
 1119WAT      O 3598   5.536   0.853   6.815
 1119WAT     H1 3599   5.454   0.895   6.854
 1119WAT     H2 3600   5.612   0.917   6.822
 1120WAT      O 3601   6.524   8.366   8.485
 1120WAT     H1 3602   6.511   8.280   8.435
 1120WAT     H2 3603   6.443   8.385   8.540
 1121WAT      O 3604   3.467   9.369   3.020
 1121WAT     H1 3605   3.458   9.287   2.963
 1121WAT     H2 3606   3.421   9.446   2.976
 1122WAT      O 3607   1.380   1.975   3.294
 1122WAT     H1 3608   1.438   2.020   3.226
 1122WAT     H2 3609   1.285   2.005   3.282
 1123WAT      O 3610   8.057   1.913   9.864
 1123WAT     H1 3611   7.977   1.949   9.912
 1123WAT     H2 3612   8.052   1.938   9.768
 1124WAT      O 3613   7.480   3.620   0.593
 1124WAT     H1 3614   7.420   3.560   0.646
 1124WAT     H2 3615   7.501   3.576   0.505
 1125WAT      O 3616   4.638   1.933   5.634
 1125WAT     H1 3617   4.646   2.003   5.564
 1125WAT     H2 3618   4.605   1.848   5.593
 1126WAT      O 3619   7.048   2.785   5.565
 1126WAT     H1 3620   7.130   2.815   5.515
 1126WAT     H2 3621   7.053   2.817   5.659
 1127WAT      O 3622   9.421   7.574   3.483
 1127WAT     H1 3623   9.520   7.583   3.473
 1127WAT     H2 3624   9.380   7.563   3.393
 1128WAT      O 3625   5.250   1.054   0.050
 1128WAT     H1 3626   5.202   0.996   0.116
 1128WAT     H2 3627   5.345   1.066   0.079
 1129WAT      O 3628   3.197   2.481   7.038
 1129WAT     H1 3629   3.279   2.536   7.029
 1129WAT     H2 3630   3.213   2.390   7.001
 1130WAT      O 3631   9.556   1.312   5.272
 1130WAT     H1 3632   9.472   1.310   5.326
 1130WAT     H2 3633   9.549   1.382   5.201
 1131WAT      O 3634   1.290   8.376   2.787
 1131WAT     H1 3635   1.255   8.360   2.695
 1131WAT     H2 3636   1.335   8.294   2.821
 1132WAT      O 3637   0.084   6.983   3.301
 1132WAT     H1 3638   0.141   6.960   3.223
 1132WAT     H2 3639   0.000   7.028   3.270
 1133WAT      O 3640  -0.006   5.958   9.500
 1133WAT     H1 3641   0.067   5.891   9.516
 1133WAT     H2 3642   0.034   6.048   9.485
 1134WAT      O 3643   8.478   8.593   4.172
 1134WAT     H1 3644   8.459   8.689   4.196
 1134WAT     H2 3645   8.425   8.533   4.232
 1135WAT      O 3646   6.730   7.556   1.431
 1135WAT     H1 3647   6.800   7.550   1.502
 1135WAT     H2 3648   6.733   7.646   1.389
 1136WAT      O 3649   4.389   5.793   0.609
 1136WAT     H1 3650   4.343   5.880   0.590
 1136WAT     H2 3651   4.333   5.739   0.671
 1137WAT      O 3652   5.005   3.275   3.396
 1137WAT     H1 3653   5.080   3.328   3.435
 1137WAT     H2 3654   4.922   3.330   3.396
 1138WAT      O 3655   6.802   9.386   4.386
 1138WAT     H1 3656   6.898   9.380   4.358
 1138WAT     H2 3657   6.747   9.420   4.310
 1139WAT      O 3658   6.134   1.440   7.693
 1139WAT     H1 3659   6.150   1.353   7.646
 1139WAT     H2 3660   6.093   1.505   7.629
 1140WAT      O 3661   0.148   1.416   9.699
 1140WAT     H1 3662   0.184   1.494   9.750
 1140WAT     H2 3663   0.132   1.340   9.762
 1141WAT      O 3664   9.184   4.951   4.496
 1141WAT     H1 3665   9.116   4.881   4.474
 1141WAT     H2 3666   9.268   4.907   4.528
 1142WAT      O 3667   9.654   5.161   6.605
 1142WAT     H1 3668   9.676   5.100   6.681
 1142WAT     H2 3669   9.672   5.256   6.632
 1143WAT      O 3670   4.444   8.986   0.761
 1143WAT     H1 3671   4.472   8.904   0.810
 1143WAT     H2 3672   4.431   9.061   0.826
 1144WAT      O 3673   6.757   6.518   3.017
 1144WAT     H1 3674   6.682   6.471   2.972
 1144WAT     H2 3675   6.791   6.461   3.093
 1145WAT      O 3676   7.255   0.929   4.283
 1145WAT     H1 3677   7.172   0.984   4.282
 1145WAT     H2 3678   7.253   0.863   4.208
 1146WAT      O 3679   5.721   2.964   8.361
 1146WAT     H1 3680   5.703   3.046   8.307
 1146WAT     H2 3681   5.654   2.958   8.435
 1147WAT      O 3682   2.150   1.556   2.372
 1147WAT     H1 3683   2.246   1.527   2.371
 1147WAT     H2 3684   2.141   1.638   2.429
 1148WAT      O 3685   8.501   9.518   4.879
 1148WAT     H1 3686   8.433   9.489   4.811
 1148WAT     H2 3687   8.588   9.472   4.860
 1149WAT      O 3688   2.062   8.466   6.034
 1149WAT     H1 3689   2.161   8.458   6.017
 1149WAT     H2 3690   2.044   8.454   6.131
 1150WAT      O 3691   7.632   7.155   1.516
 1150WAT     H1 3692   7.574   7.182   1.593
 1150WAT     H2 3693   7.724   7.192   1.530
 1151WAT      O 3694   2.716   5.199   2.709
 1151WAT     H1 3695   2.758   5.268   2.650
 1151WAT     H2 3696   2.787   5.151   2.761
 1152WAT      O 3697   0.455   2.420   8.845
 1152WAT     H1 3698   0.448   2.445   8.942
 1152WAT     H2 3699   0.486   2.326   8.836
 1153WAT      O 3700   4.857   3.301   0.905
 1153WAT     H1 3701   4.798   3.361   0.960
 1153WAT     H2 3702   4.819   3.209   0.906
 1154WAT      O 3703   3.955   8.347   5.556
 1154WAT     H1 3704   3.916   8.261   5.588
 1154WAT     H2 3705   4.054   8.336   5.545
 1155WAT      O 3706   5.055   3.762   7.012
 1155WAT     H1 3707   5.068   3.665   7.033
 1155WAT     H2 3708   5.038   3.813   7.096
 1156WAT      O 3709   8.488   6.261   9.467
 1156WAT     H1 3710   8.576   6.229   9.501
 1156WAT     H2 3711   8.435   6.183   9.433
 1157WAT      O 3712   5.941   1.010   0.159
 1157WAT     H1 3713   5.997   1.090   0.135
 1157WAT     H2 3714   5.872   1.037   0.226
 1158WAT      O 3715   9.288   0.334   3.892
 1158WAT     H1 3716   9.240   0.321   3.806
 1158WAT     H2 3717   9.224   0.323   3.968
 1159WAT      O 3718   9.603   1.970   9.496
 1159WAT     H1 3719   9.623   1.904   9.569
 1159WAT     H2 3720   9.553   2.048   9.534
 1160WAT      O 3721   6.446   6.136   0.223
 1160WAT     H1 3722   6.516   6.104   0.159
 1160WAT     H2 3723   6.405   6.057   0.268
 1161WAT      O 3724   4.122   4.308   0.160
 1161WAT     H1 3725   4.068   4.261   0.090
 1161WAT     H2 3726   4.212   4.330   0.123
 1162WAT      O 3727   4.678   0.617   4.977
 1162WAT     H1 3728   4.586   0.620   5.017
 1162WAT     H2 3729   4.671   0.595   4.880
 1163WAT      O 3730   0.479   5.101   0.336
 1163WAT     H1 3731   0.403   5.050   0.377
 1163WAT     H2 3732   0.561   5.092   0.393
 1164WAT      O 3733   3.424   5.682   3.907
 1164WAT     H1 3734   3.324   5.681   3.908
 1164WAT     H2 3735   3.457   5.679   3.813
 1165WAT      O 3736   1.739   4.328   0.153
 1165WAT     H1 3737   1.724   4.330   0.252
 1165WAT     H2 3738   1.829   4.367   0.133
 1166WAT      O 3739   6.382   2.987   2.184
 1166WAT     H1 3740   6.439   2.920   2.135
 1166WAT     H2 3741   6.335   3.045   2.118
 1167WAT      O 3742   3.024   9.445   1.183
 1167WAT     H1 3743   3.070   9.447   1.272
 1167WAT     H2 3744   3.089   9.471   1.112
 1168WAT      O 3745   1.801   7.996   6.061
 1168WAT     H1 3746   1.763   7.980   5.970
 1168WAT     H2 3747   1.861   8.076   6.058
 1169WAT      O 3748   3.188   8.752   4.123
 1169WAT     H1 3749   3.135   8.724   4.043
 1169WAT     H2 3750   3.154   8.840   4.156
 1170WAT      O 3751   5.859   1.739   9.084
 1170WAT     H1 3752   5.820   1.775   9.169
 1170WAT     H2 3753   5.794   1.752   9.009
 1171WAT      O 3754   3.360   7.975   3.448
 1171WAT     H1 3755   3.436   7.923   3.408
 1171WAT     H2 3756   3.396   8.050   3.503
 1172WAT      O 3757   8.994   9.166   8.882
 1172WAT     H1 3758   9.014   9.071   8.856
 1172WAT     H2 3759   8.901   9.171   8.919
 1173WAT      O 3760   2.228   8.522   9.306
 1173WAT     H1 3761   2.208   8.440   9.252
 1173WAT     H2 3762   2.232   8.497   9.403
 1174WAT      O 3763   9.462   9.348   4.873
 1174WAT     H1 3764   9.371   9.309   4.856
 1174WAT     H2 3765   9.529   9.274   4.879
 1175WAT      O 3766   9.330   9.417   8.344
 1175WAT     H1 3767   9.304   9.507   8.379
 1175WAT     H2 3768   9.403   9.380   8.401
 1176WAT      O 3769   0.022   8.388   6.522
 1176WAT     H1 3770   0.087   8.312   6.512
 1176WAT     H2 3771   0.058   8.454   6.587
 1177WAT      O 3772   9.196   1.242   4.142
 1177WAT     H1 3773   9.251   1.213   4.063
 1177WAT     H2 3774   9.099   1.236   4.118
 1178WAT      O 3775   1.398   7.964   2.689
 1178WAT     H1 3776   1.411   8.025   2.767
 1178WAT     H2 3777   1.304   7.974   2.655
 1179WAT      O 3778   3.690   4.832   0.647
 1179WAT     H1 3779   3.592   4.828   0.664
 1179WAT     H2 3780   3.734   4.752   0.688
 1180WAT      O 3781   9.032   4.614   8.832
 1180WAT     H1 3782   9.066   4.581   8.920
 1180WAT     H2 3783   9.107   4.656   8.782
 1181WAT      O 3784   8.079   0.489   1.494
 1181WAT     H1 3785   8.002   0.463   1.552
 1181WAT     H2 3786   8.095   0.587   1.500
 1182WAT      O 3787   9.084   3.381   5.197
 1182WAT     H1 3788   9.107   3.390   5.100
 1182WAT     H2 3789   9.129   3.455   5.248
 1183WAT      O 3790   8.704   3.708   9.373
 1183WAT     H1 3791   8.623   3.660   9.338
 1183WAT     H2 3792   8.786   3.656   9.349
 1184WAT      O 3793   3.364   1.996   5.450
 1184WAT     H1 3794   3.425   2.074   5.436
 1184WAT     H2 3795   3.319   2.004   5.539
 1185WAT      O 3796   3.501   2.373   3.537
 1185WAT     H1 3797   3.437   2.308   3.497
 1185WAT     H2 3798   3.589   2.328   3.553
 1186WAT      O 3799   2.833   8.343   3.107
 1186WAT     H1 3800   2.784   8.401   3.172
 1186WAT     H2 3801   2.788   8.254   3.102
 1187WAT      O 3802   8.510   1.260   8.467
 1187WAT     H1 3803   8.427   1.219   8.428
 1187WAT     H2 3804   8.574   1.187   8.493
 1188WAT      O 3805   9.545   2.172   7.741
 1188WAT     H1 3806   9.450   2.158   7.714
 1188WAT     H2 3807   9.596   2.088   7.726
 1189WAT      O 3808   8.219   9.520   9.866
 1189WAT     H1 3809   8.202   9.486   9.959
 1189WAT     H2 3810   8.166   9.467   9.801
 1190WAT      O 3811   7.845   2.663   0.572
 1190WAT     H1 3812   7.844   2.755   0.532
 1190WAT     H2 3813   7.936   2.643   0.607
 1191WAT      O 3814   5.750   6.813   6.465
 1191WAT     H1 3815   5.810   6.871   6.521
 1191WAT     H2 3816   5.666   6.862   6.444
 1192WAT      O 3817   2.666   8.594   1.323
 1192WAT     H1 3818   2.688   8.500   1.348
 1192WAT     H2 3819   2.586   8.595   1.263
 1193WAT      O 3820   2.227   7.534   3.345
 1193WAT     H1 3821   2.325   7.538   3.364
 1193WAT     H2 3822   2.209   7.571   3.254
 1194WAT      O 3823   2.888   8.902   2.719
 1194WAT     H1 3824   2.819   8.830   2.726
 1194WAT     H2 3825   2.916   8.931   2.810
 1195WAT      O 3826   5.230   1.488   1.975
 1195WAT     H1 3827   5.192   1.537   1.896
 1195WAT     H2 3828   5.164   1.491   2.050
 1196WAT      O 3829   3.537   3.609   5.971
 1196WAT     H1 3830   3.529   3.514   5.998
 1196WAT     H2 3831   3.457   3.636   5.917
 1197WAT      O 3832   4.702   0.969   9.745
 1197WAT     H1 3833   4.738   0.954   9.837
 1197WAT     H2 3834   4.631   1.040   9.748
 1198WAT      O 3835   8.268   7.722   6.395
 1198WAT     H1 3836   8.368   7.719   6.389
 1198WAT     H2 3837   8.230   7.650   6.337
 1199WAT      O 3838   6.409   4.605   2.237
 1199WAT     H1 3839   6.456   4.634   2.154
 1199WAT     H2 3840   6.461   4.530   2.279
 1200WAT      O 3841   0.384   0.522   1.784
 1200WAT     H1 3842   0.312   0.458   1.759
 1200WAT     H2 3843   0.460   0.514   1.720
 1201WAT      O 3844   6.520   4.405   6.710
 1201WAT     H1 3845   6.449   4.335   6.718
 1201WAT     H2 3846   6.488   4.479   6.651
 1202WAT      O 3847   6.847   5.566   9.261
 1202WAT     H1 3848   6.838   5.551   9.360
 1202WAT     H2 3849   6.878   5.659   9.244
 1203WAT      O 3850   9.422   2.018   2.894
 1203WAT     H1 3851   9.394   2.004   2.799
 1203WAT     H2 3852   9.504   2.076   2.896
 1204WAT      O 3853   7.715   8.061   0.270
 1204WAT     H1 3854   7.644   8.131   0.276
 1204WAT     H2 3855   7.709   8.001   0.349
 1205WAT      O 3856   0.025   0.894   9.033
 1205WAT     H1 3857   0.090   0.916   9.105
 1205WAT     H2 3858  -0.025   0.976   9.007
 1206WAT      O 3859   3.199   8.046   3.262
 1206WAT     H1 3860   3.256   8.068   3.183
 1206WAT     H2 3861   3.257   8.029   3.341
 1207WAT      O 3862   7.866   2.496   2.242
 1207WAT     H1 3863   7.768   2.483   2.252
 1207WAT     H2 3864   7.900   2.557   2.313
 1208WAT      O 3865   6.859   7.103   2.065
 1208WAT     H1 3866   6.932   7.043   2.031
 1208WAT     H2 3867   6.785   7.047   2.103
 1209WAT      O 3868   7.273   8.442   7.268
 1209WAT     H1 3869   7.345   8.377   7.292
 1209WAT     H2 3870   7.275   8.519   7.332
 1210WAT      O 3871   1.889   0.828   8.728
 1210WAT     H1 3872   1.811   0.801   8.784
 1210WAT     H2 3873   1.861   0.835   8.632
 1211WAT      O 3874   2.268   8.535   0.128
 1211WAT     H1 3875   2.193   8.470   0.142
 1211WAT     H2 3876   2.294   8.575   0.216
 1212WAT      O 3877   0.255   6.823   7.341
 1212WAT     H1 3878   0.254   6.785   7.433
 1212WAT     H2 3879   0.348   6.818   7.304
 1213WAT      O 3880   0.483   2.726   5.276
 1213WAT     H1 3881   0.477   2.757   5.371
 1213WAT     H2 3882   0.530   2.638   5.273
 1214WAT      O 3883   7.878   9.486   9.730
 1214WAT     H1 3884   7.852   9.464   9.636
 1214WAT     H2 3885   7.906   9.402   9.777
 1215WAT      O 3886   4.771   6.842   7.859
 1215WAT     H1 3887   4.709   6.793   7.921
 1215WAT     H2 3888   4.803   6.926   7.903
 1216WAT      O 3889   7.358   5.906   5.419
 1216WAT     H1 3890   7.273   5.925   5.467
 1216WAT     H2 3891   7.414   5.845   5.474
 1217WAT      O 3892   9.586   1.548   1.449
 1217WAT     H1 3893   9.594   1.448   1.457
 1217WAT     H2 3894   9.498   1.571   1.407
 1218WAT      O 3895   1.993   0.575   3.745
 1218WAT     H1 3896   2.046   0.493   3.725
 1218WAT     H2 3897   2.055   0.654   3.750
 1219WAT      O 3898   0.672   9.105   1.015
 1219WAT     H1 3899   0.631   9.024   1.058
 1219WAT     H2 3900   0.620   9.128   0.932
 1220WAT      O 3901   1.978   9.103   1.623
 1220WAT     H1 3902   1.975   9.010   1.587
 1220WAT     H2 3903   1.984   9.099   1.723
 1221WAT      O 3904   3.568   9.113   3.426
 1221WAT     H1 3905   3.517   9.188   3.383
 1221WAT     H2 3906   3.614   9.147   3.507
 1222WAT      O 3907   5.180   5.179   0.528
 1222WAT     H1 3908   5.095   5.142   0.491
 1222WAT     H2 3909   5.159   5.253   0.592
 1223WAT      O 3910   0.926   0.385   3.645
 1223WAT     H1 3911   0.987   0.421   3.575
 1223WAT     H2 3912   0.844   0.348   3.603
 1224WAT      O 3913   2.167   8.933   8.384
 1224WAT     H1 3914   2.117   8.949   8.469
 1224WAT     H2 3915   2.263   8.955   8.397
 1225WAT      O 3916   1.979   4.148   4.879
 1225WAT     H1 3917   2.057   4.085   4.873
 1225WAT     H2 3918   1.894   4.096   4.888
 1226WAT      O 3919   5.327   9.708   1.039
 1226WAT     H1 3920   5.400   9.653   0.998
 1226WAT     H2 3921   5.239   9.680   1.001
 1227WAT      O 3922   5.454   3.262   8.498
 1227WAT     H1 3923   5.512   3.265   8.579
 1227WAT     H2 3924   5.384   3.333   8.504
 1228WAT      O 3925   8.906   3.237   2.463
 1228WAT     H1 3926   8.827   3.263   2.408
 1228WAT     H2 3927   8.974   3.193   2.404
 1229WAT      O 3928   7.812   5.199   7.686
 1229WAT     H1 3929   7.873   5.247   7.749
 1229WAT     H2 3930   7.841   5.104   7.678
 1230WAT      O 3931   9.342   5.790   9.823
 1230WAT     H1 3932   9.333   5.708   9.765
 1230WAT     H2 3933   9.252   5.821   9.851
 1231WAT      O 3934   0.855   6.796   6.503
 1231WAT     H1 3935   0.857   6.785   6.404
 1231WAT     H2 3936   0.782   6.861   6.527
 1232WAT      O 3937   6.559   3.781   3.081
 1232WAT     H1 3938   6.622   3.709   3.051
 1232WAT     H2 3939   6.602   3.835   3.154
 1233WAT      O 3940   4.727   6.170   6.424
 1233WAT     H1 3941   4.669   6.145   6.347
 1233WAT     H2 3942   4.812   6.117   6.420
 1234WAT      O 3943   5.864   1.585   8.409
 1234WAT     H1 3944   5.790   1.651   8.421
 1234WAT     H2 3945   5.949   1.624   8.446
 1235WAT      O 3946   5.571   3.627   2.176
 1235WAT     H1 3947   5.583   3.581   2.263
 1235WAT     H2 3948   5.628   3.583   2.106
 1236WAT      O 3949   9.780   9.743   2.126
 1236WAT     H1 3950   9.737   9.685   2.195
 1236WAT     H2 3951   9.710   9.796   2.079
 1237WAT      O 3952   0.219   1.227   6.098
 1237WAT     H1 3953   0.195   1.251   6.192
 1237WAT     H2 3954   0.137   1.233   6.040
 1238WAT      O 3955   0.147   9.789   0.006
 1238WAT     H1 3956   0.240   9.823  -0.006
 1238WAT     H2 3957   0.133   9.766   0.103
 1239WAT      O 3958   7.928   0.364   1.666
 1239WAT     H1 3959   7.910   0.369   1.764
 1239WAT     H2 3960   7.846   0.331   1.619
 1240WAT      O 3961   5.508   6.134   3.956
 1240WAT     H1 3962   5.592   6.158   4.004
 1240WAT     H2 3963   5.491   6.036   3.966
 1241WAT      O 3964   2.076   5.862   8.983
 1241WAT     H1 3965   2.145   5.919   9.028
 1241WAT     H2 3966   2.069   5.775   9.031
 1242WAT      O 3967   1.322   9.593   4.439
 1242WAT     H1 3968   1.415   9.589   4.476
 1242WAT     H2 3969   1.325   9.615   4.341
 1243WAT      O 3970   7.691   6.225   1.889
 1243WAT     H1 3971   7.676   6.193   1.796
 1243WAT     H2 3972   7.735   6.315   1.887
 1244WAT      O 3973   3.171   5.089   0.613
 1244WAT     H1 3974   3.124   5.035   0.543
 1244WAT     H2 3975   3.176   5.184   0.583
 1245WAT      O 3976   8.590   2.281   3.552
 1245WAT     H1 3977   8.554   2.325   3.470
 1245WAT     H2 3978   8.555   2.329   3.633
 1246WAT      O 3979   9.425   2.245   3.269
 1246WAT     H1 3980   9.374   2.193   3.338
 1246WAT     H2 3981   9.387   2.337   3.261
 1247WAT      O 3982   0.134   0.852   6.041
 1247WAT     H1 3983   0.181   0.782   5.987
 1247WAT     H2 3984   0.066   0.898   5.984
 1248WAT      O 3985   2.637   6.826   7.584
 1248WAT     H1 3986   2.686   6.812   7.497
 1248WAT     H2 3987   2.702   6.818   7.660
 1249WAT      O 3988   7.486   0.938   0.906
 1249WAT     H1 3989   7.424   1.001   0.860
 1249WAT     H2 3990   7.440   0.895   0.983
 1250WAT      O 3991   1.645   0.512   5.014
 1250WAT     H1 3992   1.547   0.529   5.001
 1250WAT     H2 3993   1.679   0.568   5.089
 1251WAT      O 3994   6.557   8.702   5.145
 1251WAT     H1 3995   6.590   8.656   5.062
 1251WAT     H2 3996   6.543   8.799   5.126
 1252WAT      O 3997   1.536   0.729   9.251
 1252WAT     H1 3998   1.558   0.698   9.343
 1252WAT     H2 3999   1.605   0.795   9.220
 1253WAT      O 4000   7.002   6.903   3.305
 1253WAT     H1 4001   7.020   6.829   3.240
 1253WAT     H2 4002   6.952   6.867   3.384
 1254WAT      O 4003   8.244   5.437   3.444
 1254WAT     H1 4004   8.200   5.355   3.408
 1254WAT     H2 4005   8.343   5.426   3.442
 1255WAT      O 4006   1.091   3.148   9.016
 1255WAT     H1 4007   1.133   3.059   9.033
 1255WAT     H2 4008   1.001   3.134   8.974
 1256WAT      O 4009   8.379   9.263   2.404
 1256WAT     H1 4010   8.370   9.362   2.396
 1256WAT     H2 4011   8.293   9.219   2.379
 1257WAT      O 4012   8.016   2.524   1.511
 1257WAT     H1 4013   8.031   2.570   1.598
 1257WAT     H2 4014   8.077   2.445   1.504
 1258WAT      O 4015   7.260   2.324   7.815
 1258WAT     H1 4016   7.350   2.330   7.859
 1258WAT     H2 4017   7.227   2.415   7.793
 1259WAT      O 4018   7.548   4.839   9.048
 1259WAT     H1 4019   7.601   4.904   9.102
 1259WAT     H2 4020   7.509   4.769   9.107
 1260WAT      O 4021   4.805   0.635   5.212
 1260WAT     H1 4022   4.793   0.549   5.261
 1260WAT     H2 4023   4.752   0.634   5.128
 1261WAT      O 4024   9.838   9.074   9.544
 1261WAT     H1 4025   9.922   9.027   9.514
 1261WAT     H2 4026   9.842   9.089   9.643
 1262WAT      O 4027   4.187   8.239   6.524
 1262WAT     H1 4028   4.271   8.255   6.473
 1262WAT     H2 4029   4.209   8.197   6.613
 1263WAT      O 4030   6.172   2.232   8.327
 1263WAT     H1 4031   6.162   2.293   8.249
 1263WAT     H2 4032   6.092   2.240   8.387
 1264WAT      O 4033   1.381   7.270   3.302
 1264WAT     H1 4034   1.459   7.324   3.269
 1264WAT     H2 4035   1.298   7.326   3.297
 1265WAT      O 4036   2.770   8.466   9.010
 1265WAT     H1 4037   2.729   8.468   8.918
 1265WAT     H2 4038   2.776   8.372   9.042
 1266WAT      O 4039   0.307   4.676   7.120
 1266WAT     H1 4040   0.304   4.752   7.185
 1266WAT     H2 4041   0.398   4.636   7.120
 1267WAT      O 4042   4.636   4.968   6.935
 1267WAT     H1 4043   4.549   4.918   6.932
 1267WAT     H2 4044   4.631   5.039   7.005
 1268WAT      O 4045   4.472   7.872   2.152
 1268WAT     H1 4046   4.472   7.848   2.249
 1268WAT     H2 4047   4.502   7.967   2.142
 1269WAT      O 4048   0.401   0.660   4.554
 1269WAT     H1 4049   0.328   0.601   4.589
 1269WAT     H2 4050   0.418   0.637   4.458
 1270WAT      O 4051   0.783   6.641   0.701
 1270WAT     H1 4052   0.698   6.627   0.650
 1270WAT     H2 4053   0.813   6.554   0.739
 1271WAT      O 4054   9.335   4.559   6.222
 1271WAT     H1 4055   9.351   4.632   6.288
 1271WAT     H2 4056   9.422   4.517   6.196
 1272WAT      O 4057   3.955   8.032   6.153
 1272WAT     H1 4058   3.916   7.981   6.230
 1272WAT     H2 4059   3.922   7.992   6.067
 1273WAT      O 4060   1.947   2.779   1.570
 1273WAT     H1 4061   1.863   2.727   1.586
 1273WAT     H2 4062   2.026   2.717   1.578
 1274WAT      O 4063   1.476   7.531   9.004
 1274WAT     H1 4064   1.537   7.516   8.927
 1274WAT     H2 4065   1.523   7.509   9.090
 1275WAT      O 4066   7.872   1.490   5.548
 1275WAT     H1 4067   7.836   1.554   5.616
 1275WAT     H2 4068   7.858   1.396   5.579
 1276WAT      O 4069   1.318   1.041   5.618
 1276WAT     H1 4070   1.293   1.135   5.644
 1276WAT     H2 4071   1.417   1.032   5.619
 1277WAT      O 4072   4.516   2.745   0.721
 1277WAT     H1 4073   4.437   2.710   0.670
 1277WAT     H2 4074   4.592   2.680   0.714
 1278WAT      O 4075   4.933   2.126   0.070
 1278WAT     H1 4076   4.836   2.144   0.052
 1278WAT     H2 4077   4.953   2.145   0.166
 1279WAT      O 4078   3.169   9.753   8.829
 1279WAT     H1 4079   3.171   9.807   8.913
 1279WAT     H2 4080   3.142   9.812   8.752
 1280WAT      O 4081   0.943   7.443   9.380
 1280WAT     H1 4082   0.967   7.366   9.320
 1280WAT     H2 4083   0.843   7.453   9.382
 1281WAT      O 4084   0.977   0.678   6.840
 1281WAT     H1 4085   0.916   0.756   6.823
 1281WAT     H2 4086   1.041   0.668   6.764
 1282WAT      O 4087   6.399   3.703   2.753
 1282WAT     H1 4088   6.304   3.733   2.740
 1282WAT     H2 4089   6.402   3.633   2.824
 1283WAT      O 4090   6.098   1.514   4.080
 1283WAT     H1 4091   6.162   1.559   4.017
 1283WAT     H2 4092   6.150   1.458   4.145
 1284WAT      O 4093   2.741   5.646   8.367
 1284WAT     H1 4094   2.649   5.614   8.392
 1284WAT     H2 4095   2.746   5.658   8.268
 1285WAT      O 4096   3.502   2.764   2.149
 1285WAT     H1 4097   3.492   2.862   2.165
 1285WAT     H2 4098   3.577   2.729   2.205
 1286WAT      O 4099   1.795   6.656   6.718
 1286WAT     H1 4100   1.700   6.671   6.745
 1286WAT     H2 4101   1.813   6.704   6.632
 1287WAT      O 4102   8.654   9.497   3.451
 1287WAT     H1 4103   8.667   9.584   3.402
 1287WAT     H2 4104   8.594   9.438   3.397
 1288WAT      O 4105   5.369   5.714   8.770
 1288WAT     H1 4106   5.466   5.728   8.788
 1288WAT     H2 4107   5.354   5.622   8.735
 1289WAT      O 4108   5.933   5.156   0.886
 1289WAT     H1 4109   6.006   5.088   0.894
 1289WAT     H2 4110   5.870   5.128   0.814
 1290WAT      O 4111   0.057   0.372   9.595
 1290WAT     H1 4112   0.007   0.291   9.624
 1290WAT     H2 4113   0.102   0.353   9.507
 1291WAT      O 4114   2.182   4.538   3.632
 1291WAT     H1 4115   2.118   4.472   3.593
 1291WAT     H2 4116   2.203   4.511   3.726
 1292WAT      O 4117   4.988   7.875   1.468
 1292WAT     H1 4118   4.975   7.862   1.370
 1292WAT     H2 4119   5.030   7.964   1.486
 1293WAT      O 4120   6.159   1.362   0.510
 1293WAT     H1 4121   6.256   1.341   0.523
 1293WAT     H2 4122   6.108   1.277   0.495
 1294WAT      O 4123   7.325   6.552   8.317
 1294WAT     H1 4124   7.337   6.464   8.270
 1294WAT     H2 4125   7.251   6.603   8.273
 1295WAT      O 4126   8.402   3.114   6.788
 1295WAT     H1 4127   8.376   3.095   6.693
 1295WAT     H2 4128   8.320   3.135   6.841
 1296WAT      O 4129   5.636   0.912   0.938
 1296WAT     H1 4130   5.707   0.881   0.874
 1296WAT     H2 4131   5.648   0.866   1.026
 1297WAT      O 4132   0.641   7.105   8.381
 1297WAT     H1 4133   0.608   7.199   8.369
 1297WAT     H2 4134   0.727   7.093   8.332
 1298WAT      O 4135   7.421   6.443   5.966
 1298WAT     H1 4136   7.453   6.348   5.968
 1298WAT     H2 4137   7.355   6.455   5.892
 1299WAT      O 4138   7.157   5.940   3.961
 1299WAT     H1 4139   7.165   5.840   3.968
 1299WAT     H2 4140   7.100   5.963   3.883
 1300WAT      O 4141   0.731   4.258   0.763
 1300WAT     H1 4142   0.729   4.206   0.849
 1300WAT     H2 4143   0.739   4.356   0.783
 1301WAT      O 4144   1.661   0.095   2.517
 1301WAT     H1 4145   1.676   0.016   2.458
 1301WAT     H2 4146   1.747   0.143   2.532
 1302WAT      O 4147   0.318   8.903   3.872
 1302WAT     H1 4148   0.261   8.846   3.813
 1302WAT     H2 4149   0.414   8.880   3.858
 1303WAT      O 4150   3.402   8.347   1.710
 1303WAT     H1 4151   3.499   8.340   1.734
 1303WAT     H2 4152   3.347   8.342   1.794
 1304WAT      O 4153   8.534   4.732   5.925
 1304WAT     H1 4154   8.535   4.825   5.962
 1304WAT     H2 4155   8.585   4.671   5.986
 1305WAT      O 4156   1.398   7.603   9.392
 1305WAT     H1 4157   1.386   7.514   9.436
 1305WAT     H2 4158   1.483   7.603   9.340
 1306WAT      O 4159   3.875   4.281   5.897
 1306WAT     H1 4160   3.784   4.305   5.863
 1306WAT     H2 4161   3.933   4.253   5.821
 1307WAT      O 4162   6.761   9.300   2.330
 1307WAT     H1 4163   6.661   9.303   2.323
 1307WAT     H2 4164   6.789   9.346   2.415
 1308WAT      O 4165   6.616   0.701   3.227
 1308WAT     H1 4166   6.595   0.694   3.325
 1308WAT     H2 4167   6.714   0.715   3.215
 1309WAT      O 4168   6.949   6.055   0.457
 1309WAT     H1 4169   7.009   6.134   0.464
 1309WAT     H2 4170   6.968   5.991   0.531
 1310WAT      O 4171   2.426   2.985   6.378
 1310WAT     H1 4172   2.526   2.982   6.369
 1310WAT     H2 4173   2.385   2.913   6.321
 1311WAT      O 4174   2.083   4.443   2.254
 1311WAT     H1 4175   2.089   4.513   2.182
 1311WAT     H2 4176   2.165   4.387   2.253
 1312WAT      O 4177   5.385   9.247   3.616
 1312WAT     H1 4178   5.403   9.253   3.518
 1312WAT     H2 4179   5.306   9.187   3.631
 1313WAT      O 4180   3.767   4.608   4.117
 1313WAT     H1 4181   3.821   4.671   4.061
 1313WAT     H2 4182   3.784   4.514   4.087
 1314WAT      O 4183   3.267   8.871   6.548
 1314WAT     H1 4184   3.218   8.958   6.545
 1314WAT     H2 4185   3.341   8.872   6.480
 1315WAT      O 4186   5.139   0.199   7.985
 1315WAT     H1 4187   5.040   0.199   7.974
 1315WAT     H2 4188   5.175   0.290   7.967
 1316WAT      O 4189   3.312   5.423   7.143
 1316WAT     H1 4190   3.298   5.499   7.079
 1316WAT     H2 4191   3.384   5.448   7.208
 1317WAT      O 4192   5.605   3.768   8.825
 1317WAT     H1 4193   5.638   3.756   8.731
 1317WAT     H2 4194   5.596   3.865   8.845
 1318WAT      O 4195   0.480   1.269   9.556
 1318WAT     H1 4196   0.393   1.231   9.527
 1318WAT     H2 4197   0.465   1.357   9.601
 1319WAT      O 4198   5.346   8.137   1.594
 1319WAT     H1 4199   5.398   8.055   1.570
 1319WAT     H2 4200   5.404   8.199   1.646
 1320WAT      O 4201   4.418   8.834   7.526
 1320WAT     H1 4202   4.438   8.811   7.621
 1320WAT     H2 4203   4.373   8.757   7.481
 1321WAT      O 4204   0.084   3.070   4.887
 1321WAT     H1 4205   0.081   3.075   4.787
 1321WAT     H2 4206   0.173   3.035   4.917
 1322WAT      O 4207   0.263   7.758   3.325
 1322WAT     H1 4208   0.247   7.670   3.371
 1322WAT     H2 4209   0.279   7.828   3.394
 1323WAT      O 4210   4.997   4.959   8.737
 1323WAT     H1 4211   5.006   5.045   8.687
 1323WAT     H2 4212   5.084   4.911   8.736
 1324WAT      O 4213   6.676   2.824   6.220
 1324WAT     H1 4214   6.649   2.797   6.312
 1324WAT     H2 4215   6.616   2.780   6.153
 1325WAT      O 4216   5.370   3.399   0.511
 1325WAT     H1 4217   5.381   3.401   0.411
 1325WAT     H2 4218   5.456   3.425   0.554
 1326WAT      O 4219   5.945   4.527   2.758
 1326WAT     H1 4220   5.877   4.478   2.705
 1326WAT     H2 4221   6.036   4.493   2.735
 1327WAT      O 4222   6.885   2.784   5.352
 1327WAT     H1 4223   6.948   2.776   5.429
 1327WAT     H2 4224   6.828   2.866   5.364
 1328WAT      O 4225   7.236   4.101   5.795
 1328WAT     H1 4226   7.184   4.018   5.778
 1328WAT     H2 4227   7.300   4.117   5.720
 1329WAT      O 4228   3.275   0.613   6.636
 1329WAT     H1 4229   3.178   0.588   6.631
 1329WAT     H2 4230   3.288   0.704   6.599
 1330WAT      O 4231   5.858   8.056   9.891
 1330WAT     H1 4232   5.907   8.141   9.909
 1330WAT     H2 4233   5.921   7.988   9.854
 1331WAT      O 4234   4.715   5.532   2.800
 1331WAT     H1 4235   4.727   5.609   2.739
 1331WAT     H2 4236   4.775   5.541   2.879
 1332WAT      O 4237   3.771   4.794   5.760
 1332WAT     H1 4238   3.678   4.817   5.790
 1332WAT     H2 4239   3.832   4.871   5.781
 1333WAT      O 4240   5.170   5.962   1.611
 1333WAT     H1 4241   5.211   6.015   1.537
 1333WAT     H2 4242   5.242   5.917   1.664
 1334WAT      O 4243   8.689   1.563   8.215
 1334WAT     H1 4244   8.732   1.652   8.199
 1334WAT     H2 4245   8.638   1.565   8.300
 1335WAT      O 4246   1.195   0.908   4.958
 1335WAT     H1 4247   1.261   0.845   4.999
 1335WAT     H2 4248   1.169   0.978   5.024
 1336WAT      O 4249   6.610   7.785   1.323
 1336WAT     H1 4250   6.589   7.840   1.404
 1336WAT     H2 4251   6.664   7.839   1.259
 1337WAT      O 4252   2.449   5.181   7.871
 1337WAT     H1 4253   2.466   5.117   7.796
 1337WAT     H2 4254   2.465   5.275   7.839
 1338WAT      O 4255   2.090   2.817   0.810
 1338WAT     H1 4256   2.069   2.914   0.818
 1338WAT     H2 4257   2.033   2.766   0.875
 1339WAT      O 4258   2.133   4.168   3.889
 1339WAT     H1 4259   2.110   4.131   3.799
 1339WAT     H2 4260   2.192   4.104   3.938
 1340WAT      O 4261   6.836   5.153   1.378
 1340WAT     H1 4262   6.932   5.172   1.397
 1340WAT     H2 4263   6.807   5.073   1.431
 1341WAT      O 4264   7.395   1.954   4.567
 1341WAT     H1 4265   7.487   1.915   4.565
 1341WAT     H2 4266   7.350   1.938   4.480
 1342WAT      O 4267   2.912   8.380   0.962
 1342WAT     H1 4268   2.928   8.478   0.971
 1342WAT     H2 4269   2.998   8.333   0.944
 1343WAT      O 4270   7.312   1.954   7.719
 1343WAT     H1 4271   7.241   1.985   7.657
 1343WAT     H2 4272   7.372   1.890   7.672
 1344WAT      O 4273   9.556   8.647   3.796
 1344WAT     H1 4274   9.525   8.555   3.772
 1344WAT     H2 4275   9.568   8.653   3.895
 1345WAT      O 4276   3.580   5.504   7.796
 1345WAT     H1 4277   3.614   5.410   7.807
 1345WAT     H2 4278   3.570   5.547   7.885
 1346WAT      O 4279   7.857   2.660   1.288
 1346WAT     H1 4280   7.817   2.579   1.245
 1346WAT     H2 4281   7.927   2.632   1.353
 1347WAT      O 4282   3.141   3.488   5.363
 1347WAT     H1 4283   3.123   3.555   5.290
 1347WAT     H2 4284   3.239   3.473   5.370
 1348WAT      O 4285   0.373   5.226   8.675
 1348WAT     H1 4286   0.465   5.190   8.683
 1348WAT     H2 4287   0.307   5.159   8.710
 1349WAT      O 4288   8.957   8.112   1.831
 1349WAT     H1 4289   8.901   8.059   1.767
 1349WAT     H2 4290   8.928   8.208   1.828
 1350WAT      O 4291   0.396   6.855   0.840
 1350WAT     H1 4292   0.330   6.890   0.906
 1350WAT     H2 4293   0.489   6.876   0.872
 1351WAT      O 4294   2.737   7.854   0.415
 1351WAT     H1 4295   2.822   7.887   0.455
 1351WAT     H2 4296   2.693   7.928   0.364
 1352WAT      O 4297   3.844   6.958   2.553
 1352WAT     H1 4298   3.829   6.914   2.464
 1352WAT     H2 4299   3.766   7.019   2.573
 1353WAT      O 4300   8.045   8.141   9.101
 1353WAT     H1 4301   8.056   8.112   9.196
 1353WAT     H2 4302   8.000   8.231   9.099
 1354WAT      O 4303   5.748   5.504   4.228
 1354WAT     H1 4304   5.683   5.556   4.284
 1354WAT     H2 4305   5.796   5.438   4.285
 1355WAT      O 4306   4.752   8.514   3.298
 1355WAT     H1 4307   4.691   8.520   3.219
 1355WAT     H2 4308   4.766   8.606   3.336
 1356WAT      O 4309   8.565   6.119   8.179
 1356WAT     H1 4310   8.488   6.067   8.141
 1356WAT     H2 4311   8.621   6.059   8.235
 1357WAT      O 4312   5.731   5.347   9.683
 1357WAT     H1 4313   5.651   5.300   9.720
 1357WAT     H2 4314   5.712   5.378   9.590
 1358WAT      O 4315   2.025   2.203   8.972
 1358WAT     H1 4316   1.927   2.223   8.977
 1358WAT     H2 4317   2.077   2.288   8.970
 1359WAT      O 4318   2.857   6.840   8.815
 1359WAT     H1 4319   2.943   6.804   8.778
 1359WAT     H2 4320   2.802   6.764   8.850
 1360WAT      O 4321   6.111   7.469   9.814
 1360WAT     H1 4322   6.123   7.479   9.715
 1360WAT     H2 4323   6.193   7.501   9.861
 1361WAT      O 4324   3.400   8.338   8.960
 1361WAT     H1 4325   3.374   8.261   8.901
 1361WAT     H2 4326   3.467   8.395   8.912
 1362WAT      O 4327   6.149   6.181   7.734
 1362WAT     H1 4328   6.095   6.153   7.655
 1362WAT     H2 4329   6.238   6.134   7.732
 1363WAT      O 4330   2.189   0.355   2.841
 1363WAT     H1 4331   2.216   0.367   2.936
 1363WAT     H2 4332   2.125   0.278   2.834
 1364WAT      O 4333   2.499   7.587   2.698
 1364WAT     H1 4334   2.424   7.526   2.676
 1364WAT     H2 4335   2.559   7.544   2.766
 1365WAT      O 4336   2.302   1.898   5.753
 1365WAT     H1 4337   2.324   1.955   5.674
 1365WAT     H2 4338   2.329   1.945   5.837
 1366WAT      O 4339   8.212   3.455   2.610
 1366WAT     H1 4340   8.298   3.500   2.635
 1366WAT     H2 4341   8.136   3.518   2.625
 1367WAT      O 4342   9.597   4.787   7.569
 1367WAT     H1 4343   9.696   4.791   7.566
 1367WAT     H2 4344   9.565   4.715   7.507
 1368WAT      O 4345   3.826   8.100   7.348
 1368WAT     H1 4346   3.829   8.141   7.257
 1368WAT     H2 4347   3.767   8.019   7.347
 1369WAT      O 4348   6.156   1.199   5.547
 1369WAT     H1 4349   6.146   1.137   5.470
 1369WAT     H2 4350   6.184   1.147   5.628
 1370WAT      O 4351   4.254   7.173   1.749
 1370WAT     H1 4352   4.275   7.268   1.773
 1370WAT     H2 4353   4.285   7.112   1.822
 1371WAT      O 4354   2.701   8.229   5.973
 1371WAT     H1 4355   2.669   8.172   6.048
 1371WAT     H2 4356   2.800   8.221   5.964
 1372WAT      O 4357   3.015   7.815   3.561
 1372WAT     H1 4358   3.109   7.813   3.593
 1372WAT     H2 4359   2.986   7.722   3.536
 1373WAT      O 4360   8.274   3.328   4.919
 1373WAT     H1 4361   8.318   3.283   4.997
 1373WAT     H2 4362   8.241   3.259   4.855
 1374WAT      O 4363   6.838   0.144   7.424
 1374WAT     H1 4364   6.869   0.051   7.403
 1374WAT     H2 4365   6.885   0.177   7.506
 1375WAT      O 4366   7.306   6.647   8.935
 1375WAT     H1 4367   7.247   6.717   8.895
 1375WAT     H2 4368   7.396   6.650   8.890
 1376WAT      O 4369   7.810   4.118   5.851
 1376WAT     H1 4370   7.806   4.205   5.900
 1376WAT     H2 4371   7.763   4.047   5.904
 1377WAT      O 4372   4.166   4.981   4.617
 1377WAT     H1 4373   4.165   4.975   4.517
 1377WAT     H2 4374   4.225   4.909   4.654
 1378WAT      O 4375   2.440   3.592   7.936
 1378WAT     H1 4376   2.537   3.619   7.944
 1378WAT     H2 4377   2.403   3.576   8.027
 1379WAT      O 4378   9.012   4.276   4.004
 1379WAT     H1 4379   8.980   4.261   4.097
 1379WAT     H2 4380   9.107   4.246   3.996
 1380WAT      O 4381   9.340   8.278   9.583
 1380WAT     H1 4382   9.340   8.179   9.598
 1380WAT     H2 4383   9.372   8.297   9.490
 1381WAT      O 4384   1.162   8.574   8.601
 1381WAT     H1 4385   1.218   8.620   8.670
 1381WAT     H2 4386   1.170   8.475   8.613
 1382WAT      O 4387   3.982   4.154   4.318
 1382WAT     H1 4388   4.046   4.095   4.269
 1382WAT     H2 4389   3.963   4.236   4.264
 1383WAT      O 4390   7.017   5.251   9.663
 1383WAT     H1 4391   6.990   5.329   9.606
 1383WAT     H2 4392   7.061   5.182   9.606
 1384WAT      O 4393   3.562   6.573   8.310
 1384WAT     H1 4394   3.640   6.534   8.360
 1384WAT     H2 4395   3.591   6.656   8.263
 1385WAT      O 4396   7.444   6.140   5.271
 1385WAT     H1 4397   7.437   6.212   5.341
 1385WAT     H2 4398   7.457   6.052   5.316
 1386WAT      O 4399   9.657   9.058   5.499
 1386WAT     H1 4400   9.652   9.014   5.588
 1386WAT     H2 4401   9.649   8.988   5.427
 1387WAT      O 4402   9.200   5.458   2.753
 1387WAT     H1 4403   9.274   5.391   2.763
 1387WAT     H2 4404   9.177   5.469   2.657
 1388WAT      O 4405   6.410   0.728   9.198
 1388WAT     H1 4406   6.509   0.726   9.217
 1388WAT     H2 4407   6.374   0.818   9.222
 1389WAT      O 4408   7.566   2.689   0.397
 1389WAT     H1 4409   7.586   2.689   0.299
 1389WAT     H2 4410   7.601   2.605   0.437
 1390WAT      O 4411   4.555   9.327   5.183
 1390WAT     H1 4412   4.637   9.270   5.177
 1390WAT     H2 4413   4.581   9.420   5.207
 1391WAT      O 4414   0.845   2.121   6.772
 1391WAT     H1 4415   0.754   2.151   6.801
 1391WAT     H2 4416   0.876   2.177   6.695
 1392WAT      O 4417   0.868   1.721   3.738
 1392WAT     H1 4418   0.810   1.757   3.811
 1392WAT     H2 4419   0.814   1.714   3.654
 1393WAT      O 4420   6.618   9.546   7.524
 1393WAT     H1 4421   6.666   9.515   7.606
 1393WAT     H2 4422   6.673   9.526   7.443
 1394WAT      O 4423   1.635   1.130   8.833
 1394WAT     H1 4424   1.631   1.059   8.903
 1394WAT     H2 4425   1.557   1.120   8.772
 1395WAT      O 4426   7.610   4.265   4.316
 1395WAT     H1 4427   7.583   4.253   4.411
 1395WAT     H2 4428   7.602   4.178   4.268
 1396WAT      O 4429   6.469   3.641   3.574
 1396WAT     H1 4430   6.560   3.657   3.612
 1396WAT     H2 4431   6.433   3.727   3.538
 1397WAT      O 4432   8.692   4.220   3.718
 1397WAT     H1 4433   8.596   4.191   3.722
 1397WAT     H2 4434   8.736   4.179   3.638
 1398WAT      O 4435   4.259   0.403   3.240
 1398WAT     H1 4436   4.308   0.397   3.153
 1398WAT     H2 4437   4.173   0.352   3.234
 1399WAT      O 4438   3.649   0.560   3.705
 1399WAT     H1 4439   3.554   0.580   3.730
 1399WAT     H2 4440   3.674   0.612   3.624
 1400WAT      O 4441   6.236   7.722   7.018
 1400WAT     H1 4442   6.260   7.626   7.008
 1400WAT     H2 4443   6.247   7.750   7.114
 1401WAT      O 4444   7.390   8.167   1.762
 1401WAT     H1 4445   7.301   8.186   1.720
 1401WAT     H2 4446   7.427   8.251   1.802
 1402WAT      O 4447   5.656   5.950   4.324
 1402WAT     H1 4448   5.721   6.018   4.289
 1402WAT     H2 4449   5.600   5.992   4.396
 1403WAT      O 4450   5.871   3.292   6.074
 1403WAT     H1 4451   5.921   3.223   6.023
 1403WAT     H2 4452   5.897   3.383   6.042
 1404WAT      O 4453   1.415   5.922   3.105
 1404WAT     H1 4454   1.393   5.969   3.190
 1404WAT     H2 4455   1.513   5.931   3.087
 1405WAT      O 4456   0.533   9.799   8.554
 1405WAT     H1 4457   0.573   9.707   8.549
 1405WAT     H2 4458   0.476   9.807   8.636
 1406WAT      O 4459   0.561   3.663   6.510
 1406WAT     H1 4460   0.559   3.691   6.415
 1406WAT     H2 4461   0.607   3.733   6.565
 1407WAT      O 4462   2.255   2.513   4.147
 1407WAT     H1 4463   2.247   2.484   4.051
 1407WAT     H2 4464   2.289   2.607   4.151
 1408WAT      O 4465   7.341   0.877   6.691
 1408WAT     H1 4466   7.337   0.923   6.602
 1408WAT     H2 4467   7.400   0.796   6.684
 1409WAT      O 4468   7.928   1.856   8.302
 1409WAT     H1 4469   7.971   1.926   8.245
 1409WAT     H2 4470   7.896   1.781   8.244
 1410WAT      O 4471   8.687   1.045   8.527
 1410WAT     H1 4472   8.737   1.099   8.594
 1410WAT     H2 4473   8.608   1.003   8.571
 1411WAT      O 4474   3.028   2.649   7.491
 1411WAT     H1 4475   3.052   2.706   7.570
 1411WAT     H2 4476   2.937   2.675   7.458
 1412WAT      O 4477   7.558   8.488   7.392
 1412WAT     H1 4478   7.603   8.552   7.455
 1412WAT     H2 4479   7.580   8.513   7.298
 1413WAT      O 4480   0.712   0.981   5.520
 1413WAT     H1 4481   0.809   1.005   5.528
 1413WAT     H2 4482   0.691   0.907   5.583
 1414WAT      O 4483   5.788   3.037   8.810
 1414WAT     H1 4484   5.763   2.980   8.888
 1414WAT     H2 4485   5.828   3.123   8.843
 1415WAT      O 4486   3.519   6.433   4.053
 1415WAT     H1 4487   3.535   6.352   4.109
 1415WAT     H2 4488   3.603   6.487   4.047
 1416WAT      O 4489   2.132   6.321   1.033
 1416WAT     H1 4490   2.161   6.232   1.001
 1416WAT     H2 4491   2.061   6.357   0.972
 1417WAT      O 4492   7.893   9.384   5.293
 1417WAT     H1 4493   7.973   9.421   5.340
 1417WAT     H2 4494   7.903   9.285   5.283
 1418WAT      O 4495   5.078   3.849   1.197
 1418WAT     H1 4496   5.123   3.798   1.124
 1418WAT     H2 4497   5.130   3.839   1.282
 1419WAT      O 4498   1.863   7.770   7.914
 1419WAT     H1 4499   1.929   7.725   7.853
 1419WAT     H2 4500   1.834   7.856   7.874
 1420WAT      O 4501   4.973   9.774   8.020
 1420WAT     H1 4502   4.978   9.864   7.977
 1420WAT     H2 4503   4.922   9.780   8.106
 1421WAT      O 4504   2.800   0.529   0.431
 1421WAT     H1 4505   2.714   0.537   0.380
 1421WAT     H2 4506   2.806   0.605   0.497
 1422WAT      O 4507   1.261   3.971   7.333
 1422WAT     H1 4508   1.244   3.879   7.298
 1422WAT     H2 4509   1.342   4.009   7.288
 1423WAT      O 4510   4.129   4.390   1.712
 1423WAT     H1 4511   4.111   4.306   1.661
 1423WAT     H2 4512   4.104   4.469   1.657
 1424WAT      O 4513   6.601   1.934   7.174
 1424WAT     H1 4514   6.535   1.886   7.232
 1424WAT     H2 4515   6.691   1.930   7.217
 1425WAT      O 4516   5.339   7.306   6.238
 1425WAT     H1 4517   5.375   7.216   6.210
 1425WAT     H2 4518   5.408   7.352   6.294
 1426WAT      O 4519   9.230   3.748   6.266
 1426WAT     H1 4520   9.288   3.794   6.198
 1426WAT     H2 4521   9.283   3.730   6.348
 1427WAT      O 4522   6.512   8.296   8.838
 1427WAT     H1 4523   6.534   8.199   8.822
 1427WAT     H2 4524   6.446   8.327   8.770
 1428WAT      O 4525   6.917   5.992   9.669
 1428WAT     H1 4526   6.905   6.020   9.764
 1428WAT     H2 4527   6.830   5.997   9.622
 1429WAT      O 4528   2.023   8.685   7.219
 1429WAT     H1 4529   2.075   8.599   7.220
 1429WAT     H2 4530   2.075   8.754   7.168
 1430WAT      O 4531   3.016   6.802   4.123
 1430WAT     H1 4532   3.113   6.799   4.148
 1430WAT     H2 4533   2.961   6.766   4.199
 1431WAT      O 4534   0.327   4.485   7.861
 1431WAT     H1 4535   0.317   4.414   7.932
 1431WAT     H2 4536   0.337   4.441   7.772
 1432WAT      O 4537   9.056   2.321   3.478
 1432WAT     H1 4538   9.138   2.275   3.443
 1432WAT     H2 4539   9.054   2.415   3.443
 1433WAT      O 4540   1.705   5.967   2.468
 1433WAT     H1 4541   1.680   6.053   2.424
 1433WAT     H2 4542   1.637   5.945   2.539
 1434WAT      O 4543   5.461   6.583   5.545
 1434WAT     H1 4544   5.428   6.559   5.636
 1434WAT     H2 4545   5.537   6.523   5.520
 1435WAT      O 4546   0.015   0.444   3.672
 1435WAT     H1 4547  -0.012   0.436   3.768
 1435WAT     H2 4548   0.034   0.353   3.635
 1436WAT      O 4549   9.761   7.321   0.877
 1436WAT     H1 4550   9.848   7.367   0.895
 1436WAT     H2 4551   9.750   7.308   0.778
 1437WAT      O 4552   2.752   9.722   1.958
 1437WAT     H1 4553   2.739   9.683   1.867
 1437WAT     H2 4554   2.692   9.674   2.023
 1438WAT      O 4555   0.347   1.913   9.813
 1438WAT     H1 4556   0.372   1.990   9.872
 1438WAT     H2 4557   0.342   1.943   9.718
 1439WAT      O 4558   6.747   9.501   4.103
 1439WAT     H1 4559   6.740   9.581   4.162
 1439WAT     H2 4560   6.682   9.509   4.028
 1440WAT      O 4561   5.169   2.327   6.216
 1440WAT     H1 4562   5.084   2.277   6.200
 1440WAT     H2 4563   5.245   2.263   6.222
 1441WAT      O 4564   3.395   5.387   2.032
 1441WAT     H1 4565   3.315   5.441   2.058
 1441WAT     H2 4566   3.366   5.296   2.004
 1442WAT      O 4567   0.184   7.899   2.602
 1442WAT     H1 4568   0.088   7.885   2.578
 1442WAT     H2 4569   0.242   7.867   2.527
 1443WAT      O 4570   3.236   7.824   5.352
 1443WAT     H1 4571   3.222   7.781   5.441
 1443WAT     H2 4572   3.329   7.861   5.347
 1444WAT      O 4573   7.889   0.572   0.230
 1444WAT     H1 4574   7.859   0.491   0.179
 1444WAT     H2 4575   7.809   0.624   0.259
 1445WAT      O 4576   6.476   9.192   7.526
 1445WAT     H1 4577   6.418   9.238   7.593
 1445WAT     H2 4578   6.572   9.207   7.549
 1446WAT      O 4579   2.671   5.261   6.052
 1446WAT     H1 4580   2.669   5.183   6.115
 1446WAT     H2 4581   2.693   5.344   6.103
 1447WAT      O 4582   4.255   8.299   9.394
 1447WAT     H1 4583   4.191   8.223   9.383
 1447WAT     H2 4584   4.217   8.380   9.349
 1448WAT      O 4585   7.994   4.651   6.104
 1448WAT     H1 4586   7.986   4.610   6.013
 1448WAT     H2 4587   7.903   4.680   6.135
 1449WAT      O 4588   5.343   3.607   6.734
 1449WAT     H1 4589   5.256   3.563   6.712
 1449WAT     H2 4590   5.416   3.568   6.677
 1450WAT      O 4591   9.141   5.859   2.213
 1450WAT     H1 4592   9.221   5.822   2.258
 1450WAT     H2 4593   9.101   5.790   2.152
 1451WAT      O 4594   9.563   2.348   2.638
 1451WAT     H1 4595   9.596   2.305   2.722
 1451WAT     H2 4596   9.532   2.277   2.575
 1452WAT      O 4597   6.393   4.396   0.537
 1452WAT     H1 4598   6.439   4.307   0.530
 1452WAT     H2 4599   6.333   4.396   0.617
 1453WAT      O 4600   7.678   8.598   4.507
 1453WAT     H1 4601   7.721   8.677   4.550
 1453WAT     H2 4602   7.579   8.604   4.518
 1454WAT      O 4603   0.600   4.657   6.336
 1454WAT     H1 4604   0.607   4.757   6.346
 1454WAT     H2 4605   0.588   4.615   6.426
 1455WAT      O 4606   1.932   4.486   4.035
 1455WAT     H1 4607   1.903   4.390   4.034
 1455WAT     H2 4608   2.026   4.492   4.071
 1456WAT      O 4609   6.494   4.286   7.098
 1456WAT     H1 4610   6.435   4.347   7.046
 1456WAT     H2 4611   6.519   4.207   7.041
 1457WAT      O 4612   0.515   1.476   8.369
 1457WAT     H1 4613   0.518   1.384   8.329
 1457WAT     H2 4614   0.593   1.488   8.430
 1458WAT      O 4615   0.710   3.855   6.644
 1458WAT     H1 4616   0.729   3.950   6.619
 1458WAT     H2 4617   0.774   3.826   6.716
 1459WAT      O 4618   3.399   4.163   6.680
 1459WAT     H1 4619   3.472   4.204   6.734
 1459WAT     H2 4620   3.422   4.167   6.583
 1460WAT      O 4621   4.829   0.505   2.474
 1460WAT     H1 4622   4.878   0.447   2.408
 1460WAT     H2 4623   4.838   0.466   2.565
 1461WAT      O 4624   7.482   2.005   2.695
 1461WAT     H1 4625   7.452   1.949   2.773
 1461WAT     H2 4626   7.465   1.955   2.610
 1462WAT      O 4627   9.542   0.908   3.808
 1462WAT     H1 4628   9.590   0.849   3.742
 1462WAT     H2 4629   9.573   0.886   3.900
 1463WAT      O 4630   8.205   7.863   6.634
 1463WAT     H1 4631   8.232   7.796   6.566
 1463WAT     H2 4632   8.105   7.875   6.631
 1464WAT      O 4633   4.756   5.381   7.857
 1464WAT     H1 4634   4.759   5.455   7.924
 1464WAT     H2 4635   4.667   5.335   7.862
 1465WAT      O 4636   6.151   0.702   7.063
 1465WAT     H1 4637   6.139   0.647   6.981
 1465WAT     H2 4638   6.145   0.643   7.144
 1466WAT      O 4639   4.899   7.424   7.072
 1466WAT     H1 4640   4.997   7.422   7.053
 1466WAT     H2 4641   4.884   7.398   7.168
 1467WAT      O 4642   2.431   7.711   3.944
 1467WAT     H1 4643   2.448   7.638   3.878
 1467WAT     H2 4644   2.517   7.757   3.966
 1468WAT      O 4645   8.306   9.665   7.917
 1468WAT     H1 4646   8.224   9.641   7.866
 1468WAT     H2 4647   8.340   9.584   7.965
 1469WAT      O 4648   1.891   7.114   1.473
 1469WAT     H1 4649   1.928   7.061   1.549
 1469WAT     H2 4650   1.800   7.149   1.497
 1470WAT      O 4651   5.620   5.521   8.671
 1470WAT     H1 4652   5.626   5.574   8.756
 1470WAT     H2 4653   5.712   5.509   8.633
 1471WAT      O 4654   7.182   7.942   2.701
 1471WAT     H1 4655   7.164   7.971   2.607
 1471WAT     H2 4656   7.261   7.993   2.736
 1472WAT      O 4657   1.753   4.371   2.056
 1472WAT     H1 4658   1.834   4.415   2.019
 1472WAT     H2 4659   1.769   4.345   2.152
 1473WAT      O 4660   7.935   3.804   4.148
 1473WAT     H1 4661   7.901   3.875   4.086
 1473WAT     H2 4662   7.861   3.772   4.207
 1474WAT      O 4663   6.252   7.003   8.565
 1474WAT     H1 4664   6.180   6.937   8.545
 1474WAT     H2 4665   6.236   7.086   8.513
 1475WAT      O 4666   9.822   3.484   1.934
 1475WAT     H1 4667   9.875   3.399   1.927
 1475WAT     H2 4668   9.838   3.539   1.853
 1476WAT      O 4669   0.602   4.663   0.270
 1476WAT     H1 4670   0.613   4.666   0.171
 1476WAT     H2 4671   0.510   4.695   0.295
 1477WAT      O 4672   6.758   2.412   4.788
 1477WAT     H1 4673   6.692   2.415   4.863
 1477WAT     H2 4674   6.851   2.405   4.825
 1478WAT      O 4675   8.827   1.642   6.822
 1478WAT     H1 4676   8.889   1.626   6.898
 1478WAT     H2 4677   8.753   1.703   6.852
 1479WAT      O 4678   8.921   3.488   1.798
 1479WAT     H1 4679   8.966   3.423   1.738
 1479WAT     H2 4680   8.927   3.456   1.893
 1480WAT      O 4681   2.931   5.266   5.617
 1480WAT     H1 4682   2.902   5.270   5.712
 1480WAT     H2 4683   2.854   5.288   5.557
 1481WAT      O 4684   8.847   7.906   1.417
 1481WAT     H1 4685   8.912   7.871   1.349
 1481WAT     H2 4686   8.754   7.884   1.388
 1482WAT      O 4687   2.931   0.712   1.548
 1482WAT     H1 4688   2.976   0.685   1.633
 1482WAT     H2 4689   2.952   0.647   1.476
 1483WAT      O 4690   2.250   7.940   2.474
 1483WAT     H1 4691   2.308   7.903   2.547
 1483WAT     H2 4692   2.278   8.034   2.454
 1484WAT      O 4693   8.127   9.075   8.032
 1484WAT     H1 4694   8.098   9.071   8.128
 1484WAT     H2 4695   8.227   9.081   8.028
 1485WAT      O 4696   8.820   2.516   7.273
 1485WAT     H1 4697   8.783   2.567   7.195
 1485WAT     H2 4698   8.912   2.548   7.293
 1486WAT      O 4699   0.905   7.204   7.043
 1486WAT     H1 4700   0.929   7.245   6.955
 1486WAT     H2 4701   0.808   7.179   7.043
 1487WAT      O 4702   5.904   4.036   5.950
 1487WAT     H1 4703   5.981   3.972   5.946
 1487WAT     H2 4704   5.848   4.026   5.869
 1488WAT      O 4705   8.787   2.246   0.348
 1488WAT     H1 4706   8.848   2.219   0.422
 1488WAT     H2 4707   8.707   2.185   0.347
 1489WAT      O 4708   0.013   8.921   8.178
 1489WAT     H1 4709   0.101   8.877   8.197
 1489WAT     H2 4710  -0.061   8.854   8.185
 1490WAT      O 4711   8.795   3.216   7.666
 1490WAT     H1 4712   8.857   3.138   7.663
 1490WAT     H2 4713   8.843   3.296   7.699
 1491WAT      O 4714   7.643   2.174   4.448
 1491WAT     H1 4715   7.569   2.136   4.392
 1491WAT     H2 4716   7.604   2.236   4.516
 1492WAT      O 4717   5.279   7.003   4.386
 1492WAT     H1 4718   5.213   6.941   4.427
 1492WAT     H2 4719   5.284   6.987   4.288
 1493WAT      O 4720   2.461   0.189   4.173
 1493WAT     H1 4721   2.402   0.256   4.128
 1493WAT     H2 4722   2.424   0.097   4.158
 1494WAT      O 4723   0.123   3.193   1.209
 1494WAT     H1 4724   0.187   3.269   1.197
 1494WAT     H2 4725   0.038   3.213   1.160
 1495WAT      O 4726   3.089   6.270   4.955
 1495WAT     H1 4727   3.070   6.343   4.890
 1495WAT     H2 4728   3.012   6.206   4.957
 1496WAT      O 4729   0.741   2.271   7.924
 1496WAT     H1 4730   0.750   2.308   8.016
 1496WAT     H2 4731   0.655   2.304   7.883
 1497WAT      O 4732   0.735   9.123   2.770
 1497WAT     H1 4733   0.710   9.044   2.826
 1497WAT     H2 4734   0.652   9.168   2.736
 1498WAT      O 4735   8.421   4.167   0.914
 1498WAT     H1 4736   8.399   4.239   0.848
 1498WAT     H2 4737   8.519   4.147   0.910
 1499WAT      O 4738   7.496   6.372   6.400
 1499WAT     H1 4739   7.466   6.298   6.460
 1499WAT     H2 4740   7.459   6.459   6.434
 1500WAT      O 4741   3.475   1.828   4.836
 1500WAT     H1 4742   3.451   1.738   4.799
 1500WAT     H2 4743   3.450   1.831   4.933
 1501WAT      O 4744   4.807   0.006   1.812
 1501WAT     H1 4745   4.811  -0.013   1.910
 1501WAT     H2 4746   4.889   0.057   1.785
 1502WAT      O 4747   3.934   7.419   1.588
 1502WAT     H1 4748   3.953   7.411   1.686
 1502WAT     H2 4749   3.837   7.438   1.574
 1503WAT      O 4750   5.173   0.792   0.950
 1503WAT     H1 4751   5.126   0.831   0.871
 1503WAT     H2 4752   5.181   0.862   1.021
 1504WAT      O 4753   6.522   1.199   1.362
 1504WAT     H1 4754   6.605   1.255   1.359
 1504WAT     H2 4755   6.448   1.246   1.312
 1505WAT      O 4756   0.734   0.108   6.129
 1505WAT     H1 4757   0.730   0.201   6.167
 1505WAT     H2 4758   0.824   0.093   6.088
 1506WAT      O 4759   8.192   4.166   4.006
 1506WAT     H1 4760   8.224   4.095   3.943
 1506WAT     H2 4761   8.246   4.162   4.090
 1507WAT      O 4762   2.139   4.839   2.610
 1507WAT     H1 4763   2.122   4.920   2.554
 1507WAT     H2 4764   2.086   4.762   2.575
 1508WAT      O 4765   3.094   4.506   3.989
 1508WAT     H1 4766   3.118   4.446   3.912
 1508WAT     H2 4767   3.006   4.550   3.971
 1509WAT      O 4768   0.879   0.127   7.324
 1509WAT     H1 4769   0.877   0.049   7.261
 1509WAT     H2 4770   0.901   0.210   7.273
 1510WAT      O 4771   5.399   7.007   6.201
 1510WAT     H1 4772   5.492   6.971   6.189
 1510WAT     H2 4773   5.362   6.974   6.287
 1511WAT      O 4774   1.311   8.160   1.928
 1511WAT     H1 4775   1.401   8.193   1.956
 1511WAT     H2 4776   1.241   8.223   1.961
 1512WAT      O 4777   9.246   3.018   6.034
 1512WAT     H1 4778   9.275   3.007   6.129
 1512WAT     H2 4779   9.323   3.000   5.973
 1513WAT      O 4780   2.468   9.214   2.547
 1513WAT     H1 4781   2.517   9.301   2.550
 1513WAT     H2 4782   2.511   9.154   2.480
 1514WAT      O 4783   4.173   9.669   0.766
 1514WAT     H1 4784   4.268   9.692   0.744
 1514WAT     H2 4785   4.166   9.572   0.787
 1515WAT      O 4786   5.753   2.633   8.177
 1515WAT     H1 4787   5.779   2.720   8.136
 1515WAT     H2 4788   5.670   2.644   8.231
 1516WAT      O 4789   9.441   4.699   3.022
 1516WAT     H1 4790   9.482   4.760   2.954
 1516WAT     H2 4791   9.347   4.727   3.041
 1517WAT      O 4792   8.949   5.987   8.689
 1517WAT     H1 4793   8.894   5.984   8.773
 1517WAT     H2 4794   8.893   6.019   8.613
 1518WAT      O 4795   2.925   5.363   7.008
 1518WAT     H1 4796   2.852   5.431   7.009
 1518WAT     H2 4797   2.941   5.329   7.100
 1519WAT      O 4798   4.315   9.384   9.775
 1519WAT     H1 4799   4.228   9.425   9.747
 1519WAT     H2 4800   4.382   9.456   9.794
 1520WAT      O 4801   4.039   0.528   8.648
 1520WAT     H1 4802   3.986   0.583   8.583
 1520WAT     H2 4803   4.132   0.515   8.612
 1521WAT      O 4804   3.397   4.006   9.090
 1521WAT     H1 4805   3.325   4.004   9.020
 1521WAT     H2 4806   3.366   4.060   9.168
 1522WAT      O 4807   2.051   6.457   6.106
 1522WAT     H1 4808   2.052   6.513   6.023
 1522WAT     H2 4809   1.963   6.466   6.152
 1523WAT      O 4810   1.280   1.917   2.912
 1523WAT     H1 4811   1.210   1.923   2.841
 1523WAT     H2 4812   1.348   1.988   2.897
 1524WAT      O 4813   5.948   1.895   8.357
 1524WAT     H1 4814   6.026   1.840   8.328
 1524WAT     H2 4815   5.975   1.954   8.434
 1525WAT      O 4816   9.829   5.121   9.004
 1525WAT     H1 4817   9.843   5.220   9.012
 1525WAT     H2 4818   9.917   5.075   9.018
 1526WAT      O 4819   0.686   1.845   5.203
 1526WAT     H1 4820   0.661   1.863   5.108
 1526WAT     H2 4821   0.711   1.930   5.248
 1527WAT      O 4822   3.688   7.322   5.055
 1527WAT     H1 4823   3.785   7.298   5.042
 1527WAT     H2 4824   3.631   7.243   5.036
 1528WAT      O 4825   4.281   1.399   4.588
 1528WAT     H1 4826   4.337   1.334   4.640
 1528WAT     H2 4827   4.271   1.483   4.640
 1529WAT      O 4828   5.921   6.883   9.369
 1529WAT     H1 4829   5.899   6.913   9.462
 1529WAT     H2 4830   5.968   6.957   9.321
 1530WAT      O 4831   9.851   6.325   7.784
 1530WAT     H1 4832   9.908   6.362   7.711
 1530WAT     H2 4833   9.896   6.339   7.872
 1531WAT      O 4834   8.140   0.598   4.192
 1531WAT     H1 4835   8.042   0.578   4.200
 1531WAT     H2 4836   8.189   0.517   4.161
 1532WAT      O 4837   1.656   1.514   5.138
 1532WAT     H1 4838   1.579   1.577   5.138
 1532WAT     H2 4839   1.719   1.538   5.065
 1533WAT      O 4840   6.116   1.216   1.606
 1533WAT     H1 4841   6.033   1.270   1.613
 1533WAT     H2 4842   6.118   1.169   1.517
 1534WAT      O 4843   4.684   5.123   1.438
 1534WAT     H1 4844   4.698   5.107   1.536
 1534WAT     H2 4845   4.667   5.220   1.422
 1535WAT      O 4846   6.430   7.263   7.652
 1535WAT     H1 4847   6.383   7.351   7.666
 1535WAT     H2 4848   6.491   7.270   7.573
 1536WAT      O 4849   2.986   5.329   3.593
 1536WAT     H1 4850   2.914   5.371   3.538
 1536WAT     H2 4851   3.070   5.322   3.539
 1537WAT      O 4852   3.405   9.412   5.028
 1537WAT     H1 4853   3.347   9.467   4.968
 1537WAT     H2 4854   3.365   9.408   5.119
 1538WAT      O 4855   8.371   8.227   0.660
 1538WAT     H1 4856   8.399   8.236   0.755
 1538WAT     H2 4857   8.272   8.233   0.654
 1539WAT      O 4858   3.092   2.436   8.700
 1539WAT     H1 4859   3.181   2.433   8.655
 1539WAT     H2 4860   3.102   2.406   8.795
 1540WAT      O 4861   3.661   4.836   9.764
 1540WAT     H1 4862   3.586   4.902   9.764
 1540WAT     H2 4863   3.743   4.878   9.725
 1541WAT      O 4864   6.188   5.904   9.766
 1541WAT     H1 4865   6.114   5.964   9.734
 1541WAT     H2 4866   6.160   5.859   9.851
 1542WAT      O 4867   5.017   8.923   9.626
 1542WAT     H1 4868   5.052   8.878   9.544
 1542WAT     H2 4869   5.021   9.022   9.615
 1543WAT      O 4870   3.000   9.433   2.093
 1543WAT     H1 4871   3.008   9.351   2.150
 1543WAT     H2 4872   2.964   9.508   2.147
 1544WAT      O 4873   8.660   6.604   7.746
 1544WAT     H1 4874   8.714   6.532   7.790
 1544WAT     H2 4875   8.720   6.661   7.690
 1545WAT      O 4876   4.802   3.482   5.007
 1545WAT     H1 4877   4.817   3.542   5.085
 1545WAT     H2 4878   4.714   3.436   5.018
 1546WAT      O 4879   7.604   5.460   2.806
 1546WAT     H1 4880   7.529   5.488   2.866
 1546WAT     H2 4881   7.568   5.440   2.715
 1547WAT      O 4882   9.325   0.248   7.173
 1547WAT     H1 4883   9.397   0.311   7.201
 1547WAT     H2 4884   9.364   0.158   7.154
 1548WAT      O 4885   7.870   2.564   5.273
 1548WAT     H1 4886   7.953   2.534   5.226
 1548WAT     H2 4887   7.795   2.502   5.250
 1549WAT      O 4888   2.335   9.172   5.574
 1549WAT     H1 4889   2.369   9.220   5.493
 1549WAT     H2 4890   2.378   9.081   5.579
 1550WAT      O 4891   3.856   9.511   9.253
 1550WAT     H1 4892   3.840   9.448   9.177
 1550WAT     H2 4893   3.808   9.478   9.335
 1551WAT      O 4894   6.490   4.623   4.119
 1551WAT     H1 4895   6.411   4.640   4.060
 1551WAT     H2 4896   6.573   4.617   4.062
 1552WAT      O 4897   0.282   1.528   2.047
 1552WAT     H1 4898   0.184   1.522   2.029
 1552WAT     H2 4899   0.301   1.493   2.139
 1553WAT      O 4900   6.636   0.947   6.979
 1553WAT     H1 4901   6.571   0.966   6.905
 1553WAT     H2 4902   6.593   0.887   7.046
 1554WAT      O 4903   6.866   7.752   1.982
 1554WAT     H1 4904   6.830   7.747   1.889
 1554WAT     H2 4905   6.960   7.716   1.984
 1555WAT      O 4906   7.122   0.054   7.764
 1555WAT     H1 4907   7.188   0.067   7.839
 1555WAT     H2 4908   7.152  -0.020   7.705
 1556WAT      O 4909   8.271   5.078   2.839
 1556WAT     H1 4910   8.177   5.112   2.840
 1556WAT     H2 4911   8.284   5.018   2.760
 1557WAT      O 4912   7.153   4.173   0.297
 1557WAT     H1 4913   7.105   4.110   0.236
 1557WAT     H2 4914   7.249   4.179   0.270
 1558WAT      O 4915   6.470   4.240   2.614
 1558WAT     H1 4916   6.522   4.223   2.698
 1558WAT     H2 4917   6.416   4.324   2.625
 1559WAT      O 4918   1.609   5.187   0.914
 1559WAT     H1 4919   1.576   5.253   0.982
 1559WAT     H2 4920   1.560   5.201   0.828
 1560WAT      O 4921   1.148   4.164   5.430
 1560WAT     H1 4922   1.169   4.240   5.368
 1560WAT     H2 4923   1.049   4.150   5.431
 1561WAT      O 4924   3.158   4.465   0.414
 1561WAT     H1 4925   3.239   4.416   0.381
 1561WAT     H2 4926   3.154   4.555   0.371
 1562WAT      O 4927   2.474   4.217   5.074
 1562WAT     H1 4928   2.453   4.197   5.169
 1562WAT     H2 4929   2.541   4.152   5.040
 1563WAT      O 4930   5.669   2.619   2.698
 1563WAT     H1 4931   5.760   2.639   2.663
 1563WAT     H2 4932   5.607   2.694   2.673
 1564WAT      O 4933   0.064   3.056   8.509
 1564WAT     H1 4934  -0.027   3.028   8.539
 1564WAT     H2 4935   0.117   3.087   8.588
 1565WAT      O 4936   6.616   5.729   2.413
 1565WAT     H1 4937   6.698   5.750   2.360
 1565WAT     H2 4938   6.600   5.630   2.412
 1566WAT      O 4939   4.227   6.909   7.113
 1566WAT     H1 4940   4.188   6.916   7.205
 1566WAT     H2 4941   4.266   6.998   7.087
 1567WAT      O 4942   7.514   7.882   4.385
 1567WAT     H1 4943   7.547   7.922   4.471
 1567WAT     H2 4944   7.442   7.815   4.405
 1568WAT      O 4945   4.558   8.739   8.215
 1568WAT     H1 4946   4.482   8.803   8.201
 1568WAT     H2 4947   4.642   8.779   8.180
 1569WAT      O 4948   9.772   8.076   2.887
 1569WAT     H1 4949   9.828   8.092   2.806
 1569WAT     H2 4950   9.689   8.131   2.882
 1570WAT      O 4951   7.800   1.239   5.601
 1570WAT     H1 4952   7.719   1.181   5.593
 1570WAT     H2 4953   7.881   1.181   5.606
 1571WAT      O 4954   9.350   0.092   4.031
 1571WAT     H1 4955   9.265   0.060   3.990
 1571WAT     H2 4956   9.367   0.187   4.005
 1572WAT      O 4957   5.477   0.088   0.587
 1572WAT     H1 4958   5.522   0.175   0.609
 1572WAT     H2 4959   5.380   0.094   0.612
 1573WAT      O 4960   9.701   0.498   5.711
 1573WAT     H1 4961   9.726   0.436   5.785
 1573WAT     H2 4962   9.738   0.463   5.624
 1574WAT      O 4963   8.620   3.192   4.953
 1574WAT     H1 4964   8.653   3.278   4.914
 1574WAT     H2 4965   8.696   3.127   4.961
 1575WAT      O 4966   9.052   5.208   5.044
 1575WAT     H1 4967   9.024   5.114   5.063
 1575WAT     H2 4968   9.138   5.227   5.090
 1576WAT      O 4969   7.660   2.779   6.924
 1576WAT     H1 4970   7.677   2.759   7.020
 1576WAT     H2 4971   7.684   2.874   6.904
 1577WAT      O 4972   3.750   2.758   3.599
 1577WAT     H1 4973   3.748   2.751   3.699
 1577WAT     H2 4974   3.823   2.820   3.571
 1578WAT      O 4975   0.601   2.925   6.940
 1578WAT     H1 4976   0.657   2.965   6.867
 1578WAT     H2 4977   0.504   2.940   6.919
 1579WAT      O 4978   7.152   2.228   7.431
 1579WAT     H1 4979   7.085   2.237   7.358
 1579WAT     H2 4980   7.159   2.313   7.482
 1580WAT      O 4981   1.982   6.179   2.325
 1580WAT     H1 4982   1.899   6.158   2.272
 1580WAT     H2 4983   2.016   6.095   2.368
 1581WAT      O 4984   8.918   0.657   0.151
 1581WAT     H1 4985   8.913   0.604   0.236
 1581WAT     H2 4986   8.980   0.734   0.164
 1582WAT      O 4987   4.590   2.424   4.719
 1582WAT     H1 4988   4.602   2.422   4.818
 1582WAT     H2 4989   4.606   2.332   4.682
 1583WAT      O 4990   2.071   6.528   9.625
 1583WAT     H1 4991   1.980   6.544   9.587
 1583WAT     H2 4992   2.064   6.464   9.702
 1584WAT      O 4993   9.368   3.972   6.962
 1584WAT     H1 4994   9.430   3.990   7.038
 1584WAT     H2 4995   9.308   3.895   6.985
 1585WAT      O 4996   1.538   6.293   1.169
 1585WAT     H1 4997   1.477   6.217   1.187
 1585WAT     H2 4998   1.514   6.370   1.228
 1586WAT      O 4999   1.026   0.638   5.720
 1586WAT     H1 5000   1.027   0.546   5.681
 1586WAT     H2 5001   1.118   0.677   5.714
 1587WAT      O 5002   5.523   0.963   4.090
 1587WAT     H1 5003   5.496   0.990   3.997
 1587WAT     H2 5004   5.478   1.023   4.156
 1588WAT      O 5005   7.488   9.572   9.404
 1588WAT     H1 5006   7.410   9.525   9.363
 1588WAT     H2 5007   7.571   9.519   9.389
 1589WAT      O 5008   1.238   3.455   7.266
 1589WAT     H1 5009   1.195   3.369   7.241
 1589WAT     H2 5010   1.312   3.438   7.331
 1590WAT      O 5011   0.957   8.289   5.144
 1590WAT     H1 5012   0.909   8.212   5.186
 1590WAT     H2 5013   0.915   8.311   5.056
 1591WAT      O 5014   0.013   1.077   6.552
 1591WAT     H1 5015  -0.033   1.142   6.613
 1591WAT     H2 5016  -0.043   0.995   6.542
 1592WAT      O 5017   1.644   7.878   6.513
 1592WAT     H1 5018   1.545   7.881   6.502
 1592WAT     H2 5019   1.688   7.897   6.426
 1593WAT      O 5020   7.978   5.696   3.462
 1593WAT     H1 5021   8.038   5.767   3.499
 1593WAT     H2 5022   8.002   5.678   3.366
 1594WAT      O 5023   1.147   5.998   0.482
 1594WAT     H1 5024   1.057   6.018   0.443
 1594WAT     H2 5025   1.137   5.947   0.567
 1595WAT      O 5026   3.655   2.220   5.624
 1595WAT     H1 5027   3.736   2.172   5.590
 1595WAT     H2 5028   3.684   2.300   5.677
 1596WAT      O 5029   4.084   0.286   5.516
 1596WAT     H1 5030   4.092   0.228   5.596
 1596WAT     H2 5031   4.163   0.347   5.511
 1597WAT      O 5032   0.233   4.407   2.687
 1597WAT     H1 5033   0.295   4.484   2.701
 1597WAT     H2 5034   0.281   4.332   2.642
 1598WAT      O 5035   6.196   2.507   9.499
 1598WAT     H1 5036   6.135   2.509   9.578
 1598WAT     H2 5037   6.281   2.555   9.521
 1599WAT      O 5038   1.060   7.992   3.570
 1599WAT     H1 5039   1.074   7.965   3.665
 1599WAT     H2 5040   1.142   8.039   3.536
 1600WAT      O 5041   9.458   1.015   9.292
 1600WAT     H1 5042   9.431   1.069   9.211
 1600WAT     H2 5043   9.472   0.920   9.265
 1601WAT      O 5044   1.191   2.995   3.547
 1601WAT     H1 5045   1.143   3.056   3.610
 1601WAT     H2 5046   1.208   3.042   3.461
 1602WAT      O 5047   2.038   9.457   4.861
 1602WAT     H1 5048   1.987   9.528   4.812
 1602WAT     H2 5049   2.005   9.452   4.955
 1603WAT      O 5050   9.600   4.177   4.265
 1603WAT     H1 5051   9.692   4.217   4.261
 1603WAT     H2 5052   9.590   4.127   4.351
 1604WAT      O 5053   2.535   7.535   6.841
 1604WAT     H1 5054   2.477   7.603   6.796
 1604WAT     H2 5055   2.479   7.456   6.866
 1605WAT      O 5056   9.703   6.710   8.690
 1605WAT     H1 5057   9.612   6.748   8.676
 1605WAT     H2 5058   9.698   6.610   8.686
 1606WAT      O 5059   5.873   4.566   9.494
 1606WAT     H1 5060   5.885   4.564   9.593
 1606WAT     H2 5061   5.906   4.653   9.458
 1607WAT      O 5062   2.450   6.247   8.402
 1607WAT     H1 5063   2.449   6.219   8.306
 1607WAT     H2 5064   2.518   6.194   8.452
 1608WAT      O 5065   8.773   8.494   8.874
 1608WAT     H1 5066   8.855   8.452   8.913
 1608WAT     H2 5067   8.694   8.471   8.930
 1609WAT      O 5068   5.390   1.931   1.798
 1609WAT     H1 5069   5.479   1.896   1.829
 1609WAT     H2 5070   5.353   1.871   1.727
 1610WAT      O 5071   8.927   3.549   9.091
 1610WAT     H1 5072   8.906   3.459   9.054
 1610WAT     H2 5073   8.894   3.554   9.185
 1611WAT      O 5074   7.294   9.760   5.305
 1611WAT     H1 5075   7.301   9.660   5.312
 1611WAT     H2 5076   7.213   9.784   5.252
 1612WAT      O 5077   5.746   1.829   9.313
 1612WAT     H1 5078   5.660   1.880   9.315
 1612WAT     H2 5079   5.823   1.892   9.325
 1613WAT      O 5080   8.325   4.636   9.646
 1613WAT     H1 5081   8.262   4.629   9.724
 1613WAT     H2 5082   8.294   4.575   9.573
 1614WAT      O 5083   6.105   1.651   8.571
 1614WAT     H1 5084   6.182   1.709   8.542
 1614WAT     H2 5085   6.140   1.567   8.612
 1615WAT      O 5086   9.242   7.097   8.373
 1615WAT     H1 5087   9.175   7.097   8.448
 1615WAT     H2 5088   9.307   7.171   8.386
 1616WAT      O 5089   2.444   9.548   5.566
 1616WAT     H1 5090   2.458   9.467   5.508
 1616WAT     H2 5091   2.346   9.567   5.571
 1617WAT      O 5092   8.301   9.676   6.634
 1617WAT     H1 5093   8.336   9.715   6.719
 1617WAT     H2 5094   8.378   9.656   6.572
 1618WAT      O 5095   2.880   6.398   6.807
 1618WAT     H1 5096   2.879   6.430   6.902
 1618WAT     H2 5097   2.973   6.408   6.771
 1619WAT      O 5098   8.336   8.139   1.810
 1619WAT     H1 5099   8.424   8.130   1.857
 1619WAT     H2 5100   8.264   8.097   1.866
 1620WAT      O 5101   5.405   0.262   2.705
 1620WAT     H1 5102   5.388   0.214   2.619
 1620WAT     H2 5103   5.322   0.309   2.734
 1621WAT      O 5104   4.239   2.352   7.600
 1621WAT     H1 5105   4.250   2.253   7.597
 1621WAT     H2 5106   4.142   2.375   7.591
 1622WAT      O 5107   9.285   4.126   9.784
 1622WAT     H1 5108   9.368   4.109   9.732
 1622WAT     H2 5109   9.227   4.191   9.735
 1623WAT      O 5110   7.445   3.945   0.002
 1623WAT     H1 5111   7.346   3.953  -0.011
 1623WAT     H2 5112   7.469   3.977   0.094
 1624WAT      O 5113   4.332   1.037   8.477
 1624WAT     H1 5114   4.384   1.098   8.416
 1624WAT     H2 5115   4.242   1.021   8.439
 1625WAT      O 5116   2.794   8.926   0.529
 1625WAT     H1 5117   2.816   8.979   0.611
 1625WAT     H2 5118   2.696   8.906   0.528
 1626WAT      O 5119   4.270   7.976   9.120
 1626WAT     H1 5120   4.278   7.954   9.217
 1626WAT     H2 5121   4.209   8.055   9.109
 1627WAT      O 5122   2.623   6.294   6.748
 1627WAT     H1 5123   2.717   6.326   6.758
 1627WAT     H2 5124   2.600   6.233   6.824
 1628WAT      O 5125   5.178   6.861   7.180
 1628WAT     H1 5126   5.176   6.938   7.116
 1628WAT     H2 5127   5.086   6.844   7.215
 1629WAT      O 5128   6.548   7.869   8.346
 1629WAT     H1 5129   6.579   7.899   8.256
 1629WAT     H2 5130   6.534   7.770   8.345
 1630WAT      O 5131   1.018   5.267   7.532
 1630WAT     H1 5132   1.048   5.280   7.627
 1630WAT     H2 5133   0.935   5.320   7.516
 1631WAT      O 5134   5.453   7.322   4.359
 1631WAT     H1 5135   5.362   7.332   4.399
 1631WAT     H2 5136   5.445   7.296   4.263
 1632WAT      O 5137   6.494   4.704   2.001
 1632WAT     H1 5138   6.417   4.662   1.953
 1632WAT     H2 5139   6.496   4.802   1.981
 1633WAT      O 5140   7.477   0.440   9.083
 1633WAT     H1 5141   7.389   0.399   9.104
 1633WAT     H2 5142   7.549   0.371   9.089
 1634WAT      O 5143   1.426   1.858   0.259
 1634WAT     H1 5144   1.521   1.853   0.228
 1634WAT     H2 5145   1.422   1.836   0.357
 1635WAT      O 5146   2.089   3.446   6.597
 1635WAT     H1 5147   2.141   3.531   6.594
 1635WAT     H2 5148   2.132   3.382   6.661
 1636WAT      O 5149   3.699   4.524   6.265
 1636WAT     H1 5150   3.601   4.520   6.251
 1636WAT     H2 5151   3.742   4.573   6.189
 1637WAT      O 5152   0.719   5.436   5.871
 1637WAT     H1 5153   0.711   5.377   5.790
 1637WAT     H2 5154   0.693   5.384   5.952
 1638WAT      O 5155   2.504   8.935   5.936
 1638WAT     H1 5156   2.461   8.846   5.918
 1638WAT     H2 5157   2.561   8.960   5.858
 1639WAT      O 5158   1.625   7.105   9.682
 1639WAT     H1 5159   1.647   7.183   9.624
 1639WAT     H2 5160   1.612   7.136   9.776
 1640WAT      O 5161   6.820   6.156   1.286
 1640WAT     H1 5162   6.796   6.157   1.189
 1640WAT     H2 5163   6.742   6.120   1.339
 1641WAT      O 5164   9.448   3.636   3.641
 1641WAT     H1 5165   9.471   3.732   3.656
 1641WAT     H2 5166   9.457   3.586   3.728
 1642WAT      O 5167   5.680   3.962   1.370
 1642WAT     H1 5168   5.660   3.895   1.299
 1642WAT     H2 5169   5.603   4.025   1.378
 1643WAT      O 5170   8.340   0.979   0.588
 1643WAT     H1 5171   8.257   0.946   0.544
 1643WAT     H2 5172   8.361   1.071   0.555
 1644WAT      O 5173   7.444   1.723   6.151
 1644WAT     H1 5174   7.463   1.736   6.248
 1644WAT     H2 5175   7.526   1.742   6.098
 1645WAT      O 5176   0.499   6.885   6.900
 1645WAT     H1 5177   0.439   6.929   6.967
 1645WAT     H2 5178   0.573   6.837   6.948
 1646WAT      O 5179   5.664   5.567   5.930
 1646WAT     H1 5180   5.702   5.652   5.894
 1646WAT     H2 5181   5.689   5.557   6.026
 1647WAT      O 5182   4.748   5.173   4.046
 1647WAT     H1 5183   4.658   5.200   4.013
 1647WAT     H2 5184   4.818   5.219   3.992
 1648WAT      O 5185   0.795   1.214   7.079
 1648WAT     H1 5186   0.756   1.306   7.074
 1648WAT     H2 5187   0.756   1.166   7.157
 1649WAT      O 5188   0.897   1.339   3.045
 1649WAT     H1 5189   0.858   1.403   3.111
 1649WAT     H2 5190   0.991   1.366   3.022
 1650WAT      O 5191   4.927   6.690   8.354
 1650WAT     H1 5192   4.898   6.758   8.286
 1650WAT     H2 5193   4.848   6.658   8.405
 1651WAT      O 5194   8.477   7.138   7.794
 1651WAT     H1 5195   8.545   7.149   7.720
 1651WAT     H2 5196   8.431   7.049   7.784
 1652WAT      O 5197   1.108   6.420   4.483
 1652WAT     H1 5198   1.082   6.324   4.481
 1652WAT     H2 5199   1.200   6.430   4.521
 1653WAT      O 5200   8.167   4.783   3.139
 1653WAT     H1 5201   8.131   4.875   3.149
 1653WAT     H2 5202   8.166   4.737   3.227
 1654WAT      O 5203   0.361   6.375   7.401
 1654WAT     H1 5204   0.384   6.420   7.487
 1654WAT     H2 5205   0.353   6.444   7.329
 1655WAT      O 5206   0.459   5.027   7.469
 1655WAT     H1 5207   0.477   5.126   7.465
 1655WAT     H2 5208   0.545   4.978   7.483
 1656WAT      O 5209   9.800   8.009   3.696
 1656WAT     H1 5210   9.771   7.939   3.631
 1656WAT     H2 5211   9.725   8.029   3.759
 1657WAT      O 5212   8.675   0.418   5.182
 1657WAT     H1 5213   8.705   0.512   5.197
 1657WAT     H2 5214   8.604   0.395   5.249
 1658WAT      O 5215   0.504   5.947   4.807
 1658WAT     H1 5216   0.541   5.918   4.895
 1658WAT     H2 5217   0.449   6.030   4.820
 1659WAT      O 5218   4.540   1.787   6.011
 1659WAT     H1 5219   4.540   1.829   6.102
 1659WAT     H2 5220   4.510   1.854   5.944
 1660WAT      O 5221   7.986   8.148   6.028
 1660WAT     H1 5222   8.055   8.155   5.956
 1660WAT     H2 5223   8.029   8.158   6.117
 1661WAT      O 5224   6.159   4.733   2.783
 1661WAT     H1 5225   6.078   4.673   2.783
 1661WAT     H2 5226   6.199   4.734   2.691
 1662WAT      O 5227   8.808   8.568   4.335
 1662WAT     H1 5228   8.784   8.553   4.239
 1662WAT     H2 5229   8.772   8.493   4.391
 1663WAT      O 5230   2.973   5.059   6.491
 1663WAT     H1 5231   2.879   5.086   6.513
 1663WAT     H2 5232   3.032   5.076   6.571
 1664WAT      O 5233   6.416   8.111   3.826
 1664WAT     H1 5234   6.354   8.167   3.881
 1664WAT     H2 5235   6.451   8.165   3.750
 1665WAT      O 5236   7.033   7.173   2.405
 1665WAT     H1 5237   7.062   7.173   2.309
 1665WAT     H2 5238   7.112   7.153   2.464
 1666WAT      O 5239   1.319   4.770   5.678
 1666WAT     H1 5240   1.356   4.785   5.586
 1666WAT     H2 5241   1.332   4.674   5.704
 1667WAT      O 5242   8.921   3.687   5.388
 1667WAT     H1 5243   8.969   3.645   5.466
 1667WAT     H2 5244   8.827   3.707   5.414
 1668WAT      O 5245   5.738   1.521   0.915
 1668WAT     H1 5246   5.643   1.545   0.934
 1668WAT     H2 5247   5.768   1.569   0.832
 1669WAT      O 5248   2.964   7.085   7.786
 1669WAT     H1 5249   2.905   7.164   7.800
 1669WAT     H2 5250   2.908   7.005   7.765
 1670WAT      O 5251   8.162   7.578   6.200
 1670WAT     H1 5252   8.101   7.500   6.211
 1670WAT     H2 5253   8.114   7.652   6.155
 1671WAT      O 5254   4.025   8.788   7.368
 1671WAT     H1 5255   4.049   8.846   7.446
 1671WAT     H2 5256   3.928   8.765   7.373
 1672WAT      O 5257   5.800   4.349   4.410
 1672WAT     H1 5258   5.828   4.287   4.483
 1672WAT     H2 5259   5.880   4.373   4.355
 1673WAT      O 5260   8.569   4.900   4.260
 1673WAT     H1 5261   8.530   4.989   4.237
 1673WAT     H2 5262   8.498   4.840   4.294
 1674WAT      O 5263   0.615   0.782   3.292
 1674WAT     H1 5264   0.610   0.682   3.286
 1674WAT     H2 5265   0.691   0.815   3.236
 1675WAT      O 5266   3.546   6.744   9.006
 1675WAT     H1 5267   3.531   6.780   9.098
 1675WAT     H2 5268   3.644   6.730   8.991
 1676WAT      O 5269   6.826   4.752   5.617
 1676WAT     H1 5270   6.896   4.734   5.686
 1676WAT     H2 5271   6.869   4.774   5.530
 1677WAT      O 5272   3.406   9.212   2.615
 1677WAT     H1 5273   3.488   9.250   2.572
 1677WAT     H2 5274   3.424   9.196   2.712
 1678WAT      O 5275   3.088   9.030   4.248
 1678WAT     H1 5276   3.138   9.112   4.277
 1678WAT     H2 5277   3.013   9.013   4.312
 1679WAT      O 5278   6.434   9.232   3.955
 1679WAT     H1 5279   6.466   9.321   3.924
 1679WAT     H2 5280   6.401   9.239   4.049
 1680WAT      O 5281   3.711   4.610   7.055
 1680WAT     H1 5282   3.771   4.618   6.975
 1680WAT     H2 5283   3.735   4.679   7.123
 1681WAT      O 5284   2.075   5.940   6.313
 1681WAT     H1 5285   2.039   5.847   6.325
 1681WAT     H2 5286   2.094   5.956   6.216
 1682WAT      O 5287   4.777   7.791   5.453
 1682WAT     H1 5288   4.707   7.812   5.384
 1682WAT     H2 5289   4.736   7.737   5.526
 1683WAT      O 5290   3.450   6.161   5.723
 1683WAT     H1 5291   3.351   6.171   5.736
 1683WAT     H2 5292   3.491   6.251   5.707
 1684WAT      O 5293   2.621   6.475   0.884
 1684WAT     H1 5294   2.525   6.497   0.901
 1684WAT     H2 5295   2.627   6.407   0.811
 1685WAT      O 5296   2.896   0.877   0.077
 1685WAT     H1 5297   2.903   0.966   0.121
 1685WAT     H2 5298   2.935   0.881  -0.015
 1686WAT      O 5299   5.395   2.119   4.718
 1686WAT     H1 5300   5.341   2.135   4.801
 1686WAT     H2 5301   5.349   2.052   4.660
 1687WAT      O 5302   1.912   7.268   2.337
 1687WAT     H1 5303   1.998   7.222   2.316
 1687WAT     H2 5304   1.919   7.365   2.312
 1688WAT      O 5305   0.706   5.328   4.604
 1688WAT     H1 5306   0.668   5.247   4.560
 1688WAT     H2 5307   0.638   5.401   4.604
 1689WAT      O 5308   2.530   0.141   1.193
 1689WAT     H1 5309   2.583   0.118   1.112
 1689WAT     H2 5310   2.512   0.057   1.245
 1690WAT      O 5311   6.549   7.929   0.089
 1690WAT     H1 5312   6.562   7.877   0.004
 1690WAT     H2 5313   6.545   7.866   0.166
 1691WAT      O 5314   1.725   9.748   1.026
 1691WAT     H1 5315   1.668   9.686   1.080
 1691WAT     H2 5316   1.819   9.716   1.025
 1692WAT      O 5317   1.000   3.996   0.128
 1692WAT     H1 5318   1.027   3.907   0.166
 1692WAT     H2 5319   1.045   4.069   0.180
 1693WAT      O 5320   4.266   8.544   2.363
 1693WAT     H1 5321   4.348   8.589   2.398
 1693WAT     H2 5322   4.205   8.612   2.322
 1694WAT      O 5323   3.333   9.329   0.831
 1694WAT     H1 5324   3.318   9.238   0.870
 1694WAT     H2 5325   3.299   9.398   0.894
 1695WAT      O 5326   2.632   6.280   7.845
 1695WAT     H1 5327   2.630   6.196   7.791
 1695WAT     H2 5328   2.715   6.282   7.900
 1696WAT      O 5329   1.638   9.405   6.030
 1696WAT     H1 5330   1.568   9.453   6.083
 1696WAT     H2 5331   1.728   9.422   6.071
 1697WAT      O 5332   9.881   4.897   4.478
 1697WAT     H1 5333   9.948   4.833   4.440
 1697WAT     H2 5334   9.918   4.990   4.476
 1698WAT      O 5335   7.076   1.498   3.518
 1698WAT     H1 5336   7.167   1.456   3.510
 1698WAT     H2 5337   7.018   1.441   3.576
 1699WAT      O 5338   1.611   2.729   1.931
 1699WAT     H1 5339   1.632   2.815   1.885
 1699WAT     H2 5340   1.588   2.659   1.862
 1700WAT      O 5341   8.997   4.967   0.354
 1700WAT     H1 5342   8.899   4.976   0.338
 1700WAT     H2 5343   9.046   4.975   0.268
 1701WAT      O 5344   8.619   5.613   8.508
 1701WAT     H1 5345   8.565   5.587   8.589
 1701WAT     H2 5346   8.575   5.576   8.426
 1702WAT      O 5347   7.740   0.080   1.786
 1702WAT     H1 5348   7.760   0.081   1.884
 1702WAT     H2 5349   7.665   0.015   1.768
 1703WAT      O 5350   1.610   4.612   2.067
 1703WAT     H1 5351   1.664   4.691   2.095
 1703WAT     H2 5352   1.669   4.532   2.061
 1704WAT      O 5353   2.999   6.367   3.596
 1704WAT     H1 5354   3.089   6.333   3.626
 1704WAT     H2 5355   2.938   6.374   3.675
 1705WAT      O 5356   2.025   2.140   8.642
 1705WAT     H1 5357   1.939   2.091   8.629
 1705WAT     H2 5358   2.051   2.136   8.739
 1706WAT      O 5359   7.809   2.224   7.205
 1706WAT     H1 5360   7.855   2.137   7.185
 1706WAT     H2 5361   7.734   2.208   7.269
 1707WAT      O 5362   1.396   3.182   8.247
 1707WAT     H1 5363   1.370   3.153   8.154
 1707WAT     H2 5364   1.466   3.119   8.283
 1708WAT      O 5365   6.382   3.254   5.002
 1708WAT     H1 5366   6.447   3.181   4.982
 1708WAT     H2 5367   6.423   3.342   4.979
 1709WAT      O 5368   6.874   3.355   5.142
 1709WAT     H1 5369   6.824   3.270   5.156
 1709WAT     H2 5370   6.863   3.413   5.223
 1710WAT      O 5371   3.916   5.532   5.703
 1710WAT     H1 5372   3.991   5.483   5.659
 1710WAT     H2 5373   3.849   5.558   5.634
 1711WAT      O 5374   8.515   2.990   9.704
 1711WAT     H1 5375   8.559   2.944   9.627
 1711WAT     H2 5376   8.462   2.924   9.757
 1712WAT      O 5377   8.179   9.079   4.463
 1712WAT     H1 5378   8.222   9.052   4.549
 1712WAT     H2 5379   8.249   9.103   4.396
 1713WAT      O 5380   1.703   3.712   9.093
 1713WAT     H1 5381   1.745   3.655   9.164
 1713WAT     H2 5382   1.677   3.801   9.132
 1714WAT      O 5383   7.781   9.212   1.512
 1714WAT     H1 5384   7.861   9.251   1.557
 1714WAT     H2 5385   7.804   9.188   1.417
 1715WAT      O 5386   9.818   5.167   4.550
 1715WAT     H1 5387   9.738   5.109   4.561
 1715WAT     H2 5388   9.796   5.243   4.487
 1716WAT      O 5389   0.821   2.333   1.281
 1716WAT     H1 5390   0.880   2.408   1.249
 1716WAT     H2 5391   0.815   2.336   1.381
 1717WAT      O 5392   6.299   5.698   2.741
 1717WAT     H1 5393   6.202   5.723   2.746
 1717WAT     H2 5394   6.341   5.745   2.663
 1718WAT      O 5395   3.357   1.450   5.005
 1718WAT     H1 5396   3.276   1.396   5.026
 1718WAT     H2 5397   3.429   1.391   4.967
 1719WAT      O 5398   5.794   4.635   7.460
 1719WAT     H1 5399   5.840   4.700   7.399
 1719WAT     H2 5400   5.860   4.568   7.493
 1720WAT      O 5401   6.858   7.424   7.643
 1720WAT     H1 5402   6.861   7.517   7.606
 1720WAT     H2 5403   6.883   7.426   7.740
 1721WAT      O 5404   8.371   3.236   5.139
 1721WAT     H1 5405   8.416   3.267   5.223
 1721WAT     H2 5406   8.430   3.170   5.092
 1722WAT      O 5407   6.866   0.561   1.790
 1722WAT     H1 5408   6.829   0.598   1.705
 1722WAT     H2 5409   6.888   0.636   1.852
 1723WAT      O 5410   9.073   3.429   4.925
 1723WAT     H1 5411   8.994   3.377   4.893
 1723WAT     H2 5412   9.047   3.525   4.939
 1724WAT      O 5413   4.201   0.174   0.347
 1724WAT     H1 5414   4.239   0.262   0.372
 1724WAT     H2 5415   4.248   0.140   0.265
 1725WAT      O 5416   1.798   8.243   0.629
 1725WAT     H1 5417   1.856   8.177   0.581
 1725WAT     H2 5418   1.855   8.302   0.685
 1726WAT      O 5419   3.234   6.286   2.196
 1726WAT     H1 5420   3.290   6.355   2.150
 1726WAT     H2 5421   3.162   6.254   2.134
 1727WAT      O 5422   4.648   7.457   6.414
 1727WAT     H1 5423   4.628   7.475   6.510
 1727WAT     H2 5424   4.576   7.399   6.375
 1728WAT      O 5425   8.519   3.807   0.060
 1728WAT     H1 5426   8.465   3.725   0.041
 1728WAT     H2 5427   8.461   3.875   0.106
 1729WAT      O 5428   2.950   8.433   5.601
 1729WAT     H1 5429   2.984   8.519   5.639
 1729WAT     H2 5430   2.856   8.418   5.631
 1730WAT      O 5431   3.266   1.495   5.573
 1730WAT     H1 5432   3.208   1.533   5.501
 1730WAT     H2 5433   3.222   1.509   5.662
 1731WAT      O 5434   9.122   9.618   5.407
 1731WAT     H1 5435   9.134   9.718   5.403
 1731WAT     H2 5436   9.124   9.589   5.503
 1732WAT      O 5437   0.024   0.149   8.253
 1732WAT     H1 5438  -0.006   0.240   8.281
 1732WAT     H2 5439   0.119   0.154   8.222
 1733WAT      O 5440   1.648   5.443   5.141
 1733WAT     H1 5441   1.600   5.368   5.186
 1733WAT     H2 5442   1.582   5.504   5.098
 1734WAT      O 5443   1.670   0.371   3.277
 1734WAT     H1 5444   1.654   0.465   3.248
 1734WAT     H2 5445   1.746   0.368   3.343
 1735WAT      O 5446   7.195   0.775   1.939
 1735WAT     H1 5447   7.218   0.741   1.848
 1735WAT     H2 5448   7.103   0.744   1.964
 1736WAT      O 5449   7.851   1.992   0.156
 1736WAT     H1 5450   7.912   1.980   0.235
 1736WAT     H2 5451   7.792   2.071   0.172
 1737WAT      O 5452   0.047   0.433   4.158
 1737WAT     H1 5453   0.013   0.400   4.246
 1737WAT     H2 5454  -0.030   0.444   4.095
 1738WAT      O 5455   4.908   9.415   3.936
 1738WAT     H1 5456   4.871   9.476   3.865
 1738WAT     H2 5457   4.863   9.434   4.023
 1739WAT      O 5458   2.373   7.332   5.465
 1739WAT     H1 5459   2.324   7.418   5.480
 1739WAT     H2 5460   2.448   7.347   5.401
 1740WAT      O 5461   1.040   3.240   2.838
 1740WAT     H1 5462   1.103   3.179   2.885
 1740WAT     H2 5463   0.949   3.231   2.876
 1741WAT      O 5464   4.839   9.060   4.793
 1741WAT     H1 5465   4.768   9.084   4.728
 1741WAT     H2 5466   4.917   9.020   4.744
 1742WAT      O 5467   0.171   5.498   5.572
 1742WAT     H1 5468   0.201   5.465   5.482
 1742WAT     H2 5469   0.249   5.541   5.618
 1743WAT      O 5470   9.837   6.229   4.182
 1743WAT     H1 5471   9.790   6.295   4.241
 1743WAT     H2 5472   9.883   6.277   4.107
 1744WAT      O 5473   8.732   6.957   6.733
 1744WAT     H1 5474   8.807   6.918   6.678
 1744WAT     H2 5475   8.743   7.056   6.737
 1745WAT      O 5476   7.348   7.799   4.765
 1745WAT     H1 5477   7.340   7.782   4.667
 1745WAT     H2 5478   7.267   7.765   4.812
 1746WAT      O 5479   2.524   1.388   1.596
 1746WAT     H1 5480   2.619   1.417   1.591
 1746WAT     H2 5481   2.482   1.423   1.680
 1747WAT      O 5482   7.223   5.479   7.784
 1747WAT     H1 5483   7.286   5.449   7.855
 1747WAT     H2 5484   7.130   5.451   7.808
 1748WAT      O 5485   7.404   5.882   8.351
 1748WAT     H1 5486   7.379   5.844   8.261
 1748WAT     H2 5487   7.345   5.842   8.421
 1749WAT      O 5488   0.929   4.361   8.099
 1749WAT     H1 5489   0.901   4.320   8.186
 1749WAT     H2 5490   0.861   4.427   8.069
 1750WAT      O 5491   4.966   5.009   3.124
 1750WAT     H1 5492   5.045   4.948   3.113
 1750WAT     H2 5493   4.890   4.958   3.165
 1751WAT      O 5494   3.105   4.190   1.275
 1751WAT     H1 5495   3.141   4.216   1.186
 1751WAT     H2 5496   3.008   4.213   1.280
 1752WAT      O 5497   9.645   0.781   9.734
 1752WAT     H1 5498   9.705   0.802   9.810
 1752WAT     H2 5499   9.550   0.801   9.759
 1753WAT      O 5500   4.334   8.295   4.414
 1753WAT     H1 5501   4.389   8.288   4.331
 1753WAT     H2 5502   4.269   8.371   4.404
 1754WAT      O 5503   0.372   9.355   5.382
 1754WAT     H1 5504   0.358   9.447   5.417
 1754WAT     H2 5505   0.460   9.320   5.414
 1755WAT      O 5506   3.546   8.624   7.409
 1755WAT     H1 5507   3.490   8.659   7.484
 1755WAT     H2 5508   3.638   8.665   7.414
 1756WAT      O 5509   5.095   1.763   2.166
 1756WAT     H1 5510   5.075   1.822   2.088
 1756WAT     H2 5511   5.181   1.792   2.209
 1757WAT      O 5512   5.746   6.435   0.533
 1757WAT     H1 5513   5.692   6.420   0.451
 1757WAT     H2 5514   5.833   6.477   0.508
 1758WAT      O 5515   5.744   8.579   4.947
 1758WAT     H1 5516   5.727   8.513   5.020
 1758WAT     H2 5517   5.726   8.535   4.859
 1759WAT      O 5518   0.766   3.448   5.668
 1759WAT     H1 5519   0.822   3.395   5.605
 1759WAT     H2 5520   0.673   3.455   5.631
 1760WAT      O 5521   2.842   7.063   3.502
 1760WAT     H1 5522   2.747   7.063   3.533
 1760WAT     H2 5523   2.892   7.137   3.546
 1761WAT      O 5524   1.644   5.405   3.776
 1761WAT     H1 5525   1.638   5.320   3.827
 1761WAT     H2 5526   1.586   5.399   3.695
 1762WAT      O 5527   2.605   7.089   8.321
 1762WAT     H1 5528   2.541   7.027   8.275
 1762WAT     H2 5529   2.577   7.184   8.305
 1763WAT      O 5530   7.529   2.483   8.079
 1763WAT     H1 5531   7.616   2.462   8.036
 1763WAT     H2 5532   7.532   2.576   8.117
 1764WAT      O 5533   5.495   0.774   7.463
 1764WAT     H1 5534   5.585   0.771   7.507
 1764WAT     H2 5535   5.437   0.701   7.501
 1765WAT      O 5536   8.024   3.212   9.338
 1765WAT     H1 5537   8.036   3.121   9.377
 1765WAT     H2 5538   8.076   3.279   9.392
 1766WAT      O 5539   5.372   9.671   1.347
 1766WAT     H1 5540   5.352   9.657   1.250
 1766WAT     H2 5541   5.335   9.760   1.376
 1767WAT      O 5542   1.213   5.488   4.810
 1767WAT     H1 5543   1.127   5.438   4.811
 1767WAT     H2 5544   1.199   5.578   4.852
 1768WAT      O 5545   3.351   2.196   2.601
 1768WAT     H1 5546   3.359   2.208   2.502
 1768WAT     H2 5547   3.256   2.179   2.625
 1769WAT      O 5548   8.905   1.022   8.142
 1769WAT     H1 5549   8.880   0.968   8.062
 1769WAT     H2 5550   8.828   1.024   8.205
 1770WAT      O 5551   9.733   8.358   8.302
 1770WAT     H1 5552   9.735   8.437   8.363
 1770WAT     H2 5553   9.638   8.333   8.284
 1771WAT      O 5554   0.408   0.952   1.071
 1771WAT     H1 5555   0.397   1.033   1.129
 1771WAT     H2 5556   0.465   0.884   1.118
 1772WAT      O 5557   0.707   8.880   3.431
 1772WAT     H1 5558   0.711   8.833   3.518
 1772WAT     H2 5559   0.789   8.937   3.419
 1773WAT      O 5560   8.198   6.222   2.301
 1773WAT     H1 5561   8.229   6.206   2.395
 1773WAT     H2 5562   8.272   6.268   2.250
 1774WAT      O 5563   2.223   4.930   0.187
 1774WAT     H1 5564   2.174   4.994   0.245
 1774WAT     H2 5565   2.320   4.929   0.213
 1775WAT      O 5566   3.962   5.131   1.820
 1775WAT     H1 5567   4.059   5.122   1.797
 1775WAT     H2 5568   3.942   5.073   1.899
 1776WAT      O 5569   6.282   0.173   6.816
 1776WAT     H1 5570   6.211   0.243   6.814
 1776WAT     H2 5571   6.368   0.212   6.783
 1777WAT      O 5572   7.550   7.349   5.087
 1777WAT     H1 5573   7.504   7.267   5.122
 1777WAT     H2 5574   7.640   7.357   5.129
 1778WAT      O 5575   6.078   7.790   5.038
 1778WAT     H1 5576   6.086   7.889   5.026
 1778WAT     H2 5577   6.158   7.744   5.000
 1779WAT      O 5578   7.315   6.225   9.410
 1779WAT     H1 5579   7.243   6.156   9.419
 1779WAT     H2 5580   7.287   6.310   9.456
 1780WAT      O 5581   8.339   3.333   3.115
 1780WAT     H1 5582   8.426   3.319   3.162
 1780WAT     H2 5583   8.264   3.307   3.176
 1781WAT      O 5584   4.994   0.434   6.338
 1781WAT     H1 5585   4.974   0.531   6.324
 1781WAT     H2 5586   5.093   0.421   6.345
 1782WAT      O 5587   2.241   0.418   7.341
 1782WAT     H1 5588   2.268   0.397   7.435
 1782WAT     H2 5589   2.141   0.425   7.337
 1783WAT      O 5590   8.505   4.730   2.221
 1783WAT     H1 5591   8.571   4.764   2.155
 1783WAT     H2 5592   8.511   4.784   2.305
 1784WAT      O 5593   1.113   8.214   5.757
 1784WAT     H1 5594   1.023   8.180   5.731
 1784WAT     H2 5595   1.136   8.183   5.849
 1785WAT      O 5596   5.905   0.218   3.395
 1785WAT     H1 5597   5.890   0.261   3.484
 1785WAT     H2 5598   5.938   0.124   3.408
 1786WAT      O 5599   3.228   3.381   9.753
 1786WAT     H1 5600   3.299   3.385   9.682
 1786WAT     H2 5601   3.149   3.330   9.719
 1787WAT      O 5602   1.655   8.262   9.378
 1787WAT     H1 5603   1.625   8.332   9.442
 1787WAT     H2 5604   1.646   8.172   9.419
 1788WAT      O 5605   5.598   9.729   1.556
 1788WAT     H1 5606   5.660   9.754   1.630
 1788WAT     H2 5607   5.651   9.696   1.478
 1789WAT      O 5608   5.464   8.432   5.448
 1789WAT     H1 5609   5.388   8.376   5.479
 1789WAT     H2 5610   5.536   8.434   5.518
 1790WAT      O 5611   1.386   9.696   9.658
 1790WAT     H1 5612   1.382   9.660   9.752
 1790WAT     H2 5613   1.481   9.719   9.636
 1791WAT      O 5614   9.070   2.364   2.994
 1791WAT     H1 5615   9.158   2.322   3.014
 1791WAT     H2 5616   9.011   2.299   2.948
 1792WAT      O 5617   6.731   1.187   3.811
 1792WAT     H1 5618   6.655   1.236   3.769
 1792WAT     H2 5619   6.721   1.089   3.794
 1793WAT      O 5620   3.282   1.434   6.227
 1793WAT     H1 5621   3.349   1.508   6.227
 1793WAT     H2 5622   3.291   1.380   6.143
 1794WAT      O 5623   7.003   8.561   0.552
 1794WAT     H1 5624   6.920   8.505   0.559
 1794WAT     H2 5625   7.001   8.633   0.622
 1795WAT      O 5626   8.024   1.707   6.060
 1795WAT     H1 5627   8.084   1.778   6.024
 1795WAT     H2 5628   7.929   1.740   6.057
 1796WAT      O 5629   2.408   7.093   8.570
 1796WAT     H1 5630   2.439   7.010   8.615
 1796WAT     H2 5631   2.420   7.084   8.472
 1797WAT      O 5632   8.545   6.627   0.459
 1797WAT     H1 5633   8.611   6.637   0.533
 1797WAT     H2 5634   8.586   6.658   0.373
 1798WAT      O 5635   3.011   4.456   6.970
 1798WAT     H1 5636   3.025   4.550   6.939
 1798WAT     H2 5637   2.972   4.401   6.896
 1799WAT      O 5638   4.371   9.325   9.076
 1799WAT     H1 5639   4.401   9.278   9.160
 1799WAT     H2 5640   4.450   9.350   9.022
 1800WAT      O 5641   6.626   5.657   5.104
 1800WAT     H1 5642   6.636   5.585   5.037
 1800WAT     H2 5643   6.631   5.618   5.196
 1801WAT      O 5644   1.324   6.448   4.655
 1801WAT     H1 5645   1.422   6.430   4.652
 1801WAT     H2 5646   1.291   6.439   4.749
 1802WAT      O 5647   6.572   1.746   4.745
 1802WAT     H1 5648   6.610   1.824   4.696
 1802WAT     H2 5649   6.529   1.683   4.680
 1803WAT      O 5650   3.602   0.874   7.955
 1803WAT     H1 5651   3.565   0.898   8.045
 1803WAT     H2 5652   3.668   0.799   7.965
 1804WAT      O 5653   0.484   4.922   1.860
 1804WAT     H1 5654   0.437   4.872   1.788
 1804WAT     H2 5655   0.419   4.986   1.903
 1805WAT      O 5656   0.788   2.608   1.656
 1805WAT     H1 5657   0.779   2.597   1.755
 1805WAT     H2 5658   0.848   2.686   1.637
 1806WAT      O 5659   4.643   5.777   3.526
 1806WAT     H1 5660   4.638   5.686   3.568
 1806WAT     H2 5661   4.611   5.771   3.431
 1807WAT      O 5662   8.895   7.714   0.726
 1807WAT     H1 5663   8.992   7.708   0.750
 1807WAT     H2 5664   8.876   7.651   0.650
 1808WAT      O 5665   1.204   3.621   3.333
 1808WAT     H1 5666   1.228   3.708   3.377
 1808WAT     H2 5667   1.108   3.624   3.305
 1809WAT      O 5668   3.337   2.814   2.384
 1809WAT     H1 5669   3.390   2.744   2.336
 1809WAT     H2 5670   3.262   2.771   2.434
 1810WAT      O 5671   7.305   9.796   7.261
 1810WAT     H1 5672   7.253   9.736   7.200
 1810WAT     H2 5673   7.280   9.891   7.243
 1811WAT      O 5674   2.412   8.160   8.756
 1811WAT     H1 5675   2.484   8.155   8.687
 1811WAT     H2 5676   2.340   8.221   8.725
 1812WAT      O 5677   3.048   6.833   1.982
 1812WAT     H1 5678   3.059   6.825   1.883
 1812WAT     H2 5679   3.069   6.927   2.009
 1813WAT      O 5680   3.824   3.005   5.339
 1813WAT     H1 5681   3.848   3.102   5.331
 1813WAT     H2 5682   3.818   2.964   5.248
 1814WAT      O 5683   0.815   8.076   3.172
 1814WAT     H1 5684   0.874   7.996   3.167
 1814WAT     H2 5685   0.728   8.051   3.214
 1815WAT      O 5686   0.285   9.788   6.934
 1815WAT     H1 5687   0.304   9.751   6.843
 1815WAT     H2 5688   0.324   9.726   7.003
 1816WAT      O 5689   6.527   4.320   7.607
 1816WAT     H1 5690   6.623   4.301   7.589
 1816WAT     H2 5691   6.517   4.362   7.698
 1817WAT      O 5692   2.883   3.525   6.451
 1817WAT     H1 5693   2.961   3.539   6.512
 1817WAT     H2 5694   2.888   3.433   6.412
 1818WAT      O 5695   8.290   2.807   6.630
 1818WAT     H1 5696   8.318   2.743   6.702
 1818WAT     H2 5697   8.216   2.765   6.576
 1819WAT      O 5698   2.726   2.454   3.508
 1819WAT     H1 5699   2.819   2.424   3.489
 1819WAT     H2 5700   2.689   2.499   3.426
 1820WAT      O 5701   4.438   1.245   2.198
 1820WAT     H1 5702   4.522   1.198   2.169
 1820WAT     H2 5703   4.436   1.337   2.159
 1821WAT      O 5704   3.362   4.875   2.852
 1821WAT     H1 5705   3.433   4.806   2.866
 1821WAT     H2 5706   3.392   4.962   2.893
 1822WAT      O 5707   6.734   9.692   1.379
 1822WAT     H1 5708   6.711   9.614   1.435
 1822WAT     H2 5709   6.679   9.771   1.406
 1823WAT      O 5710   8.316   0.305   5.674
 1823WAT     H1 5711   8.375   0.231   5.706
 1823WAT     H2 5712   8.371   0.384   5.649
 1824WAT      O 5713   7.902   3.177   4.621
 1824WAT     H1 5714   7.854   3.228   4.692
 1824WAT     H2 5715   7.892   3.225   4.534
 1825WAT      O 5716   3.749   3.357   0.969
 1825WAT     H1 5717   3.785   3.360   0.876
 1825WAT     H2 5718   3.820   3.385   1.034
 1826WAT      O 5719   6.727   4.264   8.743
 1826WAT     H1 5720   6.704   4.215   8.659
 1826WAT     H2 5721   6.785   4.342   8.722
 1827WAT      O 5722   2.160   5.642   7.422
 1827WAT     H1 5723   2.180   5.608   7.330
 1827WAT     H2 5724   2.079   5.701   7.418
 1828WAT      O 5725   7.133   5.355   5.173
 1828WAT     H1 5726   7.209   5.297   5.145
 1828WAT     H2 5727   7.134   5.440   5.119
 1829WAT      O 5728   6.197   1.886   6.020
 1829WAT     H1 5729   6.168   1.831   5.942
 1829WAT     H2 5730   6.169   1.842   6.104
 1830WAT      O 5731   8.192   4.012   0.941
 1830WAT     H1 5732   8.233   3.938   0.995
 1830WAT     H2 5733   8.257   4.087   0.934
 1831WAT      O 5734   2.683   0.525   7.041
 1831WAT     H1 5735   2.675   0.430   7.072
 1831WAT     H2 5736   2.778   0.543   7.013
 1832WAT      O 5737   7.229   2.120   4.690
 1832WAT     H1 5738   7.297   2.159   4.753
 1832WAT     H2 5739   7.276   2.069   4.618
 1833WAT      O 5740   2.195   6.750   9.558
 1833WAT     H1 5741   2.205   6.811   9.637
 1833WAT     H2 5742   2.139   6.671   9.583
 1834WAT      O 5743   2.404   4.494   6.679
 1834WAT     H1 5744   2.334   4.455   6.619
 1834WAT     H2 5745   2.365   4.571   6.730
 1835WAT      O 5746   5.064   0.491   5.452
 1835WAT     H1 5747   4.967   0.468   5.450
 1835WAT     H2 5748   5.075   0.589   5.464
 1836WAT      O 5749   9.351   0.691   5.226
 1836WAT     H1 5750   9.417   0.732   5.163
 1836WAT     H2 5751   9.380   0.597   5.246
 1837WAT      O 5752   1.118   3.923   4.492
 1837WAT     H1 5753   1.157   4.014   4.476
 1837WAT     H2 5754   1.029   3.917   4.448
 1838WAT      O 5755   8.850   6.085   7.978
 1838WAT     H1 5756   8.776   6.118   7.919
 1838WAT     H2 5757   8.937   6.125   7.946
 1839WAT      O 5758   6.772   1.683   6.176
 1839WAT     H1 5759   6.682   1.651   6.205
 1839WAT     H2 5760   6.813   1.616   6.114
 1840WAT      O 5761   7.518   6.815   6.166
 1840WAT     H1 5762   7.490   6.861   6.250
 1840WAT     H2 5763   7.519   6.716   6.181
 1841WAT      O 5764   9.131   0.603   2.113
 1841WAT     H1 5765   9.034   0.624   2.100
 1841WAT     H2 5766   9.160   0.539   2.042
 1842WAT      O 5767   6.434   8.633   8.394
 1842WAT     H1 5768   6.488   8.572   8.454
 1842WAT     H2 5769   6.360   8.580   8.352
 1843WAT      O 5770   4.792   5.368   6.441
 1843WAT     H1 5771   4.852   5.388   6.518
 1843WAT     H2 5772   4.697   5.386   6.466
 1844WAT      O 5773   3.084   1.431   7.671
 1844WAT     H1 5774   3.097   1.333   7.682
 1844WAT     H2 5775   3.169   1.474   7.641
 1845WAT      O 5776   7.628   7.657   4.596
 1845WAT     H1 5777   7.558   7.598   4.637
 1845WAT     H2 5778   7.694   7.600   4.547
 1846WAT      O 5779   9.810   4.379   0.611
 1846WAT     H1 5780   9.732   4.411   0.557
 1846WAT     H2 5781   9.846   4.455   0.665
 1847WAT      O 5782   2.591   0.523   5.176
 1847WAT     H1 5783   2.492   0.515   5.183
 1847WAT     H2 5784   2.634   0.444   5.219
 1848WAT      O 5785   3.922   0.745   1.211
 1848WAT     H1 5786   4.016   0.760   1.242
 1848WAT     H2 5787   3.896   0.650   1.230
 1849WAT      O 5788   0.139   4.911   5.949
 1849WAT     H1 5789   0.196   4.955   6.018
 1849WAT     H2 5790   0.196   4.854   5.890
 1850WAT      O 5791   8.045   4.806   3.732
 1850WAT     H1 5792   7.993   4.844   3.809
 1850WAT     H2 5793   8.024   4.858   3.649
 1851WAT      O 5794   3.878   9.197   4.706
 1851WAT     H1 5795   3.797   9.195   4.765
 1851WAT     H2 5796   3.850   9.194   4.611
 1852WAT      O 5797   4.504   5.269   7.917
 1852WAT     H1 5798   4.499   5.169   7.922
 1852WAT     H2 5799   4.420   5.305   7.876
 1853WAT      O 5800   0.741   3.969   6.187
 1853WAT     H1 5801   0.819   4.006   6.237
 1853WAT     H2 5802   0.676   4.042   6.167
 1854WAT      O 5803   1.988   7.646   8.970
 1854WAT     H1 5804   2.085   7.659   8.952
 1854WAT     H2 5805   1.941   7.734   8.964
 1855WAT      O 5806   2.413   6.036   9.302
 1855WAT     H1 5807   2.322   6.052   9.263
 1855WAT     H2 5808   2.446   5.946   9.274
 1856WAT      O 5809   1.659   9.742   8.749
 1856WAT     H1 5810   1.724   9.736   8.673
 1856WAT     H2 5811   1.567   9.720   8.717
 1857WAT      O 5812   6.870   3.868   5.687
 1857WAT     H1 5813   6.887   3.823   5.599
 1857WAT     H2 5814   6.803   3.815   5.739
 1858WAT      O 5815   7.007   7.096   8.458
 1858WAT     H1 5816   6.989   7.099   8.360
 1858WAT     H2 5817   7.103   7.072   8.473
 1859WAT      O 5818   5.840   9.099   0.438
 1859WAT     H1 5819   5.873   9.193   0.449
 1859WAT     H2 5820   5.782   9.075   0.515
 1860WAT      O 5821   0.430   5.599   6.046
 1860WAT     H1 5822   0.516   5.600   6.096
 1860WAT     H2 5823   0.353   5.598   6.111
 1861WAT      O 5824   8.942   8.293   4.405
 1861WAT     H1 5825   9.020   8.278   4.344
 1861WAT     H2 5826   8.857   8.271   4.356
 1862WAT      O 5827   5.622   8.705   7.398
 1862WAT     H1 5828   5.692   8.634   7.391
 1862WAT     H2 5829   5.614   8.735   7.493
 1863WAT      O 5830   2.671   2.713   2.356
 1863WAT     H1 5831   2.661   2.655   2.276
 1863WAT     H2 5832   2.668   2.658   2.439
 1864WAT      O 5833   0.685   8.562   1.592
 1864WAT     H1 5834   0.611   8.608   1.542
 1864WAT     H2 5835   0.666   8.464   1.596
 1865WAT      O 5836   4.899   0.902   2.945
 1865WAT     H1 5837   4.958   0.847   2.886
 1865WAT     H2 5838   4.948   0.983   2.977
 1866WAT      O 5839   9.178   0.483   2.348
 1866WAT     H1 5840   9.194   0.539   2.266
 1866WAT     H2 5841   9.116   0.407   2.325
 1867WAT      O 5842   7.441   3.655   3.654
 1867WAT     H1 5843   7.476   3.727   3.714
 1867WAT     H2 5844   7.518   3.607   3.611
 1868WAT      O 5845   6.821   5.698   6.387
 1868WAT     H1 5846   6.862   5.608   6.399
 1868WAT     H2 5847   6.730   5.689   6.347
 1869WAT      O 5848   4.426   6.398   7.727
 1869WAT     H1 5849   4.525   6.384   7.737
 1869WAT     H2 5850   4.409   6.494   7.702
 1870WAT      O 5851   9.863   9.042   1.153
 1870WAT     H1 5852   9.934   8.972   1.160
 1870WAT     H2 5853   9.903   9.131   1.174
 1871WAT      O 5854   8.778   4.853   6.171
 1871WAT     H1 5855   8.834   4.848   6.088
 1871WAT     H2 5856   8.788   4.767   6.223
 1872WAT      O 5857   2.912   6.766   0.515
 1872WAT     H1 5858   2.812   6.755   0.519
 1872WAT     H2 5859   2.955   6.705   0.580
 1873WAT      O 5860   3.205   6.335   5.966
 1873WAT     H1 5861   3.292   6.290   5.984
 1873WAT     H2 5862   3.219   6.434   5.958
 1874WAT      O 5863   2.362   6.973   2.319
 1874WAT     H1 5864   2.391   6.881   2.344
 1874WAT     H2 5865   2.428   7.039   2.355
 1875WAT      O 5866   7.374   9.539   2.490
 1875WAT     H1 5867   7.333   9.626   2.515
 1875WAT     H2 5868   7.337   9.508   2.403
 1876WAT      O 5869   8.104   8.982   1.254
 1876WAT     H1 5870   8.166   9.023   1.187
 1876WAT     H2 5871   8.133   8.888   1.273
 1877WAT      O 5872   0.534   1.500   3.414
 1877WAT     H1 5873   0.498   1.518   3.505
 1877WAT     H2 5874   0.579   1.411   3.413
 1878WAT      O 5875   4.837   5.292   3.665
 1878WAT     H1 5876   4.900   5.326   3.735
 1878WAT     H2 5877   4.889   5.260   3.586
 1879WAT      O 5878   1.500   6.436   8.055
 1879WAT     H1 5879   1.484   6.440   8.154
 1879WAT     H2 5880   1.548   6.518   8.026
 1880WAT      O 5881   7.324   4.557   3.071
 1880WAT     H1 5882   7.298   4.644   3.029
 1880WAT     H2 5883   7.424   4.546   3.067
 1881WAT      O 5884   5.851   4.487   2.098
 1881WAT     H1 5885   5.881   4.517   2.188
 1881WAT     H2 5886   5.775   4.422   2.108
 1882WAT      O 5887   4.862   6.358   9.080
 1882WAT     H1 5888   4.931   6.415   9.037
 1882WAT     H2 5889   4.897   6.324   9.168
 1883WAT      O 5890   3.409   4.270   8.165
 1883WAT     H1 5891   3.352   4.318   8.099
 1883WAT     H2 5892   3.417   4.323   8.249
 1884WAT      O 5893   2.924   6.508   1.924
 1884WAT     H1 5894   2.985   6.533   1.999
 1884WAT     H2 5895   2.927   6.580   1.854
 1885WAT      O 5896   0.570   6.311   1.187
 1885WAT     H1 5897   0.641   6.262   1.136
 1885WAT     H2 5898   0.551   6.398   1.143
 1886WAT      O 5899   7.036   7.706   9.884
 1886WAT     H1 5900   7.073   7.722   9.792
 1886WAT     H2 5901   6.971   7.778   9.907
 1887WAT      O 5902   9.070   6.255   7.911
 1887WAT     H1 5903   9.145   6.300   7.960
 1887WAT     H2 5904   9.037   6.316   7.839
 1888WAT      O 5905   4.399   9.119   4.564
 1888WAT     H1 5906   4.305   9.093   4.586
 1888WAT     H2 5907   4.456   9.114   4.646
 1889WAT      O 5908   8.667   1.740   4.599
 1889WAT     H1 5909   8.705   1.821   4.643
 1889WAT     H2 5910   8.597   1.769   4.533
 1890WAT      O 5911   8.514   7.622   2.950
 1890WAT     H1 5912   8.431   7.567   2.952
 1890WAT     H2 5913   8.505   7.694   2.882
 1891WAT      O 5914   7.930   0.399   6.582
 1891WAT     H1 5915   7.854   0.374   6.641
 1891WAT     H2 5916   7.902   0.473   6.520
 1892WAT      O 5917   6.603   5.685   3.035
 1892WAT     H1 5918   6.583   5.592   3.005
 1892WAT     H2 5919   6.624   5.685   3.133
 1893WAT      O 5920   6.625   0.937   3.557
 1893WAT     H1 5921   6.617   0.842   3.529
 1893WAT     H2 5922   6.534   0.974   3.576
 1894WAT      O 5923   0.922   5.701   3.058
 1894WAT     H1 5924   0.999   5.761   3.037
 1894WAT     H2 5925   0.895   5.651   2.976
 1895WAT      O 5926   7.871   0.131   4.674
 1895WAT     H1 5927   7.905   0.208   4.728
 1895WAT     H2 5928   7.934   0.054   4.681
 1896WAT      O 5929   7.248   1.486   7.135
 1896WAT     H1 5930   7.156   1.488   7.173
 1896WAT     H2 5931   7.267   1.571   7.087
 1897WAT      O 5932   7.526   5.937   1.437
 1897WAT     H1 5933   7.609   5.882   1.448
 1897WAT     H2 5934   7.448   5.886   1.473
 1898WAT      O 5935   7.144   4.095   8.379
 1898WAT     H1 5936   7.071   4.092   8.448
 1898WAT     H2 5937   7.232   4.081   8.423
 1899WAT      O 5938   6.708   2.723   8.357
 1899WAT     H1 5939   6.639   2.697   8.290
 1899WAT     H2 5940   6.713   2.655   8.429
 1900WAT      O 5941   0.686   4.194   3.217
 1900WAT     H1 5942   0.661   4.161   3.126
 1900WAT     H2 5943   0.742   4.277   3.208
 1901WAT      O 5944   1.648   7.557   9.248
 1901WAT     H1 5945   1.683   7.465   9.263
 1901WAT     H2 5946   1.724   7.620   9.232
 1902WAT      O 5947   2.383   4.431   2.211
 1902WAT     H1 5948   2.429   4.381   2.284
 1902WAT     H2 5949   2.385   4.529   2.232
 1903WAT      O 5950   9.202   3.799   0.177
 1903WAT     H1 5951   9.105   3.808   0.198
 1903WAT     H2 5952   9.251   3.770   0.259
 1904WAT      O 5953   6.163   9.628   7.106
 1904WAT     H1 5954   6.243   9.580   7.143
 1904WAT     H2 5955   6.182   9.726   7.102
 1905WAT      O 5956   4.203   5.079   2.852
 1905WAT     H1 5957   4.265   5.021   2.799
 1905WAT     H2 5958   4.145   5.131   2.789
 1906WAT      O 5959   2.752   6.927   7.354
 1906WAT     H1 5960   2.767   6.911   7.257
 1906WAT     H2 5961   2.825   6.983   7.391
 1907WAT      O 5962   6.955   4.062   2.887
 1907WAT     H1 5963   6.876   4.048   2.828
 1907WAT     H2 5964   6.998   3.973   2.907
 1908WAT      O 5965   0.578   0.797   8.608
 1908WAT     H1 5966   0.674   0.767   8.603
 1908WAT     H2 5967   0.554   0.814   8.704
 1909WAT      O 5968   8.768   0.782   1.859
 1909WAT     H1 5969   8.676   0.746   1.873
 1909WAT     H2 5970   8.801   0.756   1.769
 1910WAT      O 5971   5.333   5.862   9.807
 1910WAT     H1 5972   5.262   5.860   9.737
 1910WAT     H2 5973   5.325   5.946   9.861
 1911WAT      O 5974   7.591   3.528   6.497
 1911WAT     H1 5975   7.537   3.482   6.426
 1911WAT     H2 5976   7.590   3.626   6.481
 1912WAT      O 5977   7.398   2.830   8.975
 1912WAT     H1 5978   7.318   2.883   9.002
 1912WAT     H2 5979   7.481   2.877   9.004
 1913WAT      O 5980   5.026   7.443   2.329
 1913WAT     H1 5981   5.027   7.376   2.255
 1913WAT     H2 5982   5.034   7.395   2.417
 1914WAT      O 5983   6.488   1.579   7.158
 1914WAT     H1 5984   6.484   1.493   7.210
 1914WAT     H2 5985   6.396   1.608   7.134
 1915WAT      O 5986   5.619   6.054   4.715
 1915WAT     H1 5987   5.567   6.051   4.630
 1915WAT     H2 5988   5.592   6.134   4.768
 1916WAT      O 5989   5.749   7.262   7.024
 1916WAT     H1 5990   5.726   7.274   7.120
 1916WAT     H2 5991   5.786   7.347   6.987
 1917WAT      O 5992   8.153   0.900   6.845
 1917WAT     H1 5993   8.230   0.853   6.888
 1917WAT     H2 5994   8.110   0.839   6.779
 1918WAT      O 5995   9.257   7.789   2.330
 1918WAT     H1 5996   9.310   7.869   2.360
 1918WAT     H2 5997   9.284   7.765   2.236
 1919WAT      O 5998   4.428   3.986   7.278
 1919WAT     H1 5999   4.363   4.002   7.203
 1919WAT     H2 6000   4.438   3.887   7.292
 1920WAT      O 6001   0.790   2.625   0.316
 1920WAT     H1 6002   0.751   2.708   0.355
 1920WAT     H2 6003   0.790   2.552   0.384
 1921WAT      O 6004   7.235   1.793   1.704
 1921WAT     H1 6005   7.290   1.717   1.736
 1921WAT     H2 6006   7.236   1.867   1.772
 1922WAT      O 6007   3.867   4.237   8.154
 1922WAT     H1 6008   3.935   4.168   8.131
 1922WAT     H2 6009   3.901   4.293   8.229
 1923WAT      O 6010   4.528   5.469   6.096
 1923WAT     H1 6011   4.448   5.422   6.134
 1923WAT     H2 6012   4.528   5.564   6.126
 1924WAT      O 6013   7.608   0.205   7.974
 1924WAT     H1 6014   7.566   0.290   7.941
 1924WAT     H2 6015   7.633   0.148   7.895
 1925WAT      O 6016   4.506   3.444   8.964
 1925WAT     H1 6017   4.570   3.499   9.018
 1925WAT     H2 6018   4.551   3.412   8.881
 1926WAT      O 6019   1.478   2.719   3.625
 1926WAT     H1 6020   1.439   2.801   3.669
 1926WAT     H2 6021   1.428   2.638   3.656
 1927WAT      O 6022   3.446   1.129   4.454
 1927WAT     H1 6023   3.477   1.202   4.515
 1927WAT     H2 6024   3.489   1.042   4.481
 1928WAT      O 6025   3.422   7.487   7.591
 1928WAT     H1 6026   3.483   7.424   7.639
 1928WAT     H2 6027   3.466   7.517   7.506
 1929WAT      O 6028   2.003   6.418   9.233
 1929WAT     H1 6029   1.993   6.337   9.291
 1929WAT     H2 6030   1.937   6.488   9.262
 1930WAT      O 6031   3.468   0.474   3.461
 1930WAT     H1 6032   3.441   0.561   3.420
 1930WAT     H2 6033   3.413   0.456   3.542
 1931WAT      O 6034   2.747   7.817   0.797
 1931WAT     H1 6035   2.756   7.914   0.773
 1931WAT     H2 6036   2.789   7.800   0.886
 1932WAT      O 6037   3.500   9.622   0.457
 1932WAT     H1 6038   3.514   9.717   0.486
 1932WAT     H2 6039   3.453   9.620   0.369
 1933WAT      O 6040   8.070   9.508   5.458
 1933WAT     H1 6041   8.016   9.519   5.542
 1933WAT     H2 6042   8.094   9.598   5.422
 1934WAT      O 6043   2.762   1.261   3.673
 1934WAT     H1 6044   2.761   1.231   3.578
 1934WAT     H2 6045   2.729   1.355   3.679
 1935WAT      O 6046   4.760   2.942   7.877
 1935WAT     H1 6047   4.764   2.864   7.940
 1935WAT     H2 6048   4.776   3.026   7.927
 1936WAT      O 6049   6.052   4.504   8.646
 1936WAT     H1 6050   6.074   4.566   8.571
 1936WAT     H2 6051   6.055   4.409   8.614
 1937WAT      O 6052   1.055   9.676   3.506
 1937WAT     H1 6053   0.971   9.683   3.452
 1937WAT     H2 6054   1.115   9.753   3.485
 1938WAT      O 6055   5.558   9.556   0.189
 1938WAT     H1 6056   5.491   9.485   0.211
 1938WAT     H2 6057   5.548   9.633   0.252
 1939WAT      O 6058   8.128   9.734   5.323
 1939WAT     H1 6059   8.212   9.788   5.317
 1939WAT     H2 6060   8.049   9.792   5.304
 1940WAT      O 6061   6.564   9.557   3.912
 1940WAT     H1 6062   6.483   9.609   3.886
 1940WAT     H2 6063   6.640   9.581   3.851
 1941WAT      O 6064   0.998   7.085   1.061
 1941WAT     H1 6065   1.015   7.029   0.980
 1941WAT     H2 6066   1.061   7.163   1.063
 1942WAT      O 6067   0.732   5.726   7.887
 1942WAT     H1 6068   0.721   5.726   7.986
 1942WAT     H2 6069   0.828   5.710   7.864
 1943WAT      O 6070   6.177   6.565   6.734
 1943WAT     H1 6071   6.251   6.626   6.709
 1943WAT     H2 6072   6.200   6.471   6.706
 1944WAT      O 6073   3.470   3.685   3.235
 1944WAT     H1 6074   3.386   3.738   3.228
 1944WAT     H2 6075   3.493   3.646   3.146
 1945WAT      O 6076   8.775   0.228   9.359
 1945WAT     H1 6077   8.863   0.186   9.378
 1945WAT     H2 6078   8.771   0.318   9.404
 1946WAT      O 6079   1.901   0.681   4.296
 1946WAT     H1 6080   1.839   0.637   4.231
 1946WAT     H2 6081   1.859   0.764   4.331
 1947WAT      O 6082   4.423   2.293   2.374
 1947WAT     H1 6083   4.491   2.365   2.364
 1947WAT     H2 6084   4.348   2.310   2.310
 1948WAT      O 6085   2.428   0.795   9.859
 1948WAT     H1 6086   2.425   0.757   9.766
 1948WAT     H2 6087   2.336   0.795   9.898
 1949WAT      O 6088   4.651   9.391   5.958
 1949WAT     H1 6089   4.615   9.457   5.893
 1949WAT     H2 6090   4.745   9.368   5.934
 1950WAT      O 6091   2.228   1.041   9.840
 1950WAT     H1 6092   2.183   1.011   9.756
 1950WAT     H2 6093   2.236   0.963   9.903
 1951WAT      O 6094   0.772   8.803   2.214
 1951WAT     H1 6095   0.787   8.870   2.286
 1951WAT     H2 6096   0.794   8.712   2.248
 1952WAT      O 6097   2.395   4.189   5.333
 1952WAT     H1 6098   2.375   4.231   5.422
 1952WAT     H2 6099   2.372   4.092   5.336
 1953WAT      O 6100   1.442   0.115   2.185
 1953WAT     H1 6101   1.483   0.024   2.197
 1953WAT     H2 6102   1.343   0.108   2.193
 1954WAT      O 6103   6.055   7.438   1.722
 1954WAT     H1 6104   6.115   7.453   1.800
 1954WAT     H2 6105   6.110   7.430   1.639
 1955WAT      O 6106   5.455   6.221   8.047
 1955WAT     H1 6107   5.367   6.268   8.045
 1955WAT     H2 6108   5.441   6.123   8.036
 1956WAT      O 6109   3.853   8.445   1.671
 1956WAT     H1 6110   3.935   8.435   1.727
 1956WAT     H2 6111   3.860   8.387   1.590
 1957WAT      O 6112   5.449   8.651   6.940
 1957WAT     H1 6113   5.447   8.654   7.040
 1957WAT     H2 6114   5.495   8.567   6.910
 1958WAT      O 6115   5.471   2.268   1.541
 1958WAT     H1 6116   5.532   2.264   1.620
 1958WAT     H2 6117   5.506   2.208   1.469
 1959WAT      O 6118   4.182   5.314   0.184
 1959WAT     H1 6119   4.132   5.249   0.126
 1959WAT     H2 6120   4.233   5.377   0.126
 1960WAT      O 6121   3.363   0.502   0.108
 1960WAT     H1 6122   3.334   0.597   0.120
 1960WAT     H2 6123   3.397   0.489   0.015
 1961WAT      O 6124   1.619   4.718   7.595
 1961WAT     H1 6125   1.718   4.721   7.610
 1961WAT     H2 6126   1.577   4.798   7.638
 1962WAT      O 6127   4.580   1.645   7.876
 1962WAT     H1 6128   4.512   1.623   7.807
 1962WAT     H2 6129   4.621   1.560   7.911
 1963WAT      O 6130   1.462   2.005   6.692
 1963WAT     H1 6131   1.473   2.005   6.792
 1963WAT     H2 6132   1.374   2.047   6.669
 1964WAT      O 6133   9.220   3.467   3.661
 1964WAT     H1 6134   9.277   3.532   3.613
 1964WAT     H2 6135   9.171   3.513   3.735
 1965WAT      O 6136   3.994   3.019   1.329
 1965WAT     H1 6137   4.072   3.016   1.391
 1965WAT     H2 6138   4.020   3.068   1.246
 1966WAT      O 6139   0.269   3.962   7.508
 1966WAT     H1 6140   0.203   3.887   7.507
 1966WAT     H2 6141   0.221   4.048   7.522
 1967WAT      O 6142   4.325   3.565   6.431
 1967WAT     H1 6143   4.258   3.607   6.492
 1967WAT     H2 6144   4.361   3.634   6.368
 1968WAT      O 6145   4.028   3.452   4.710
 1968WAT     H1 6146   4.084   3.383   4.665
 1968WAT     H2 6147   3.936   3.451   4.670
 1969WAT      O 6148   1.904   0.347   1.405
 1969WAT     H1 6149   1.943   0.386   1.488
 1969WAT     H2 6150   1.805   0.357   1.406
 1970WAT      O 6151   6.878   1.210   8.219
 1970WAT     H1 6152   6.809   1.192   8.289
 1970WAT     H2 6153   6.857   1.158   8.137
 1971WAT      O 6154   7.041   2.606   6.026
 1971WAT     H1 6155   6.976   2.677   6.053
 1971WAT     H2 6156   6.993   2.519   6.019
 1972WAT      O 6157   6.832   8.131   9.110
 1972WAT     H1 6158   6.871   8.039   9.113
 1972WAT     H2 6159   6.798   8.156   9.201
 1973WAT      O 6160   5.693   0.958   8.632
 1973WAT     H1 6161   5.735   0.985   8.544
 1973WAT     H2 6162   5.617   0.895   8.615
 1974WAT      O 6163   1.221   8.917   5.132
 1974WAT     H1 6164   1.173   8.833   5.106
 1974WAT     H2 6165   1.316   8.896   5.153
 1975WAT      O 6166   1.656   1.530   7.200
 1975WAT     H1 6167   1.701   1.618   7.183
 1975WAT     H2 6168   1.672   1.469   7.122
 1976WAT      O 6169   6.081   0.342   1.115
 1976WAT     H1 6170   6.029   0.274   1.168
 1976WAT     H2 6171   6.101   0.304   1.025
 1977WAT      O 6172   4.916   5.283   2.592
 1977WAT     H1 6173   4.910   5.382   2.601
 1977WAT     H2 6174   4.838   5.241   2.638
 1978WAT      O 6175   4.539   5.713   6.180
 1978WAT     H1 6176   4.587   5.745   6.099
 1978WAT     H2 6177   4.603   5.709   6.257
 1979WAT      O 6178   1.784   3.945   8.110
 1979WAT     H1 6179   1.803   4.022   8.172
 1979WAT     H2 6180   1.840   3.866   8.136
 1980WAT      O 6181   9.825   4.660   1.669
 1980WAT     H1 6182   9.799   4.619   1.756
 1980WAT     H2 6183   9.844   4.588   1.602
 1981WAT      O 6184   5.315   3.530   7.890
 1981WAT     H1 6185   5.280   3.436   7.884
 1981WAT     H2 6186   5.378   3.536   7.967
 1982WAT      O 6187   1.728   9.027   0.236
 1982WAT     H1 6188   1.683   9.089   0.172
 1982WAT     H2 6189   1.770   8.951   0.186
 1983WAT      O 6190   6.927   4.969   6.857
 1983WAT     H1 6191   6.998   4.976   6.927
 1983WAT     H2 6192   6.964   4.922   6.777
 1984WAT      O 6193   5.739   3.885   3.232
 1984WAT     H1 6194   5.718   3.790   3.252
 1984WAT     H2 6195   5.711   3.942   3.309
 1985WAT      O 6196   4.391   6.548   7.176
 1985WAT     H1 6197   4.347   6.461   7.153
 1985WAT     H2 6198   4.367   6.574   7.269
 1986WAT      O 6199   7.939   3.412   5.229
 1986WAT     H1 6200   7.877   3.357   5.173
 1986WAT     H2 6201   8.007   3.455   5.170
 1987WAT      O 6202   5.809   1.774   7.084
 1987WAT     H1 6203   5.855   1.760   6.996
 1987WAT     H2 6204   5.876   1.800   7.153
 1988WAT      O 6205   0.734   6.055   3.269
 1988WAT     H1 6206   0.737   6.094   3.178
 1988WAT     H2 6207   0.741   5.955   3.263
 1989WAT      O 6208   4.204   9.416   0.821
 1989WAT     H1 6209   4.114   9.375   0.805
 1989WAT     H2 6210   4.265   9.347   0.859
 1990WAT      O 6211   0.080   8.534   8.439
 1990WAT     H1 6212   0.101   8.478   8.359
 1990WAT     H2 6213  -0.016   8.563   8.436
 1991WAT      O 6214   8.818   1.691   4.348
 1991WAT     H1 6215   8.911   1.702   4.383
 1991WAT     H2 6216   8.752   1.714   4.420
 1992WAT      O 6217   7.003   4.832   1.510
 1992WAT     H1 6218   6.981   4.735   1.517
 1992WAT     H2 6219   7.070   4.856   1.580
 1993WAT      O 6220   8.340   8.563   0.260
 1993WAT     H1 6221   8.360   8.616   0.177
 1993WAT     H2 6222   8.425   8.546   0.309
 1994WAT      O 6223   9.367   8.283   4.074
 1994WAT     H1 6224   9.355   8.338   4.156
 1994WAT     H2 6225   9.464   8.261   4.062
 1995WAT      O 6226   1.252   3.845   1.009
 1995WAT     H1 6227   1.193   3.801   0.942
 1995WAT     H2 6228   1.230   3.943   1.013
 1996WAT      O 6229   5.676   1.385   3.622
 1996WAT     H1 6230   5.717   1.302   3.584
 1996WAT     H2 6231   5.713   1.465   3.574
 1997WAT      O 6232   4.159   2.559   3.780
 1997WAT     H1 6233   4.106   2.508   3.712
 1997WAT     H2 6234   4.183   2.649   3.742
 1998WAT      O 6235   6.030   7.824   5.845
 1998WAT     H1 6236   6.098   7.897   5.846
 1998WAT     H2 6237   5.968   7.838   5.767
 1999WAT      O 6238   9.870   4.705   3.618
 1999WAT     H1 6239   9.916   4.638   3.559
 1999WAT     H2 6240   9.857   4.790   3.566
 2000WAT      O 6241   1.342   7.369   1.578
 2000WAT     H1 6242   1.254   7.323   1.586
 2000WAT     H2 6243   1.405   7.337   1.649
 2001WAT      O 6244   3.923   7.164   5.417
 2001WAT     H1 6245   4.011   7.139   5.378
 2001WAT     H2 6246   3.853   7.099   5.387
 2002WAT      O 6247   1.024   9.448   7.844
 2002WAT     H1 6248   1.097   9.396   7.890
 2002WAT     H2 6249   1.065   9.524   7.793
 2003WAT      O 6250   2.060   6.119   0.327
 2003WAT     H1 6251   1.963   6.101   0.346
 2003WAT     H2 6252   2.100   6.169   0.404
 2004WAT      O 6253   7.704   2.004   8.389
 2004WAT     H1 6254   7.787   1.957   8.360
 2004WAT     H2 6255   7.628   1.939   8.391
 2005WAT      O 6256   5.439   5.772   8.136
 2005WAT     H1 6257   5.386   5.779   8.220
 2005WAT     H2 6258   5.488   5.685   8.135
 2006WAT      O 6259   9.414   0.357   9.128
 2006WAT     H1 6260   9.430   0.445   9.174
 2006WAT     H2 6261   9.364   0.296   9.189
 2007WAT      O 6262   0.103   4.964   3.313
 2007WAT     H1 6263   0.054   4.915   3.242
 2007WAT     H2 6264   0.202   4.952   3.299
 2008WAT      O 6265   7.830   5.677   9.688
 2008WAT     H1 6266   7.817   5.609   9.761
 2008WAT     H2 6267   7.743   5.723   9.671
 2009WAT      O 6268   5.752   7.606   6.557
 2009WAT     H1 6269   5.834   7.660   6.578
 2009WAT     H2 6270   5.753   7.580   6.461
 2010WAT      O 6271   0.628   2.945   8.003
 2010WAT     H1 6272   0.554   2.929   8.068
 2010WAT     H2 6273   0.669   3.034   8.021
 2011WAT      O 6274   2.918   2.663   6.463
 2011WAT     H1 6275   2.941   2.602   6.540
 2011WAT     H2 6276   2.881   2.749   6.498
 2012WAT      O 6277   3.770   8.837   3.703
 2012WAT     H1 6278   3.840   8.907   3.692
 2012WAT     H2 6279   3.780   8.793   3.792
 2013WAT      O 6280   7.247   0.930   0.502
 2013WAT     H1 6281   7.166   0.894   0.456
 2013WAT     H2 6282   7.323   0.936   0.437
 2014WAT      O 6283   9.052   9.543   0.315
 2014WAT     H1 6284   9.036   9.568   0.220
 2014WAT     H2 6285   9.118   9.606   0.355
 2015WAT      O 6286   4.383   1.920   1.728
 2015WAT     H1 6287   4.314   1.986   1.757
 2015WAT     H2 6288   4.404   1.858   1.804
 2016WAT      O 6289   4.737   8.925   6.844
 2016WAT     H1 6290   4.836   8.939   6.849
 2016WAT     H2 6291   4.704   8.886   6.930
 2017WAT      O 6292   4.702   3.577   4.506
 2017WAT     H1 6293   4.773   3.508   4.520
 2017WAT     H2 6294   4.612   3.535   4.519
 2018WAT      O 6295   9.636   7.249   1.805
 2018WAT     H1 6296   9.542   7.219   1.792
 2018WAT     H2 6297   9.662   7.310   1.731
 2019WAT      O 6298   6.661   0.980   7.460
 2019WAT     H1 6299   6.718   0.941   7.388
 2019WAT     H2 6300   6.565   0.958   7.442
 2020WAT      O 6301   8.214   8.883   0.094
 2020WAT     H1 6302   8.115   8.880   0.081
 2020WAT     H2 6303   8.257   8.812   0.038
 2021WAT      O 6304   4.869   4.202   4.371
 2021WAT     H1 6305   4.791   4.147   4.341
 2021WAT     H2 6306   4.952   4.146   4.369
 2022WAT      O 6307   0.408   7.339   3.270
 2022WAT     H1 6308   0.446   7.247   3.266
 2022WAT     H2 6309   0.447   7.395   3.197
 2023WAT      O 6310   3.741   3.155   1.314
 2023WAT     H1 6311   3.836   3.151   1.283
 2023WAT     H2 6312   3.719   3.249   1.341
 2024WAT      O 6313   8.801   0.404   6.482
 2024WAT     H1 6314   8.718   0.431   6.531
 2024WAT     H2 6315   8.879   0.457   6.517
 2025WAT      O 6316   1.348   8.595   5.916
 2025WAT     H1 6317   1.300   8.679   5.941
 2025WAT     H2 6318   1.290   8.540   5.856
 2026WAT      O 6319   3.428   9.212   3.769
 2026WAT     H1 6320   3.462   9.238   3.679
 2026WAT     H2 6321   3.397   9.117   3.767
 2027WAT      O 6322   0.770   5.707   5.796
 2027WAT     H1 6323   0.770   5.611   5.823
 2027WAT     H2 6324   0.688   5.752   5.831
 2028WAT      O 6325   0.861   3.968   8.332
 2028WAT     H1 6326   0.828   3.925   8.416
 2028WAT     H2 6327   0.841   4.066   8.335
 2029WAT      O 6328   5.745   8.041   1.502
 2029WAT     H1 6329   5.837   8.037   1.462
 2029WAT     H2 6330   5.751   8.038   1.601
 2030WAT      O 6331   7.587   2.973   0.006
 2030WAT     H1 6332   7.548   3.060   0.035
 2030WAT     H2 6333   7.667   2.988  -0.051
 2031WAT      O 6334   7.364   1.845   9.359
 2031WAT     H1 6335   7.270   1.854   9.391
 2031WAT     H2 6336   7.394   1.931   9.318
 2032WAT      O 6337   3.129   9.117   8.631
 2032WAT     H1 6338   3.151   9.207   8.671
 2032WAT     H2 6339   3.131   9.124   8.531
 2033WAT      O 6340   3.384   4.040   5.358
 2033WAT     H1 6341   3.372   4.082   5.448
 2033WAT     H2 6342   3.458   4.086   5.309
 2034WAT      O 6343   5.671   7.566   7.310
 2034WAT     H1 6344   5.611   7.596   7.235
 2034WAT     H2 6345   5.697   7.470   7.295
 2035WAT      O 6346   4.580   0.567   1.176
 2035WAT     H1 6347   4.680   0.574   1.176
 2035WAT     H2 6348   4.553   0.472   1.165
 2036WAT      O 6349   6.740   7.912   4.650
 2036WAT     H1 6350   6.788   7.999   4.659
 2036WAT     H2 6351   6.743   7.863   4.737
 2037WAT      O 6352   0.527   5.509   7.163
 2037WAT     H1 6353   0.615   5.530   7.205
 2037WAT     H2 6354   0.531   5.419   7.120
 2038WAT      O 6355   4.771   5.633   2.210
 2038WAT     H1 6356   4.796   5.689   2.131
 2038WAT     H2 6357   4.836   5.558   2.219
 2039WAT      O 6358   4.033   6.253   1.877
 2039WAT     H1 6359   3.946   6.260   1.926
 2039WAT     H2 6360   4.027   6.180   1.808
 2040WAT      O 6361   9.664   8.565   1.638
 2040WAT     H1 6362   9.742   8.598   1.586
 2040WAT     H2 6363   9.656   8.617   1.723
 2041WAT      O 6364   9.325   1.159   3.881
 2041WAT     H1 6365   9.328   1.228   3.809
 2041WAT     H2 6366   9.415   1.117   3.890
 2042WAT      O 6367   5.743   2.563   1.417
 2042WAT     H1 6368   5.837   2.583   1.447
 2042WAT     H2 6369   5.696   2.648   1.396
 2043WAT      O 6370   8.117   0.601   7.366
 2043WAT     H1 6371   8.196   0.541   7.363
 2043WAT     H2 6372   8.087   0.620   7.272
 2044WAT      O 6373   0.490   4.700   7.872
 2044WAT     H1 6374   0.428   4.622   7.861
 2044WAT     H2 6375   0.474   4.765   7.797
 2045WAT      O 6376   1.277   1.258   3.180
 2045WAT     H1 6377   1.361   1.204   3.183
 2045WAT     H2 6378   1.213   1.226   3.250
 2046WAT      O 6379   1.593   7.374   7.945
 2046WAT     H1 6380   1.585   7.473   7.927
 2046WAT     H2 6381   1.678   7.356   7.992
 2047WAT      O 6382   3.808   1.539   7.558
 2047WAT     H1 6383   3.875   1.467   7.542
 2047WAT     H2 6384   3.809   1.603   7.481
 2048WAT      O 6385   8.806   4.234   6.330
 2048WAT     H1 6386   8.892   4.184   6.339
 2048WAT     H2 6387   8.801   4.305   6.401
 2049WAT      O 6388   4.503   7.045   6.551
 2049WAT     H1 6389   4.570   6.972   6.560
 2049WAT     H2 6390   4.430   7.032   6.618
 2050WAT      O 6391   9.042   5.358   1.167
 2050WAT     H1 6392   9.046   5.424   1.242
 2050WAT     H2 6393   8.992   5.276   1.196
 2051WAT      O 6394   5.740   9.507   3.108
 2051WAT     H1 6395   5.680   9.434   3.141
 2051WAT     H2 6396   5.690   9.566   3.044
 2052WAT      O 6397   7.987   7.813   0.502
 2052WAT     H1 6398   7.895   7.778   0.524
 2052WAT     H2 6399   8.043   7.738   0.466
 2053WAT      O 6400   5.643   6.995   2.579
 2053WAT     H1 6401   5.624   7.059   2.504
 2053WAT     H2 6402   5.726   7.023   2.627
 2054WAT      O 6403   2.737   5.386   5.457
 2054WAT     H1 6404   2.737   5.484   5.435
 2054WAT     H2 6405   2.731   5.333   5.373
 2055WAT      O 6406   1.271   5.917   9.176
 2055WAT     H1 6407   1.369   5.920   9.155
 2055WAT     H2 6408   1.220   5.895   9.093
 2056WAT      O 6409   1.979   6.634   1.049
 2056WAT     H1 6410   1.919   6.555   1.065
 2056WAT     H2 6411   1.978   6.657   0.952
 2057WAT      O 6412   5.674   0.960   6.519
 2057WAT     H1 6413   5.762   0.934   6.480
 2057WAT     H2 6414   5.600   0.921   6.464
 2058WAT      O 6415   9.049   6.647   1.604
 2058WAT     H1 6416   8.993   6.655   1.522
 2058WAT     H2 6417   8.995   6.607   1.678
 2059WAT      O 6418   4.362   8.691   3.513
 2059WAT     H1 6419   4.287   8.756   3.509
 2059WAT     H2 6420   4.412   8.702   3.599
 2060WAT      O 6421   5.372   0.922   5.087
 2060WAT     H1 6422   5.339   0.838   5.129
 2060WAT     H2 6423   5.398   0.903   4.992
 2061WAT      O 6424   3.356   7.076   3.017
 2061WAT     H1 6425   3.438   7.035   2.976
 2061WAT     H2 6426   3.383   7.140   3.089
 2062WAT      O 6427   3.249   9.465   9.526
 2062WAT     H1 6428   3.215   9.540   9.469
 2062WAT     H2 6429   3.215   9.477   9.619
 2063WAT      O 6430   7.902   3.180   9.068
 2063WAT     H1 6431   7.921   3.150   9.162
 2063WAT     H2 6432   7.829   3.124   9.029
 2064WAT      O 6433   4.989   4.533   3.469
 2064WAT     H1 6434   4.897   4.541   3.429
 2064WAT     H2 6435   4.983   4.539   3.568
 2065WAT      O 6436   5.696   2.859   3.613
 2065WAT     H1 6437   5.644   2.799   3.551
 2065WAT     H2 6438   5.775   2.895   3.565
 2066WAT      O 6439   4.246   3.915   1.664
 2066WAT     H1 6440   4.298   3.830   1.667
 2066WAT     H2 6441   4.177   3.911   1.592
 2067WAT      O 6442   4.151   9.399   7.922
 2067WAT     H1 6443   4.214   9.439   7.856
 2067WAT     H2 6444   4.200   9.377   8.007
 2068WAT      O 6445   4.823   7.572   7.492
 2068WAT     H1 6446   4.861   7.525   7.412
 2068WAT     H2 6447   4.787   7.504   7.556
 2069WAT      O 6448   6.548   3.589   0.608
 2069WAT     H1 6449   6.536   3.549   0.518
 2069WAT     H2 6450   6.642   3.576   0.639
 2070WAT      O 6451   1.395   6.751   0.220
 2070WAT     H1 6452   1.486   6.780   0.250
 2070WAT     H2 6453   1.405   6.678   0.153
 2071WAT      O 6454   6.578   5.473   4.543
 2071WAT     H1 6455   6.531   5.447   4.459
 2071WAT     H2 6456   6.525   5.442   4.622
 2072WAT      O 6457   3.595   5.714   6.792
 2072WAT     H1 6458   3.536   5.634   6.796
 2072WAT     H2 6459   3.668   5.698   6.725
 2073WAT      O 6460   6.179   2.096   2.069
 2073WAT     H1 6461   6.194   2.159   2.144
 2073WAT     H2 6462   6.217   2.134   1.984
 2074WAT      O 6463   1.818   8.169   8.945
 2074WAT     H1 6464   1.787   8.137   9.034
 2074WAT     H2 6465   1.764   8.248   8.916
 2075WAT      O 6466   2.946   0.312   5.605
 2075WAT     H1 6467   3.028   0.358   5.638
 2075WAT     H2 6468   2.912   0.250   5.675
 2076WAT      O 6469   3.119   7.120   0.481
 2076WAT     H1 6470   3.104   7.053   0.409
 2076WAT     H2 6471   3.032   7.166   0.503
 2077WAT      O 6472   4.890   7.260   5.586
 2077WAT     H1 6473   4.808   7.293   5.634
 2077WAT     H2 6474   4.900   7.309   5.499
 2078WAT      O 6475   6.220   6.045   8.494
 2078WAT     H1 6476   6.249   6.125   8.441
 2078WAT     H2 6477   6.145   6.071   8.555
 2079WAT      O 6478   7.585   9.722   2.791
 2079WAT     H1 6479   7.509   9.740   2.728
 2079WAT     H2 6480   7.598   9.623   2.800
 2080WAT      O 6481   2.719   9.061   0.295
 2080WAT     H1 6482   2.755   9.074   0.387
 2080WAT     H2 6483   2.697   9.151   0.255
 2081WAT      O 6484   9.118   6.750   5.259
 2081WAT     H1 6485   9.167   6.738   5.173
 2081WAT     H2 6486   9.112   6.662   5.306
 2082WAT      O 6487   1.672   6.755   4.522
 2082WAT     H1 6488   1.755   6.742   4.468
 2082WAT     H2 6489   1.652   6.672   4.573
 2083WAT      O 6490   6.694   4.841   0.169
 2083WAT     H1 6491   6.780   4.792   0.152
 2083WAT     H2 6492   6.698   4.885   0.259
 2084WAT      O 6493   6.285   3.024   5.153
 2084WAT     H1 6494   6.315   3.115   5.125
 2084WAT     H2 6495   6.349   2.955   5.119
 2085WAT      O 6496   9.810   9.291   0.321
 2085WAT     H1 6497   9.753   9.313   0.399
 2085WAT     H2 6498   9.757   9.300   0.236
 2086WAT      O 6499   4.244   4.368   0.953
 2086WAT     H1 6500   4.313   4.439   0.939
 2086WAT     H2 6501   4.154   4.402   0.926
 2087WAT      O 6502   4.311   3.725   3.028
 2087WAT     H1 6503   4.319   3.699   2.932
 2087WAT     H2 6504   4.218   3.759   3.046
 2088WAT      O 6505   9.675   0.718   3.627
 2088WAT     H1 6506   9.661   0.623   3.654
 2088WAT     H2 6507   9.772   0.739   3.625
 2089WAT      O 6508   4.448   7.230   3.085
 2089WAT     H1 6509   4.518   7.272   3.029
 2089WAT     H2 6510   4.379   7.298   3.110
 2090WAT      O 6511   2.314   4.321   5.570
 2090WAT     H1 6512   2.247   4.277   5.629
 2090WAT     H2 6513   2.388   4.359   5.626
 2091WAT      O 6514   9.796   7.689   1.498
 2091WAT     H1 6515   9.798   7.788   1.494
 2091WAT     H2 6516   9.773   7.652   1.408
 2092WAT      O 6517   2.523   1.029   3.666
 2092WAT     H1 6518   2.541   0.940   3.624
 2092WAT     H2 6519   2.450   1.020   3.734
 2093WAT      O 6520   2.190   1.078   8.013
 2093WAT     H1 6521   2.244   1.135   7.952
 2093WAT     H2 6522   2.244   1.054   8.094
 2094WAT      O 6523   1.940   2.316   9.379
 2094WAT     H1 6524   2.031   2.335   9.415
 2094WAT     H2 6525   1.943   2.233   9.322
 2095WAT      O 6526   7.785   4.746   5.649
 2095WAT     H1 6527   7.718   4.699   5.592
 2095WAT     H2 6528   7.766   4.844   5.648
 2096WAT      O 6529   5.414   8.335   8.422
 2096WAT     H1 6530   5.325   8.296   8.398
 2096WAT     H2 6531   5.443   8.301   8.511
 2097WAT      O 6532   7.601   7.600   6.142
 2097WAT     H1 6533   7.599   7.647   6.054
 2097WAT     H2 6534   7.648   7.513   6.131
 2098WAT      O 6535   5.779   5.660   7.717
 2098WAT     H1 6536   5.821   5.717   7.646
 2098WAT     H2 6537   5.686   5.635   7.689
 2099WAT      O 6538   0.498   5.305   7.448
 2099WAT     H1 6539   0.519   5.378   7.383
 2099WAT     H2 6540   0.400   5.285   7.445
 2100WAT      O 6541   3.162   3.656   9.008
 2100WAT     H1 6542   3.075   3.632   9.051
 2100WAT     H2 6543   3.237   3.633   9.070
 2101WAT      O 6544   0.310   0.057   3.007
 2101WAT     H1 6545   0.293  -0.016   2.941
 2101WAT     H2 6546   0.393   0.036   3.059
 2102WAT      O 6547   1.159   4.075   2.540
 2102WAT     H1 6548   1.100   3.995   2.525
 2102WAT     H2 6549   1.214   4.091   2.458
 2103WAT      O 6550   6.658   9.199   0.441
 2103WAT     H1 6551   6.720   9.251   0.383
 2103WAT     H2 6552   6.579   9.256   0.464
 2104WAT      O 6553   0.255   7.715   9.586
 2104WAT     H1 6554   0.349   7.699   9.558
 2104WAT     H2 6555   0.232   7.811   9.570
 2105WAT      O 6556   1.142   5.166   5.644
 2105WAT     H1 6557   1.172   5.165   5.549
 2105WAT     H2 6558   1.209   5.117   5.700
 2106WAT      O 6559   9.717   4.420   3.457
 2106WAT     H1 6560   9.722   4.509   3.411
 2106WAT     H2 6561   9.802   4.370   3.442
 2107WAT      O 6562   1.566   1.916   8.646
 2107WAT     H1 6563   1.648   1.968   8.670
 2107WAT     H2 6564   1.488   1.979   8.642
 2108WAT      O 6565   0.773   7.856   2.029
 2108WAT     H1 6566   0.868   7.883   2.040
 2108WAT     H2 6567   0.769   7.772   1.974
 2109WAT      O 6568   5.433   0.215   9.211
 2109WAT     H1 6569   5.454   0.313   9.213
 2109WAT     H2 6570   5.495   0.169   9.148
 2110WAT      O 6571   3.596   2.608   6.497
 2110WAT     H1 6572   3.649   2.692   6.488
 2110WAT     H2 6573   3.592   2.581   6.594
 2111WAT      O 6574   6.182   9.106   2.177
 2111WAT     H1 6575   6.269   9.112   2.129
 2111WAT     H2 6576   6.120   9.177   2.142
 2112WAT      O 6577   3.929   6.242   2.975
 2112WAT     H1 6578   3.965   6.227   3.066
 2112WAT     H2 6579   3.892   6.156   2.939
 2113WAT      O 6580   0.396   6.029   2.196
 2113WAT     H1 6581   0.476   6.086   2.178
 2113WAT     H2 6582   0.407   5.942   2.147
 2114WAT      O 6583   7.531   4.343   1.453
 2114WAT     H1 6584   7.605   4.319   1.516
 2114WAT     H2 6585   7.508   4.264   1.397
 2115WAT      O 6586   9.490   7.658   4.768
 2115WAT     H1 6587   9.460   7.594   4.697
 2115WAT     H2 6588   9.476   7.752   4.737
 2116WAT      O 6589   0.289   6.108   6.571
 2116WAT     H1 6590   0.292   6.010   6.593
 2116WAT     H2 6591   0.244   6.158   6.645
 2117WAT      O 6592   9.448   9.307   5.933
 2117WAT     H1 6593   9.367   9.365   5.927
 2117WAT     H2 6594   9.498   9.311   5.847
 2118WAT      O 6595   6.993   8.628   8.468
 2118WAT     H1 6596   6.901   8.603   8.500
 2118WAT     H2 6597   7.060   8.569   8.513
 2119WAT      O 6598   5.951   4.885   8.600
 2119WAT     H1 6599   5.889   4.895   8.678
 2119WAT     H2 6600   5.936   4.960   8.535
 2120WAT      O 6601   2.267   7.571   1.119
 2120WAT     H1 6602   2.314   7.619   1.045
 2120WAT     H2 6603   2.331   7.557   1.195
 2121WAT      O 6604   7.716   1.277   7.714
 2121WAT     H1 6605   7.772   1.204   7.674
 2121WAT     H2 6606   7.639   1.297   7.654
 2122WAT      O 6607   2.648   8.206   1.267
 2122WAT     H1 6608   2.639   8.138   1.194
 2122WAT     H2 6609   2.739   8.199   1.309
 2123WAT      O 6610   0.945   8.953   1.670
 2123WAT     H1 6611   0.906   8.873   1.625
 2123WAT     H2 6612   0.948   8.937   1.769
 2124WAT      O 6613   1.224   1.585   7.644
 2124WAT     H1 6614   1.266   1.522   7.579
 2124WAT     H2 6615   1.194   1.667   7.596
 2125WAT      O 6616   0.035   2.513   6.395
 2125WAT     H1 6617   0.092   2.454   6.452
 2125WAT     H2 6618   0.082   2.600   6.381
 2126WAT      O 6619   9.072   2.791   9.013
 2126WAT     H1 6620   8.987   2.814   8.966
 2126WAT     H2 6621   9.136   2.749   8.949
 2127WAT      O 6622   0.818   7.284   9.000
 2127WAT     H1 6623   0.748   7.222   8.965
 2127WAT     H2 6624   0.874   7.317   8.923
 2128WAT      O 6625   6.754   4.473   9.424
 2128WAT     H1 6626   6.771   4.556   9.479
 2128WAT     H2 6627   6.666   4.482   9.378
 2129WAT      O 6628   3.232   6.229   3.659
 2129WAT     H1 6629   3.329   6.249   3.673
 2129WAT     H2 6630   3.223   6.137   3.619
 2130WAT      O 6631   5.071   6.121   1.214
 2130WAT     H1 6632   5.103   6.186   1.145
 2130WAT     H2 6633   5.114   6.142   1.301
 2131WAT      O 6634   6.904   2.060   3.512
 2131WAT     H1 6635   6.918   2.080   3.609
 2131WAT     H2 6636   6.819   2.104   3.482
 2132WAT      O 6637   9.109   9.111   2.207
 2132WAT     H1 6638   9.177   9.048   2.245
 2132WAT     H2 6639   9.021   9.064   2.201
 2133WAT      O 6640   3.781   5.216   4.626
 2133WAT     H1 6641   3.763   5.118   4.619
 2133WAT     H2 6642   3.697   5.267   4.607
 2134WAT      O 6643   6.282   5.024   1.611
 2134WAT     H1 6644   6.352   4.974   1.559
 2134WAT     H2 6645   6.308   5.027   1.708
 2135WAT      O 6646   4.930   1.228   4.118
 2135WAT     H1 6647   4.884   1.279   4.045
 2135WAT     H2 6648   4.878   1.239   4.203
 2136WAT      O 6649   7.555   3.445   6.767
 2136WAT     H1 6650   7.462   3.478   6.784
 2136WAT     H2 6651   7.579   3.460   6.671
 2137WAT      O 6652   1.164   0.157   2.119
 2137WAT     H1 6653   1.114   0.243   2.128
 2137WAT     H2 6654   1.143   0.099   2.198
 2138WAT      O 6655   7.217   2.747   1.860
 2138WAT     H1 6656   7.295   2.714   1.913
 2138WAT     H2 6657   7.245   2.823   1.802
 2139WAT      O 6658   3.113   3.716   1.233
 2139WAT     H1 6659   3.103   3.705   1.134
 2139WAT     H2 6660   3.160   3.636   1.271
 2140WAT      O 6661   4.500   1.715   4.854
 2140WAT     H1 6662   4.503   1.654   4.933
 2140WAT     H2 6663   4.542   1.803   4.879
 2141WAT      O 6664   6.290   2.287   8.979
 2141WAT     H1 6665   6.267   2.331   8.892
 2141WAT     H2 6666   6.343   2.204   8.961
 2142WAT      O 6667   5.334   1.464   2.385
 2142WAT     H1 6668   5.418   1.433   2.340
 2142WAT     H2 6669   5.257   1.452   2.322
 2143WAT      O 6670   3.524   8.768   7.725
 2143WAT     H1 6671   3.521   8.868   7.720
 2143WAT     H2 6672   3.442   8.730   7.683
 2144WAT      O 6673   6.315   4.857   3.916
 2144WAT     H1 6674   6.217   4.849   3.933
 2144WAT     H2 6675   6.334   4.835   3.821
 2145WAT      O 6676   0.175   7.142   1.695
 2145WAT     H1 6677   0.246   7.080   1.729
 2145WAT     H2 6678   0.085   7.107   1.721
 2146WAT      O 6679   8.390   0.884   3.246
 2146WAT     H1 6680   8.348   0.793   3.241
 2146WAT     H2 6681   8.489   0.876   3.240
 2147WAT      O 6682   4.263   9.095   8.814
 2147WAT     H1 6683   4.317   9.042   8.879
 2147WAT     H2 6684   4.214   9.167   8.863
 2148WAT      O 6685   1.716   4.356   8.495
 2148WAT     H1 6686   1.722   4.319   8.588
 2148WAT     H2 6687   1.788   4.424   8.482
 2149WAT      O 6688   5.883   5.291   8.111
 2149WAT     H1 6689   5.930   5.380   8.108
 2149WAT     H2 6690   5.934   5.226   8.055
 2150WAT      O 6691   5.927   0.711   5.052
 2150WAT     H1 6692   5.855   0.770   5.088
 2150WAT     H2 6693   5.900   0.676   4.962
 2151WAT      O 6694   8.626   3.557   5.919
 2151WAT     H1 6695   8.723   3.545   5.941
 2151WAT     H2 6696   8.577   3.589   6.000
 2152WAT      O 6697   6.122   5.869   4.725
 2152WAT     H1 6698   6.138   5.929   4.647
 2152WAT     H2 6699   6.040   5.899   4.774
 2153WAT      O 6700   4.788   5.846   2.019
 2153WAT     H1 6701   4.879   5.888   2.027
 2153WAT     H2 6702   4.777   5.806   1.928
 2154WAT      O 6703   8.579   4.295   5.698
 2154WAT     H1 6704   8.647   4.341   5.640
 2154WAT     H2 6705   8.487   4.323   5.669
 2155WAT      O 6706   1.344   3.354   4.187
 2155WAT     H1 6707   1.380   3.313   4.103
 2155WAT     H2 6708   1.362   3.452   4.186
 2156WAT      O 6709   7.110   8.328   0.450
 2156WAT     H1 6710   7.066   8.407   0.492
 2156WAT     H2 6711   7.067   8.244   0.483
 2157WAT      O 6712   8.606   8.046   6.428
 2157WAT     H1 6713   8.682   8.068   6.489
 2157WAT     H2 6714   8.528   8.106   6.448
 2158WAT      O 6715   2.299   9.724   3.879
 2158WAT     H1 6716   2.238   9.777   3.938
 2158WAT     H2 6717   2.245   9.674   3.811
 2159WAT      O 6718   4.329   6.810   0.858
 2159WAT     H1 6719   4.314   6.906   0.881
 2159WAT     H2 6720   4.426   6.787   0.870
 2160WAT      O 6721   1.660   1.288   1.557
 2160WAT     H1 6722   1.739   1.339   1.591
 2160WAT     H2 6723   1.678   1.258   1.463
 2161WAT      O 6724   2.355   6.145   4.937
 2161WAT     H1 6725   2.315   6.066   4.984
 2161WAT     H2 6726   2.359   6.127   4.839
 2162WAT      O 6727   7.185   2.682   9.163
 2162WAT     H1 6728   7.170   2.779   9.146
 2162WAT     H2 6729   7.279   2.657   9.137
 2163WAT      O 6730   5.560   2.647   4.496
 2163WAT     H1 6731   5.490   2.716   4.515
 2163WAT     H2 6732   5.517   2.566   4.455
 2164WAT      O 6733   7.624   4.710   1.678
 2164WAT     H1 6734   7.711   4.758   1.690
 2164WAT     H2 6735   7.618   4.674   1.585
 2165WAT      O 6736   4.720   4.313   2.717
 2165WAT     H1 6737   4.704   4.255   2.796
 2165WAT     H2 6738   4.642   4.309   2.655
 2166WAT      O 6739   4.017   5.514   2.987
 2166WAT     H1 6740   3.976   5.579   3.051
 2166WAT     H2 6741   4.117   5.516   2.998
 2167WAT      O 6742   2.963   4.431   9.304
 2167WAT     H1 6743   2.929   4.352   9.355
 2167WAT     H2 6744   2.900   4.453   9.230
 2168WAT      O 6745   7.761   9.229   4.397
 2168WAT     H1 6746   7.767   9.299   4.327
 2168WAT     H2 6747   7.825   9.155   4.376
 2169WAT      O 6748   0.221   2.766   3.253
 2169WAT     H1 6749   0.170   2.794   3.171
 2169WAT     H2 6750   0.170   2.792   3.335
 2170WAT      O 6751   7.694   7.160   9.671
 2170WAT     H1 6752   7.793   7.161   9.683
 2170WAT     H2 6753   7.650   7.154   9.761
 2171WAT      O 6754   2.229   6.392   6.422
 2171WAT     H1 6755   2.209   6.336   6.341
 2171WAT     H2 6756   2.302   6.348   6.475
 2172WAT      O 6757   7.093   6.785   2.850
 2172WAT     H1 6758   7.034   6.831   2.784
 2172WAT     H2 6759   7.169   6.845   2.875
 2173WAT      O 6760   4.143   4.676   9.477
 2173WAT     H1 6761   4.168   4.763   9.434
 2173WAT     H2 6762   4.186   4.601   9.428
 2174WAT      O 6763   5.205   1.319   3.693
 2174WAT     H1 6764   5.281   1.383   3.689
 2174WAT     H2 6765   5.190   1.290   3.787
 2175WAT      O 6766   0.036   2.588   3.994
 2175WAT     H1 6767   0.006   2.682   4.007
 2175WAT     H2 6768   0.059   2.573   3.898
 2176WAT      O 6769   3.900   8.681   6.386
 2176WAT     H1 6770   3.887   8.681   6.485
 2176WAT     H2 6771   3.963   8.754   6.360
 2177WAT      O 6772   8.203   5.134   7.102
 2177WAT     H1 6773   8.186   5.046   7.059
 2177WAT     H2 6774   8.301   5.150   7.110
 2178WAT      O 6775   0.642   6.227   8.798
 2178WAT     H1 6776   0.692   6.197   8.717
 2178WAT     H2 6777   0.705   6.271   8.862
 2179WAT      O 6778   9.212   4.877   5.981
 2179WAT     H1 6779   9.171   4.943   5.919
 2179WAT     H2 6780   9.272   4.924   6.046
 2180WAT      O 6781   9.771   9.083   6.535
 2180WAT     H1 6782   9.721   8.997   6.552
 2180WAT     H2 6783   9.859   9.081   6.582
 2181WAT      O 6784   3.715   1.822   0.685
 2181WAT     H1 6785   3.749   1.916   0.691
 2181WAT     H2 6786   3.679   1.794   0.774
 2182WAT      O 6787   6.508   5.872   5.216
 2182WAT     H1 6788   6.450   5.937   5.167
 2182WAT     H2 6789   6.545   5.805   5.152
 2183WAT      O 6790   3.027   3.078   1.712
 2183WAT     H1 6791   3.082   3.020   1.772
 2183WAT     H2 6792   2.952   3.024   1.673
 2184WAT      O 6793   1.242   3.863   0.510
 2184WAT     H1 6794   1.148   3.850   0.478
 2184WAT     H2 6795   1.299   3.788   0.476
 2185WAT      O 6796   7.570   3.982   8.376
 2185WAT     H1 6797   7.516   3.943   8.302
 2185WAT     H2 6798   7.509   4.018   8.447
 2186WAT      O 6799   3.801   4.212   6.627
 2186WAT     H1 6800   3.803   4.235   6.529
 2186WAT     H2 6801   3.732   4.268   6.673
 2187WAT      O 6802   4.046   3.196   1.617
 2187WAT     H1 6803   3.987   3.132   1.568
 2187WAT     H2 6804   3.991   3.247   1.684
 2188WAT      O 6805   4.764   3.132   3.027
 2188WAT     H1 6806   4.856   3.094   3.036
 2188WAT     H2 6807   4.732   3.120   2.933
 2189WAT      O 6808   3.801   7.613   1.895
 2189WAT     H1 6809   3.739   7.689   1.911
 2189WAT     H2 6810   3.751   7.539   1.848
 2190WAT      O 6811   8.677   6.222   1.012
 2190WAT     H1 6812   8.738   6.216   1.091
 2190WAT     H2 6813   8.657   6.130   0.978
 2191WAT      O 6814   1.640   7.615   6.535
 2191WAT     H1 6815   1.575   7.590   6.607
 2191WAT     H2 6816   1.648   7.715   6.531
 2192WAT      O 6817   5.266   7.189   7.982
 2192WAT     H1 6818   5.180   7.181   7.932
 2192WAT     H2 6819   5.248   7.203   8.079
 2193WAT      O 6820   7.763   6.896   9.202
 2193WAT     H1 6821   7.675   6.867   9.163
 2193WAT     H2 6822   7.751   6.985   9.248
 2194WAT      O 6823   1.710   2.147   4.618
 2194WAT     H1 6824   1.661   2.234   4.617
 2194WAT     H2 6825   1.805   2.162   4.645
 2195WAT      O 6826   6.520   7.971   5.593
 2195WAT     H1 6827   6.556   7.953   5.502
 2195WAT     H2 6828   6.501   8.069   5.601
 2196WAT      O 6829   8.863   4.079   4.479
 2196WAT     H1 6830   8.922   4.132   4.539
 2196WAT     H2 6831   8.913   3.997   4.448
 2197WAT      O 6832   4.964   2.697   6.268
 2197WAT     H1 6833   4.879   2.750   6.258
 2197WAT     H2 6834   4.958   2.642   6.351
 2198WAT      O 6835   3.178   1.355   1.851
 2198WAT     H1 6836   3.091   1.339   1.898
 2198WAT     H2 6837   3.182   1.300   1.767
 2199WAT      O 6838   2.209   2.258   4.510
 2199WAT     H1 6839   2.268   2.182   4.536
 2199WAT     H2 6840   2.179   2.246   4.416
 2200WAT      O 6841   4.103   5.489   1.093
 2200WAT     H1 6842   4.007   5.510   1.072
 2200WAT     H2 6843   4.121   5.393   1.073
 2201WAT      O 6844   1.517   4.185   4.601
 2201WAT     H1 6845   1.510   4.085   4.606
 2201WAT     H2 6846   1.427   4.224   4.582
 2202WAT      O 6847   5.529   0.812   5.517
 2202WAT     H1 6848   5.524   0.886   5.450
 2202WAT     H2 6849   5.529   0.850   5.609
 2203WAT      O 6850   2.650   8.557   4.322
 2203WAT     H1 6851   2.741   8.582   4.291
 2203WAT     H2 6852   2.597   8.521   4.245
 2204WAT      O 6853   5.579   3.852   4.722
 2204WAT     H1 6854   5.493   3.811   4.691
 2204WAT     H2 6855   5.571   3.952   4.721
 2205WAT      O 6856   2.610   8.321   0.429
 2205WAT     H1 6857   2.706   8.294   0.419
 2205WAT     H2 6858   2.604   8.421   0.432
 2206WAT      O 6859   7.389   0.273   9.868
 2206WAT     H1 6860   7.307   0.216   9.880
 2206WAT     H2 6861   7.452   0.227   9.806
 2207WAT      O 6862   5.069   8.743   5.943
 2207WAT     H1 6863   4.995   8.760   5.877
 2207WAT     H2 6864   5.155   8.777   5.905
 2208WAT      O 6865   1.422   5.674   5.580
 2208WAT     H1 6866   1.372   5.592   5.552
 2208WAT     H2 6867   1.482   5.704   5.506
 2209WAT      O 6868   3.702   3.786   0.064
 2209WAT     H1 6869   3.796   3.811   0.083
 2209WAT     H2 6870   3.673   3.827  -0.022
 2210WAT      O 6871   1.356   7.779   0.763
 2210WAT     H1 6872   1.415   7.843   0.713
 2210WAT     H2 6873   1.344   7.811   0.857
 2211WAT      O 6874   8.297   7.007   5.198
 2211WAT     H1 6875   8.312   7.096   5.240
 2211WAT     H2 6876   8.268   7.020   5.103
 2212WAT      O 6877   8.048   6.920   8.905
 2212WAT     H1 6878   8.132   6.956   8.946
 2212WAT     H2 6879   8.001   6.862   8.971
 2213WAT      O 6880   0.867   6.857   3.633
 2213WAT     H1 6881   0.953   6.809   3.646
 2213WAT     H2 6882   0.866   6.900   3.543
 2214WAT      O 6883   4.709   0.084   9.188
 2214WAT     H1 6884   4.668   0.006   9.236
 2214WAT     H2 6885   4.793   0.054   9.142
 2215WAT      O 6886   2.477   6.796   4.485
 2215WAT     H1 6887   2.556   6.760   4.535
 2215WAT     H2 6888   2.506   6.870   4.425
 2216WAT      O 6889   3.594   4.096   0.733
 2216WAT     H1 6890   3.650   4.178   0.743
 2216WAT     H2 6891   3.653   4.016   0.725
 2217WAT      O 6892   4.950   7.104   2.567
 2217WAT     H1 6893   5.007   7.022   2.557
 2217WAT     H2 6894   5.005   7.185   2.550
 2218WAT      O 6895   2.933   6.061   6.740
 2218WAT     H1 6896   2.935   6.160   6.753
 2218WAT     H2 6897   2.895   6.040   6.649
 2219WAT      O 6898   8.916   0.952   0.807
 2219WAT     H1 6899   8.992   0.893   0.780
 2219WAT     H2 6900   8.939   1.047   0.788
 2220WAT      O 6901   4.727   3.347   1.141
 2220WAT     H1 6902   4.675   3.419   1.187
 2220WAT     H2 6903   4.707   3.259   1.185
 2221WAT      O 6904   7.565   9.145   6.393
 2221WAT     H1 6905   7.618   9.230   6.396
 2221WAT     H2 6906   7.484   9.154   6.450
 2222WAT      O 6907   2.061   0.244   8.297
 2222WAT     H1 6908   2.041   0.335   8.333
 2222WAT     H2 6909   2.031   0.175   8.362
 2223WAT      O 6910   6.388   6.854   0.040
 2223WAT     H1 6911   6.419   6.931   0.097
 2223WAT     H2 6912   6.467   6.799   0.012
 2224WAT      O 6913   8.697   2.441   7.829
 2224WAT     H1 6914   8.667   2.528   7.870
 2224WAT     H2 6915   8.635   2.368   7.858
 2225WAT      O 6916   7.185   9.393   5.062
 2225WAT     H1 6917   7.208   9.319   4.999
 2225WAT     H2 6918   7.144   9.469   5.010
 2226WAT      O 6919   2.975   2.040   0.412
 2226WAT     H1 6920   3.043   2.079   0.474
 2226WAT     H2 6921   2.889   2.091   0.421
 2227WAT      O 6922   9.792   3.377   7.371
 2227WAT     H1 6923   9.808   3.363   7.469
 2227WAT     H2 6924   9.879   3.393   7.325
 2228WAT      O 6925   4.539   6.654   4.902
 2228WAT     H1 6926   4.482   6.629   4.981
 2228WAT     H2 6927   4.629   6.684   4.934
 2229WAT      O 6928   0.307   8.709   2.962
 2229WAT     H1 6929   0.389   8.659   2.932
 2229WAT     H2 6930   0.255   8.652   3.025
 2230WAT      O 6931   0.750   9.606   5.990
 2230WAT     H1 6932   0.667   9.583   5.939
 2230WAT     H2 6933   0.724   9.634   6.083
 2231WAT      O 6934   6.973   6.778   4.692
 2231WAT     H1 6935   6.899   6.843   4.676
 2231WAT     H2 6936   7.032   6.775   4.612
 2232WAT      O 6937   4.624   4.852   2.655
 2232WAT     H1 6938   4.720   4.863   2.630
 2232WAT     H2 6939   4.591   4.764   2.620
 2233WAT      O 6940   9.501   8.583   5.441
 2233WAT     H1 6941   9.502   8.515   5.368
 2233WAT     H2 6942   9.550   8.547   5.520
 2234WAT      O 6943   8.042   7.790   2.338
 2234WAT     H1 6944   8.140   7.778   2.322
 2234WAT     H2 6945   8.012   7.878   2.301
 2235WAT      O 6946   4.412   1.000   4.162
 2235WAT     H1 6947   4.493   0.952   4.128
 2235WAT     H2 6948   4.439   1.064   4.234
 2236WAT      O 6949   7.553   7.769   7.532
 2236WAT     H1 6950   7.568   7.676   7.568
 2236WAT     H2 6951   7.455   7.787   7.527
 2237WAT      O 6952   9.013   9.181   6.790
 2237WAT     H1 6953   8.958   9.237   6.852
 2237WAT     H2 6954   8.963   9.096   6.770
 2238WAT      O 6955   9.501   5.219   7.283
 2238WAT     H1 6956   9.410   5.243   7.317
 2238WAT     H2 6957   9.539   5.147   7.341
 2239WAT      O 6958   0.765   2.077   5.351
 2239WAT     H1 6959   0.703   2.155   5.344
 2239WAT     H2 6960   0.848   2.096   5.299
 2240WAT      O 6961   0.920   0.837   3.611
 2240WAT     H1 6962   0.940   0.758   3.668
 2240WAT     H2 6963   0.935   0.814   3.515
 2241WAT      O 6964   9.098   8.900   0.523
 2241WAT     H1 6965   9.063   8.848   0.601
 2241WAT     H2 6966   9.023   8.950   0.480
 2242WAT      O 6967   9.546   2.851   2.922
 2242WAT     H1 6968   9.636   2.879   2.890
 2242WAT     H2 6969   9.491   2.933   2.942
 2243WAT      O 6970   2.565   2.530   3.312
 2243WAT     H1 6971   2.490   2.476   3.350
 2243WAT     H2 6972   2.563   2.525   3.212
 2244WAT      O 6973   1.084   0.582   9.808
 2244WAT     H1 6974   1.072   0.603   9.905
 2244WAT     H2 6975   1.076   0.666   9.754
 2245WAT      O 6976   0.867   2.510   5.849
 2245WAT     H1 6977   0.774   2.531   5.881
 2245WAT     H2 6978   0.863   2.481   5.753
 2246WAT      O 6979   1.471   2.975   9.501
 2246WAT     H1 6980   1.554   2.981   9.556
 2246WAT     H2 6981   1.464   2.883   9.463
 2247WAT      O 6982   1.449   8.369   3.868
 2247WAT     H1 6983   1.427   8.352   3.964
 2247WAT     H2 6984   1.449   8.282   3.818
 2248WAT      O 6985   7.478   1.602   8.480
 2248WAT     H1 6986   7.540   1.569   8.408
 2248WAT     H2 6987   7.483   1.702   8.484
 2249WAT      O 6988   1.228   9.386   6.257
 2249WAT     H1 6989   1.169   9.326   6.311
 2249WAT     H2 6990   1.230   9.477   6.298
 2250WAT      O 6991   2.564   1.670   2.184
 2250WAT     H1 6992   2.647   1.675   2.128
 2250WAT     H2 6993   2.501   1.742   2.155
 2251WAT      O 6994   0.132   8.166   0.536
 2251WAT     H1 6995   0.163   8.250   0.582
 2251WAT     H2 6996   0.085   8.190   0.451
 2252WAT      O 6997   1.389   6.938   2.959
 2252WAT     H1 6998   1.402   6.898   3.049
 2252WAT     H2 6999   1.353   7.031   2.968
 2253WAT      O 7000   2.172   7.750   4.486
 2253WAT     H1 7001   2.089   7.733   4.539
 2253WAT     H2 7002   2.192   7.848   4.487
 2254WAT      O 7003   3.017   0.433   3.302
 2254WAT     H1 7004   3.043   0.399   3.392
 2254WAT     H2 7005   3.093   0.419   3.238
 2255WAT      O 7006   8.372   9.526   2.409
 2255WAT     H1 7007   8.296   9.585   2.380
 2255WAT     H2 7008   8.440   9.519   2.336
 2256WAT      O 7009   2.991   8.812   2.489
 2256WAT     H1 7010   3.052   8.733   2.494
 2256WAT     H2 7011   2.948   8.826   2.578
 2257WAT      O 7012   9.194   5.456   0.403
 2257WAT     H1 7013   9.095   5.466   0.414
 2257WAT     H2 7014   9.219   5.481   0.310
 2258WAT      O 7015   4.129   8.946   2.091
 2258WAT     H1 7016   4.220   8.928   2.053
 2258WAT     H2 7017   4.061   8.938   2.019
 2259WAT      O 7018   1.048   6.558   7.514
 2259WAT     H1 7019   0.993   6.526   7.591
 2259WAT     H2 7020   0.992   6.613   7.453
 2260WAT      O 7021   7.211   3.943   8.691
 2260WAT     H1 7022   7.113   3.964   8.684
 2260WAT     H2 7023   7.233   3.920   8.786
 2261WAT      O 7024   3.565   9.610   4.645
 2261WAT     H1 7025   3.539   9.526   4.597
 2261WAT     H2 7026   3.638   9.589   4.711
 2262WAT      O 7027   8.505   0.776   0.678
 2262WAT     H1 7028   8.445   0.738   0.749
 2262WAT     H2 7029   8.463   0.859   0.641
 2263WAT      O 7030   3.756   3.429   8.304
 2263WAT     H1 7031   3.668   3.475   8.288
 2263WAT     H2 7032   3.749   3.334   8.274
 2264WAT      O 7033   5.611   6.212   5.417
 2264WAT     H1 7034   5.513   6.230   5.430
 2264WAT     H2 7035   5.640   6.138   5.478
 2265WAT      O 7036   1.671   8.517   3.843
 2265WAT     H1 7037   1.586   8.472   3.869
 2265WAT     H2 7038   1.697   8.490   3.751
 2266WAT      O 7039   5.563   1.758   6.350
 2266WAT     H1 7040   5.480   1.770   6.405
 2266WAT     H2 7041   5.622   1.689   6.392
 2267WAT      O 7042   8.236   7.077   4.954
 2267WAT     H1 7043   8.166   7.134   4.911
 2267WAT     H2 7044   8.308   7.057   4.887
 2268WAT      O 7045   9.424   7.037   4.204
 2268WAT     H1 7046   9.346   7.006   4.149
 2268WAT     H2 7047   9.509   7.019   4.155
 2269WAT      O 7048   2.053   7.756   0.487
 2269WAT     H1 7049   1.955   7.775   0.479
 2269WAT     H2 7050   2.095   7.824   0.546
 2270WAT      O 7051   7.950   8.247   1.970
 2270WAT     H1 7052   7.986   8.154   1.976
 2270WAT     H2 7053   7.937   8.271   1.874
 2271WAT      O 7054   1.380   3.390   0.469
 2271WAT     H1 7055   1.378   3.378   0.370
 2271WAT     H2 7056   1.465   3.352   0.505
 2272WAT      O 7057   4.463   8.348   4.152
 2272WAT     H1 7058   4.548   8.299   4.174
 2272WAT     H2 7059   4.478   8.447   4.162
 2273WAT      O 7060   0.466   1.713   5.830
 2273WAT     H1 7061   0.527   1.636   5.851
 2273WAT     H2 7062   0.392   1.717   5.896
 2274WAT      O 7063   6.228   8.798   2.528
 2274WAT     H1 7064   6.128   8.805   2.520
 2274WAT     H2 7065   6.264   8.749   2.449
 2275WAT      O 7066   5.143   0.740   3.247
 2275WAT     H1 7067   5.235   0.721   3.210
 2275WAT     H2 7068   5.132   0.838   3.262
 2276WAT      O 7069   6.505   8.720   2.614
 2276WAT     H1 7070   6.549   8.679   2.533
 2276WAT     H2 7071   6.409   8.695   2.616
 2277WAT      O 7072   8.131   5.887   0.792
 2277WAT     H1 7073   8.151   5.984   0.781
 2277WAT     H2 7074   8.149   5.860   0.887
 2278WAT      O 7075   5.873   6.117   3.326
 2278WAT     H1 7076   5.945   6.160   3.381
 2278WAT     H2 7077   5.787   6.117   3.376
 2279WAT      O 7078   0.920   1.805   0.694
 2279WAT     H1 7079   1.012   1.780   0.725
 2279WAT     H2 7080   0.907   1.904   0.704
 2280WAT      O 7081   1.455   6.644   0.788
 2280WAT     H1 7082   1.462   6.720   0.722
 2280WAT     H2 7083   1.547   6.615   0.814
 2281WAT      O 7084   4.165   8.679   9.587
 2281WAT     H1 7085   4.114   8.593   9.596
 2281WAT     H2 7086   4.110   8.744   9.535
 2282WAT      O 7087   4.754   7.301   8.133
 2282WAT     H1 7088   4.781   7.371   8.198
 2282WAT     H2 7089   4.665   7.264   8.158
 2283WAT      O 7090   6.300   8.069   0.098
 2283WAT     H1 7091   6.382   8.013   0.104
 2283WAT     H2 7092   6.311   8.137   0.025
 2284WAT      O 7093   5.600   0.131   9.013
 2284WAT     H1 7094   5.673   0.091   8.958
 2284WAT     H2 7095   5.513   0.124   8.963
 2285WAT      O 7096   4.919   3.352   4.469
 2285WAT     H1 7097   4.881   3.347   4.561
 2285WAT     H2 7098   4.873   3.286   4.410
 2286WAT      O 7099   6.144   1.422   3.422
 2286WAT     H1 7100   6.101   1.493   3.478
 2286WAT     H2 7101   6.162   1.457   3.331
 2287WAT      O 7102   7.117   5.236   0.690
 2287WAT     H1 7103   7.096   5.275   0.779
 2287WAT     H2 7104   7.078   5.144   0.683
 2288WAT      O 7105   4.530   7.470   9.355
 2288WAT     H1 7106   4.574   7.496   9.269
 2288WAT     H2 7107   4.588   7.498   9.431
 2289WAT      O 7108   1.513   5.416   7.140
 2289WAT     H1 7109   1.546   5.331   7.099
 2289WAT     H2 7110   1.527   5.412   7.239
 2290WAT      O 7111   6.745   2.849   7.080
 2290WAT     H1 7112   6.783   2.789   7.151
 2290WAT     H2 7113   6.674   2.907   7.120
 2291WAT      O 7114   7.298   3.198   2.143
 2291WAT     H1 7115   7.288   3.194   2.043
 2291WAT     H2 7116   7.222   3.149   2.186
 2292WAT      O 7117   3.090   4.751   4.420
 2292WAT     H1 7118   3.173   4.798   4.389
 2292WAT     H2 7119   3.100   4.727   4.517
 2293WAT      O 7120   7.465   1.653   9.157
 2293WAT     H1 7121   7.417   1.697   9.233
 2293WAT     H2 7122   7.475   1.555   9.176
 2294WAT      O 7123   4.809   7.580   3.019
 2294WAT     H1 7124   4.833   7.581   3.116
 2294WAT     H2 7125   4.739   7.650   3.002
 2295WAT      O 7126   0.587   9.637   1.187
 2295WAT     H1 7127   0.512   9.586   1.146
 2295WAT     H2 7128   0.567   9.735   1.185
 2296WAT      O 7129   1.758   2.617   1.169
 2296WAT     H1 7130   1.808   2.530   1.169
 2296WAT     H2 7131   1.795   2.677   1.098
 2297WAT      O 7132   5.010   1.180   9.190
 2297WAT     H1 7133   4.990   1.228   9.105
 2297WAT     H2 7134   4.958   1.095   9.193
 2298WAT      O 7135   6.399   3.954   5.407
 2298WAT     H1 7136   6.396   4.053   5.396
 2298WAT     H2 7137   6.395   3.931   5.505
 2299WAT      O 7138   8.401   9.354   9.098
 2299WAT     H1 7139   8.401   9.272   9.155
 2299WAT     H2 7140   8.318   9.407   9.115
 2300WAT      O 7141   1.048   7.710   8.890
 2300WAT     H1 7142   1.046   7.772   8.812
 2300WAT     H2 7143   1.135   7.661   8.892
 2301WAT      O 7144   5.437   7.155   4.917
 2301WAT     H1 7145   5.526   7.155   4.870
 2301WAT     H2 7146   5.365   7.142   4.849
 2302WAT      O 7147   7.042   3.301   9.407
 2302WAT     H1 7148   6.973   3.232   9.386
 2302WAT     H2 7149   7.105   3.265   9.475
 2303WAT      O 7150   7.728   6.497   9.574
 2303WAT     H1 7151   7.752   6.445   9.491
 2303WAT     H2 7152   7.734   6.595   9.554
 2304WAT      O 7153   2.804   1.333   0.453
 2304WAT     H1 7154   2.767   1.328   0.545
 2304WAT     H2 7155   2.820   1.428   0.427
 2305WAT      O 7156   0.177   7.286   3.952
 2305WAT     H1 7157   0.265   7.252   3.921
 2305WAT     H2 7158   0.178   7.386   3.952
 2306WAT      O 7159   5.924   2.803   2.044
 2306WAT     H1 7160   5.887   2.865   2.113
 2306WAT     H2 7161   5.959   2.721   2.089
 2307WAT      O 7162   7.390   2.372   9.855
 2307WAT     H1 7163   7.455   2.398   9.783
 2307WAT     H2 7164   7.312   2.324   9.814
 2308WAT      O 7165   7.478   6.548   3.650
 2308WAT     H1 7166   7.430   6.621   3.698
 2308WAT     H2 7167   7.561   6.585   3.607
 2309WAT      O 7168   4.446   2.925   0.260
 2309WAT     H1 7169   4.520   2.864   0.232
 2309WAT     H2 7170   4.472   2.973   0.344
 2310WAT      O 7171   3.495   2.118   9.616
 2310WAT     H1 7172   3.532   2.211   9.605
 2310WAT     H2 7173   3.403   2.124   9.654
 2311WAT      O 7174   2.044   9.039   0.038
 2311WAT     H1 7175   2.043   8.948   0.081
 2311WAT     H2 7176   2.138   9.069   0.027
 2312WAT      O 7177   1.539   2.925   7.004
 2312WAT     H1 7178   1.545   2.989   7.081
 2312WAT     H2 7179   1.496   2.971   6.926
 2313WAT      O 7180   4.096   8.814   3.365
 2313WAT     H1 7181   4.116   8.912   3.370
 2313WAT     H2 7182   3.999   8.798   3.386
 2314WAT      O 7183   1.711   5.297   6.653
 2314WAT     H1 7184   1.749   5.302   6.560
 2314WAT     H2 7185   1.724   5.205   6.690
 2315WAT      O 7186   0.076   9.336   8.646
 2315WAT     H1 7187   0.145   9.298   8.708
 2315WAT     H2 7188   0.108   9.423   8.610
 2316WAT      O 7189   7.779   0.222   4.426
 2316WAT     H1 7190   7.830   0.187   4.504
 2316WAT     H2 7191   7.816   0.184   4.342
 2317WAT      O 7192   2.838   6.839   7.806
 2317WAT     H1 7193   2.882   6.751   7.822
 2317WAT     H2 7194   2.754   6.844   7.861
 2318WAT      O 7195   2.338   8.535   3.939
 2318WAT     H1 7196   2.254   8.494   3.903
 2318WAT     H2 7197   2.380   8.473   4.006
 2319WAT      O 7198   3.159   5.888   0.199
 2319WAT     H1 7199   3.247   5.842   0.208
 2319WAT     H2 7200   3.168   5.984   0.226
 2320WAT      O 7201   7.263   3.129   8.703
 2320WAT     H1 7202   7.287   3.226   8.698
 2320WAT     H2 7203   7.346   3.074   8.691
 2321WAT      O 7204   7.866   3.524   6.512
 2321WAT     H1 7205   7.766   3.531   6.510
 2321WAT     H2 7206   7.897   3.511   6.607
 2322WAT      O 7207   8.007   2.446   0.125
 2322WAT     H1 7208   8.090   2.455   0.071
 2322WAT     H2 7209   7.928   2.440   0.064
 2323WAT      O 7210   2.436   7.486   0.405
 2323WAT     H1 7211   2.439   7.422   0.328
 2323WAT     H2 7212   2.526   7.528   0.418
 2324WAT      O 7213   6.014   9.511   2.318
 2324WAT     H1 7214   5.992   9.471   2.408
 2324WAT     H2 7215   6.110   9.540   2.317
 2325WAT      O 7216   4.484   1.545   5.085
 2325WAT     H1 7217   4.441   1.612   5.145
 2325WAT     H2 7218   4.569   1.513   5.125
 2326WAT      O 7219   8.445   7.091   9.832
 2326WAT     H1 7220   8.521   7.086   9.897
 2326WAT     H2 7221   8.480   7.075   9.739
 2327WAT      O 7222   9.590   4.351   0.935
 2327WAT     H1 7223   9.606   4.327   1.031
 2327WAT     H2 7224   9.586   4.451   0.926
 2328WAT      O 7225   7.688   2.625   0.849
 2328WAT     H1 7226   7.734   2.566   0.915
 2328WAT     H2 7227   7.727   2.611   0.758
 2329WAT      O 7228   1.037   6.938   7.869
 2329WAT     H1 7229   1.057   6.869   7.939
 2329WAT     H2 7230   0.938   6.948   7.861
 2330WAT      O 7231   5.379   2.104   8.063
 2330WAT     H1 7232   5.340   2.180   8.115
 2330WAT     H2 7233   5.411   2.033   8.126
 2331WAT      O 7234   5.090   8.039   3.633
 2331WAT     H1 7235   5.030   8.076   3.563
 2331WAT     H2 7236   5.050   8.055   3.723
 2332WAT      O 7237   9.452   1.302   4.386
 2332WAT     H1 7238   9.380   1.359   4.348
 2332WAT     H2 7239   9.540   1.350   4.383
 2333WAT      O 7240   3.781   5.596   6.624
 2333WAT     H1 7241   3.786   5.640   6.535
 2333WAT     H2 7242   3.872   5.573   6.656
 2334WAT      O 7243   1.757   6.564   7.151
 2334WAT     H1 7244   1.670   6.586   7.106
 2334WAT     H2 7245   1.802   6.490   7.103
 2335WAT      O 7246   1.710   4.262   7.536
 2335WAT     H1 7247   1.676   4.182   7.585
 2335WAT     H2 7248   1.730   4.238   7.441
 2336WAT      O 7249   0.521   3.384   5.099
 2336WAT     H1 7250   0.583   3.328   5.046
 2336WAT     H2 7251   0.428   3.348   5.091
 2337WAT      O 7252   3.448   7.828   3.063
 2337WAT     H1 7253   3.493   7.916   3.074
 2337WAT     H2 7254   3.507   7.755   3.098
 2338WAT      O 7255   3.200   1.215   4.516
 2338WAT     H1 7256   3.213   1.173   4.605
 2338WAT     H2 7257   3.282   1.202   4.460
 2339WAT      O 7258   8.035   5.326   5.094
 2339WAT     H1 7259   7.950   5.349   5.046
 2339WAT     H2 7260   8.108   5.311   5.027
 2340WAT      O 7261   7.681   9.699   4.965
 2340WAT     H1 7262   7.769   9.655   4.985
 2340WAT     H2 7263   7.607   9.632   4.977
 2341WAT      O 7264   3.186   5.806   1.114
 2341WAT     H1 7265   3.275   5.810   1.160
 2341WAT     H2 7266   3.133   5.887   1.136
 2342WAT      O 7267   0.664   5.216   5.653
 2342WAT     H1 7268   0.705   5.184   5.568
 2342WAT     H2 7269   0.717   5.180   5.730
 2343WAT      O 7270   4.183   5.878   7.151
 2343WAT     H1 7271   4.125   5.959   7.157
 2343WAT     H2 7272   4.132   5.799   7.185
 2344WAT      O 7273   2.832   4.691   6.244
 2344WAT     H1 7274   2.923   4.689   6.204
 2344WAT     H2 7275   2.839   4.696   6.343
 2345WAT      O 7276   0.015   3.840   4.898
 2345WAT     H1 7277   0.047   3.920   4.846
 2345WAT     H2 7278  -0.012   3.869   4.990
 2346WAT      O 7279   7.767   5.830   0.203
 2346WAT     H1 7280   7.756   5.913   0.148
 2346WAT     H2 7281   7.831   5.768   0.158
 2347WAT      O 7282   3.520   0.718   4.884
 2347WAT     H1 7283   3.523   0.777   4.803
 2347WAT     H2 7284   3.529   0.623   4.857
 2348WAT      O 7285   6.753   3.454   7.329
 2348WAT     H1 7286   6.831   3.498   7.285
 2348WAT     H2 7287   6.712   3.518   7.395
 2349WAT      O 7288   1.711   1.263   1.982
 2349WAT     H1 7289   1.683   1.251   2.077
 2349WAT     H2 7290   1.713   1.360   1.960
 2350WAT      O 7291   7.123   1.248   2.574
 2350WAT     H1 7292   7.209   1.299   2.583
 2350WAT     H2 7293   7.049   1.312   2.553
 2351WAT      O 7294   8.611   0.198   3.355
 2351WAT     H1 7295   8.691   0.249   3.322
 2351WAT     H2 7296   8.557   0.257   3.416
 2352WAT      O 7297   2.030   4.642   2.083
 2352WAT     H1 7298   2.025   4.601   1.992
 2352WAT     H2 7299   1.948   4.698   2.099
 2353WAT      O 7300   0.451   2.866   5.533
 2353WAT     H1 7301   0.369   2.873   5.589
 2353WAT     H2 7302   0.532   2.861   5.592
 2354WAT      O 7303   8.425   6.094   2.170
 2354WAT     H1 7304   8.418   6.194   2.176
 2354WAT     H2 7305   8.481   6.070   2.090
 2355WAT      O 7306   2.934   3.274   4.065
 2355WAT     H1 7307   2.846   3.322   4.058
 2355WAT     H2 7308   2.921   3.188   4.114
 2356WAT      O 7309   0.813   0.902   0.038
 2356WAT     H1 7310   0.835   0.871   0.130
 2356WAT     H2 7311   0.754   0.983   0.043
 2357WAT      O 7312   8.525   8.093   8.940
 2357WAT     H1 7313   8.429   8.120   8.936
 2357WAT     H2 7314   8.535   8.015   9.001
 2358WAT      O 7315   5.330   2.210   5.331
 2358WAT     H1 7316   5.274   2.218   5.249
 2358WAT     H2 7317   5.282   2.252   5.408
 2359WAT      O 7318   9.850   6.387   0.924
 2359WAT     H1 7319   9.883   6.399   1.018
 2359WAT     H2 7320   9.812   6.295   0.913
 2360WAT      O 7321   5.107   1.225   7.995
 2360WAT     H1 7322   5.167   1.281   7.939
 2360WAT     H2 7323   5.153   1.140   8.020
 2361WAT      O 7324   6.572   9.233   9.362
 2361WAT     H1 7325   6.527   9.202   9.446
 2361WAT     H2 7326   6.663   9.268   9.384
 2362WAT      O 7327   8.297   1.394   3.116
 2362WAT     H1 7328   8.294   1.296   3.101
 2362WAT     H2 7329   8.254   1.417   3.203
 2363WAT      O 7330   1.209   3.383   3.865
 2363WAT     H1 7331   1.212   3.479   3.836
 2363WAT     H2 7332   1.160   3.377   3.952
 2364WAT      O 7333   6.745   5.177   2.293
 2364WAT     H1 7334   6.645   5.185   2.300
 2364WAT     H2 7335   6.782   5.258   2.247
 2365WAT      O 7336   1.851   2.123   7.826
 2365WAT     H1 7337   1.901   2.058   7.768
 2365WAT     H2 7338   1.908   2.148   7.904
 2366WAT      O 7339   5.120   2.639   4.525
 2366WAT     H1 7340   5.176   2.721   4.540
 2366WAT     H2 7341   5.167   2.560   4.565
 2367WAT      O 7342   0.503   3.380   4.693
 2367WAT     H1 7343   0.498   3.478   4.708
 2367WAT     H2 7344   0.501   3.361   4.594
 2368WAT      O 7345   2.703   9.428   1.154
 2368WAT     H1 7346   2.778   9.362   1.150
 2368WAT     H2 7347   2.740   9.520   1.153
 2369WAT      O 7348   5.840   4.743   0.248
 2369WAT     H1 7349   5.760   4.783   0.292
 2369WAT     H2 7350   5.816   4.654   0.210
 2370WAT      O 7351   1.409   4.033   3.298
 2370WAT     H1 7352   1.424   4.006   3.203
 2370WAT     H2 7353   1.478   3.990   3.356
 2371WAT      O 7354   0.041   9.366   3.224
 2371WAT     H1 7355   0.037   9.448   3.282
 2371WAT     H2 7356  -0.038   9.308   3.244
 2372WAT      O 7357   9.207   9.458   3.910
 2372WAT     H1 7358   9.244   9.498   3.826
 2372WAT     H2 7359   9.108   9.472   3.912
 2373WAT      O 7360   1.439   8.433   6.102
 2373WAT     H1 7361   1.359   8.406   6.157
 2373WAT     H2 7362   1.413   8.510   6.043
 2374WAT      O 7363   9.813   5.294   8.430
 2374WAT     H1 7364   9.899   5.243   8.430
 2374WAT     H2 7365   9.831   5.389   8.401
 2375WAT      O 7366   5.139   6.095   8.109
 2375WAT     H1 7367   5.163   6.015   8.053
 2375WAT     H2 7368   5.157   6.178   8.056
 2376WAT      O 7369   3.201   2.721   4.441
 2376WAT     H1 7370   3.169   2.631   4.472
 2376WAT     H2 7371   3.138   2.756   4.372
 2377WAT      O 7372   8.586   6.730   1.057
 2377WAT     H1 7373   8.540   6.673   0.989
 2377WAT     H2 7374   8.646   6.673   1.114
 2378WAT      O 7375   3.848   9.718   7.437
 2378WAT     H1 7376   3.788   9.654   7.390
 2378WAT     H2 7377   3.801   9.805   7.451
 2379WAT      O 7378   5.875   8.510   5.494
 2379WAT     H1 7379   5.797   8.487   5.552
 2379WAT     H2 7380   5.843   8.560   5.414
 2380WAT      O 7381   0.114   8.587   8.704
 2380WAT     H1 7382   0.100   8.566   8.607
 2380WAT     H2 7383   0.028   8.617   8.745
 2381WAT      O 7384   3.067   7.046   6.736
 2381WAT     H1 7385   3.044   7.033   6.640
 2381WAT     H2 7386   2.990   7.018   6.793
 2382WAT      O 7387   7.073   2.196   9.180
 2382WAT     H1 7388   7.106   2.252   9.104
 2382WAT     H2 7389   7.008   2.250   9.235
 2383WAT      O 7390   9.459   2.344   3.612
 2383WAT     H1 7391   9.505   2.256   3.620
 2383WAT     H2 7392   9.379   2.347   3.672
 2384WAT      O 7393   6.341   4.102   3.026
 2384WAT     H1 7394   6.423   4.137   2.979
 2384WAT     H2 7395   6.261   4.113   2.967
 2385WAT      O 7396   2.866   6.956   4.657
 2385WAT     H1 7397   2.794   7.023   4.636
 2385WAT     H2 7398   2.933   6.955   4.583
 2386WAT      O 7399   1.463   4.407   6.491
 2386WAT     H1 7400   1.523   4.485   6.477
 2386WAT     H2 7401   1.513   4.323   6.470
 2387WAT      O 7402   4.230   4.681   5.937
 2387WAT     H1 7403   4.302   4.627   5.892
 2387WAT     H2 7404   4.165   4.714   5.869
 2388WAT      O 7405   6.872   6.052   8.938
 2388WAT     H1 7406   6.779   6.040   8.972
 2388WAT     H2 7407   6.872   6.123   8.867
 2389WAT      O 7408   8.334   3.055   9.428
 2389WAT     H1 7409   8.302   2.994   9.500
 2389WAT     H2 7410   8.295   3.146   9.442
 2390WAT      O 7411   5.183   4.811   0.054
 2390WAT     H1 7412   5.217   4.727   0.013
 2390WAT     H2 7413   5.115   4.853  -0.006
 2391WAT      O 7414   3.983   3.394   9.396
 2391WAT     H1 7415   3.916   3.320   9.396
 2391WAT     H2 7416   3.954   3.465   9.331
 2392WAT      O 7417   4.901   0.748   9.646
 2392WAT     H1 7418   4.886   0.820   9.577
 2392WAT     H2 7419   4.948   0.671   9.603
 2393WAT      O 7420   2.465   1.294   3.527
 2393WAT     H1 7421   2.434   1.220   3.467
 2393WAT     H2 7422   2.516   1.256   3.604
 2394WAT      O 7423   3.301   9.639   3.859
 2394WAT     H1 7424   3.249   9.672   3.938
 2394WAT     H2 7425   3.331   9.545   3.876
 2395WAT      O 7426   4.384   9.168   0.247
 2395WAT     H1 7427   4.343   9.205   0.330
 2395WAT     H2 7428   4.424   9.078   0.266
 2396WAT      O 7429   0.421   3.420   9.331
 2396WAT     H1 7430   0.434   3.431   9.232
 2396WAT     H2 7431   0.498   3.460   9.379
 2397WAT      O 7432   1.787   8.674   1.203
 2397WAT     H1 7433   1.860   8.639   1.144
 2397WAT     H2 7434   1.749   8.598   1.256
 2398WAT      O 7435   1.308   2.639   1.254
 2398WAT     H1 7436   1.245   2.701   1.207
 2398WAT     H2 7437   1.256   2.568   1.301
 2399WAT      O 7438   8.221   6.510   6.130
 2399WAT     H1 7439   8.299   6.570   6.142
 2399WAT     H2 7440   8.170   6.505   6.216
 2400WAT      O 7441   1.668   2.906   2.485
 2400WAT     H1 7442   1.647   2.870   2.394
 2400WAT     H2 7443   1.739   2.976   2.477
 2401WAT      O 7444   7.465   3.223   3.255
 2401WAT     H1 7445   7.549   3.193   3.209
 2401WAT     H2 7446   7.450   3.167   3.336
 2402WAT      O 7447   6.130   6.832   0.036
 2402WAT     H1 7448   6.164   6.752  -0.014
 2402WAT     H2 7449   6.206   6.875   0.085
 2403WAT      O 7450   0.768   8.792   4.318
 2403WAT     H1 7451   0.780   8.851   4.398
 2403WAT     H2 7452   0.763   8.848   4.235
 2404WAT      O 7453   7.357   5.344   5.651
 2404WAT     H1 7454   7.288   5.334   5.579
 2404WAT     H2 7455   7.330   5.419   5.712
 2405WAT      O 7456   1.560   1.944   7.464
 2405WAT     H1 7457   1.494   1.875   7.433
 2405WAT     H2 7458   1.548   1.960   7.562
 2406WAT      O 7459   5.102   0.861   2.765
 2406WAT     H1 7460   5.118   0.772   2.809
 2406WAT     H2 7461   5.161   0.869   2.685
 2407WAT      O 7462   4.308   9.391   6.054
 2407WAT     H1 7463   4.334   9.487   6.065
 2407WAT     H2 7464   4.338   9.359   5.964
 2408WAT      O 7465   6.018   8.915   6.504
 2408WAT     H1 7466   5.923   8.932   6.532
 2408WAT     H2 7467   6.032   8.817   6.493
 2409WAT      O 7468   0.400   7.868   4.399
 2409WAT     H1 7469   0.378   7.942   4.463
 2409WAT     H2 7470   0.341   7.790   4.416
 2410WAT      O 7471   0.889   7.583   5.713
 2410WAT     H1 7472   0.862   7.532   5.795
 2410WAT     H2 7473   0.977   7.550   5.680
 2411WAT      O 7474   8.028   7.063   6.323
 2411WAT     H1 7475   7.946   7.029   6.275
 2411WAT     H2 7476   8.108   7.011   6.294
 2412WAT      O 7477   3.489   8.572   8.055
 2412WAT     H1 7478   3.408   8.619   8.091
 2412WAT     H2 7479   3.475   8.473   8.060
 2413WAT      O 7480   1.806   9.604   1.401
 2413WAT     H1 7481   1.886   9.664   1.399
 2413WAT     H2 7482   1.800   9.553   1.316
 2414WAT      O 7483   1.983   2.137   3.025
 2414WAT     H1 7484   1.957   2.233   3.037
 2414WAT     H2 7485   1.953   2.105   2.935
 2415WAT      O 7486   1.809   2.877   5.535
 2415WAT     H1 7487   1.894   2.917   5.501
 2415WAT     H2 7488   1.821   2.851   5.631
 2416WAT      O 7489   1.147   5.638   5.256
 2416WAT     H1 7490   1.102   5.556   5.221
 2416WAT     H2 7491   1.168   5.625   5.353
 2417WAT      O 7492   1.538   3.136   0.754
 2417WAT     H1 7493   1.502   3.044   0.741
 2417WAT     H2 7494   1.463   3.202   0.760
 2418WAT      O 7495   4.825   0.037   6.393
 2418WAT     H1 7496   4.725   0.035   6.394
 2418WAT     H2 7497   4.857   0.115   6.339
 2419WAT      O 7498   3.864   2.615   7.995
 2419WAT     H1 7499   3.787   2.611   8.059
 2419WAT     H2 7500   3.875   2.708   7.962
 2420WAT      O 7501   4.150   2.264   1.263
 2420WAT     H1 7502   4.203   2.343   1.232
 2420WAT     H2 7503   4.212   2.195   1.300
 2421WAT      O 7504   0.195   2.597   7.521
 2421WAT     H1 7505   0.154   2.510   7.548
 2421WAT     H2 7506   0.188   2.662   7.596
 2422WAT      O 7507   5.073   6.041   2.907
 2422WAT     H1 7508   4.976   6.065   2.903
 2422WAT     H2 7509   5.084   5.943   2.890
 2423WAT      O 7510   9.282   3.279   0.499
 2423WAT     H1 7511   9.358   3.242   0.552
 2423WAT     H2 7512   9.282   3.379   0.505
 2424WAT      O 7513   6.400   8.522   1.107
 2424WAT     H1 7514   6.482   8.539   1.053
 2424WAT     H2 7515   6.380   8.424   1.106
 2425WAT      O 7516   1.882   4.355   2.918
 2425WAT     H1 7517   1.936   4.409   2.853
 2425WAT     H2 7518   1.893   4.392   3.010
 2426WAT      O 7519   4.905   8.868   1.784
 2426WAT     H1 7520   4.817   8.916   1.778
 2426WAT     H2 7521   4.893   8.772   1.757
 2427WAT      O 7522   8.084   3.466   7.830
 2427WAT     H1 7523   8.059   3.381   7.783
 2427WAT     H2 7524   8.008   3.530   7.825
 2428WAT      O 7525   5.644   3.987   0.928
 2428WAT     H1 7526   5.645   4.067   0.989
 2428WAT     H2 7527   5.551   3.969   0.898
 2429WAT      O 7528   0.619   2.160   8.842
 2429WAT     H1 7529   0.714   2.159   8.875
 2429WAT     H2 7530   0.563   2.104   8.902
 2430WAT      O 7531   3.551   8.466   8.785
 2430WAT     H1 7532   3.590   8.374   8.771
 2430WAT     H2 7533   3.620   8.535   8.761
 2431WAT      O 7534   7.177   6.949   1.348
 2431WAT     H1 7535   7.123   7.033   1.339
 2431WAT     H2 7536   7.217   6.925   1.259
 2432WAT      O 7537   2.718   2.506   4.108
 2432WAT     H1 7538   2.773   2.489   4.190
 2432WAT     H2 7539   2.774   2.556   4.041
 2433WAT      O 7540   7.755   3.291   5.094
 2433WAT     H1 7541   7.718   3.208   5.136
 2433WAT     H2 7542   7.826   3.266   5.028
 2434WAT      O 7543   8.399   6.998   0.223
 2434WAT     H1 7544   8.418   6.901   0.215
 2434WAT     H2 7545   8.343   7.028   0.146
 2435WAT      O 7546   9.583   5.899   8.759
 2435WAT     H1 7547   9.589   5.875   8.662
 2435WAT     H2 7548   9.638   5.981   8.776
 2436WAT      O 7549   4.159   5.414   1.841
 2436WAT     H1 7550   4.085   5.481   1.833
 2436WAT     H2 7551   4.119   5.323   1.854
 2437WAT      O 7552   4.041   6.197   7.755
 2437WAT     H1 7553   4.062   6.279   7.701
 2437WAT     H2 7554   4.106   6.125   7.731
 2438WAT      O 7555   0.300   8.061   1.724
 2438WAT     H1 7556   0.297   8.050   1.823
 2438WAT     H2 7557   0.255   8.147   1.699
 2439WAT      O 7558   6.608   7.240   0.873
 2439WAT     H1 7559   6.589   7.146   0.844
 2439WAT     H2 7560   6.678   7.240   0.944
 2440WAT      O 7561   3.807   1.814   2.764
 2440WAT     H1 7562   3.873   1.750   2.725
 2440WAT     H2 7563   3.715   1.788   2.737
 2441WAT      O 7564   3.140   9.288   3.291
 2441WAT     H1 7565   3.060   9.347   3.285
 2441WAT     H2 7566   3.117   9.207   3.347
 2442WAT      O 7567   6.325   9.694   9.733
 2442WAT     H1 7568   6.262   9.631   9.687
 2442WAT     H2 7569   6.410   9.698   9.682
 2443WAT      O 7570   4.391   0.767   3.780
 2443WAT     H1 7571   4.401   0.702   3.855
 2443WAT     H2 7572   4.398   0.719   3.693
 2444WAT      O 7573   8.888   9.026   3.255
 2444WAT     H1 7574   8.840   9.006   3.341
 2444WAT     H2 7575   8.982   8.993   3.261
 2445WAT      O 7576   7.447   5.625   2.616
 2445WAT     H1 7577   7.370   5.665   2.665
 2445WAT     H2 7578   7.415   5.552   2.557
 2446WAT      O 7579   4.065   9.775   3.343
 2446WAT     H1 7580   4.150   9.825   3.358
 2446WAT     H2 7581   4.080   9.703   3.275
 2447WAT      O 7582   2.301   0.728   2.544
 2447WAT     H1 7583   2.384   0.756   2.497
 2447WAT     H2 7584   2.266   0.804   2.598
 2448WAT      O 7585   4.142   5.905   9.138
 2448WAT     H1 7586   4.126   5.975   9.068
 2448WAT     H2 7587   4.151   5.816   9.094
 2449WAT      O 7588   2.661   0.891   0.403
 2449WAT     H1 7589   2.607   0.890   0.319
 2449WAT     H2 7590   2.756   0.916   0.381
 2450WAT      O 7591   5.042   9.144   4.999
 2450WAT     H1 7592   4.999   9.123   4.912
 2450WAT     H2 7593   5.119   9.206   4.985
 2451WAT      O 7594   0.525   5.997   8.758
 2451WAT     H1 7595   0.572   6.084   8.768
 2451WAT     H2 7596   0.566   5.930   8.819
 2452WAT      O 7597   0.158   5.718   1.305
 2452WAT     H1 7598   0.115   5.785   1.246
 2452WAT     H2 7599   0.255   5.739   1.315
 2453WAT      O 7600   7.577   6.969   5.440
 2453WAT     H1 7601   7.665   6.927   5.463
 2453WAT     H2 7602   7.513   6.899   5.410
 2454WAT      O 7603   3.407   3.414   5.320
 2454WAT     H1 7604   3.367   3.337   5.271
 2454WAT     H2 7605   3.487   3.384   5.371
 2455WAT      O 7606   4.515   6.909   7.508
 2455WAT     H1 7607   4.550   6.907   7.414
 2455WAT     H2 7608   4.417   6.925   7.506
 2456WAT      O 7609   0.208   3.698   8.313
 2456WAT     H1 7610   0.289   3.717   8.257
 2456WAT     H2 7611   0.131   3.674   8.253
 2457WAT      O 7612   6.666   0.037   6.054
 2457WAT     H1 7613   6.621  -0.020   5.985
 2457WAT     H2 7614   6.600   0.104   6.089
 2458WAT      O 7615   1.017   3.125   8.209
 2458WAT     H1 7616   1.052   3.173   8.289
 2458WAT     H2 7617   1.003   3.028   8.232
 2459WAT      O 7618   9.315   6.582   3.549
 2459WAT     H1 7619   9.332   6.503   3.609
 2459WAT     H2 7620   9.220   6.612   3.560
 2460WAT      O 7621   4.384   6.955   6.789
 2460WAT     H1 7622   4.351   6.864   6.764
 2460WAT     H2 7623   4.311   7.007   6.833
 2461WAT      O 7624   7.496   5.470   0.677
 2461WAT     H1 7625   7.595   5.484   0.680
 2461WAT     H2 7626   7.449   5.558   0.685
 2462WAT      O 7627   0.152   6.378   0.017
 2462WAT     H1 7628   0.180   6.293  -0.028
 2462WAT     H2 7629   0.192   6.456  -0.030
 2463WAT      O 7630   9.348   6.627   9.409
 2463WAT     H1 7631   9.382   6.534   9.398
 2463WAT     H2 7632   9.407   6.677   9.472
 2464WAT      O 7633   6.222   0.305   6.487
 2464WAT     H1 7634   6.244   0.207   6.491
 2464WAT     H2 7635   6.165   0.329   6.565
 2465WAT      O 7636   2.045   3.588   1.632
 2465WAT     H1 7637   2.122   3.525   1.622
 2465WAT     H2 7638   1.962   3.545   1.594
 2466WAT      O 7639   4.008   0.907   7.574
 2466WAT     H1 7640   4.036   0.912   7.479
 2466WAT     H2 7641   3.915   0.942   7.584
 2467WAT      O 7642   6.195   2.152   7.680
 2467WAT     H1 7643   6.246   2.069   7.657
 2467WAT     H2 7644   6.243   2.201   7.753
 2468WAT      O 7645   6.183   0.090   9.629
 2468WAT     H1 7646   6.147   0.119   9.718
 2468WAT     H2 7647   6.200  -0.009   9.630
 2469WAT      O 7648   3.912   3.229   8.002
 2469WAT     H1 7649   3.827   3.197   7.959
 2469WAT     H2 7650   3.929   3.176   8.085
 2470WAT      O 7651   0.675   7.294   1.662
 2470WAT     H1 7652   0.773   7.304   1.679
 2470WAT     H2 7653   0.653   7.326   1.570
 2471WAT      O 7654   0.883   1.748   5.656
 2471WAT     H1 7655   0.868   1.695   5.740
 2471WAT     H2 7656   0.795   1.778   5.620
 2472WAT      O 7657   5.212   2.429   9.039
 2472WAT     H1 7658   5.279   2.382   9.098
 2472WAT     H2 7659   5.147   2.362   9.004
 2473WAT      O 7660   9.558   1.713   3.316
 2473WAT     H1 7661   9.549   1.813   3.310
 2473WAT     H2 7662   9.603   1.679   3.234
 2474WAT      O 7663   3.834   1.754   8.913
 2474WAT     H1 7664   3.765   1.684   8.897
 2474WAT     H2 7665   3.843   1.771   9.011
 2475WAT      O 7666   0.615   1.817   9.779
 2475WAT     H1 7667   0.675   1.897   9.769
 2475WAT     H2 7668   0.521   1.848   9.791
 2476WAT      O 7669   2.461   6.991   0.665
 2476WAT     H1 7670   2.439   7.085   0.640
 2476WAT     H2 7671   2.391   6.930   0.630
 2477WAT      O 7672   7.229   1.257   0.319
 2477WAT     H1 7673   7.202   1.248   0.223
 2477WAT     H2 7674   7.152   1.232   0.377
 2478WAT      O 7675   6.050   1.914   0.193
 2478WAT     H1 7676   6.046   1.928   0.292
 2478WAT     H2 7677   5.997   1.985   0.147
 2479WAT      O 7678   1.652   1.210   8.435
 2479WAT     H1 7679   1.595   1.200   8.516
 2479WAT     H2 7680   1.628   1.140   8.368
 2480WAT      O 7681   0.369   7.046   4.933
 2480WAT     H1 7682   0.277   7.023   4.965
 2480WAT     H2 7683   0.416   7.099   5.004
 2481WAT      O 7684   8.268   4.544   7.630
 2481WAT     H1 7685   8.342   4.541   7.564
 2481WAT     H2 7686   8.202   4.615   7.604
 2482WAT      O 7687   9.534   3.153   4.988
 2482WAT     H1 7688   9.632   3.170   4.997
 2482WAT     H2 7689   9.496   3.125   5.076
 2483WAT      O 7690   7.167   9.711   3.736
 2483WAT     H1 7691   7.262   9.702   3.763
 2483WAT     H2 7692   7.149   9.649   3.659
 2484WAT      O 7693   4.146   0.385   4.363
 2484WAT     H1 7694   4.111   0.387   4.269
 2484WAT     H2 7695   4.219   0.453   4.373
 2485WAT      O 7696   5.437   9.328   1.411
 2485WAT     H1 7697   5.433   9.239   1.365
 2485WAT     H2 7698   5.514   9.328   1.475
 2486WAT      O 7699   2.587   4.857   2.988
 2486WAT     H1 7700   2.552   4.849   3.081
 2486WAT     H2 7701   2.530   4.920   2.936
 2487WAT      O 7702   3.826   3.286   5.646
 2487WAT     H1 7703   3.795   3.313   5.737
 2487WAT     H2 7704   3.878   3.362   5.605
 2488WAT      O 7705   7.951   5.067   0.019
 2488WAT     H1 7706   7.973   5.073   0.116
 2488WAT     H2 7707   7.969   4.974  -0.014
 2489WAT      O 7708   7.564   6.411   9.786
 2489WAT     H1 7709   7.627   6.453   9.721
 2489WAT     H2 7710   7.504   6.482   9.824
 2490WAT      O 7711   5.970   0.221   7.232
 2490WAT     H1 7712   5.940   0.133   7.269
 2490WAT     H2 7713   5.914   0.294   7.270
 2491WAT      O 7714   4.151   0.991   1.870
 2491WAT     H1 7715   4.193   0.901   1.877
 2491WAT     H2 7716   4.052   0.983   1.870
 2492WAT      O 7717   5.541   8.819   9.382
 2492WAT     H1 7718   5.610   8.828   9.453
 2492WAT     H2 7719   5.511   8.911   9.354
 2493WAT      O 7720   1.536   9.041   6.846
 2493WAT     H1 7721   1.573   8.988   6.923
 2493WAT     H2 7722   1.601   9.039   6.770
 2494WAT      O 7723   4.376   5.175   6.485
 2494WAT     H1 7724   4.410   5.085   6.456
 2494WAT     H2 7725   4.294   5.198   6.433
 2495WAT      O 7726   1.762   0.002   4.520
 2495WAT     H1 7727   1.861  -0.003   4.503
 2495WAT     H2 7728   1.743  -0.020   4.615
 2496WAT      O 7729   3.881   6.367   7.425
 2496WAT     H1 7730   3.856   6.301   7.496
 2496WAT     H2 7731   3.810   6.368   7.354
 2497WAT      O 7732   0.708   1.799   9.351
 2497WAT     H1 7733   0.767   1.774   9.273
 2497WAT     H2 7734   0.688   1.897   9.348
 2498WAT      O 7735   4.351   9.311   4.399
 2498WAT     H1 7736   4.253   9.329   4.403
 2498WAT     H2 7737   4.377   9.247   4.471
 2499WAT      O 7738   3.654   3.094   0.960
 2499WAT     H1 7739   3.695   3.177   0.998
 2499WAT     H2 7740   3.581   3.120   0.897
 2500WAT      O 7741   4.830   9.409   9.576
 2500WAT     H1 7742   4.759   9.478   9.595
 2500WAT     H2 7743   4.843   9.402   9.477
 2501WAT      O 7744   3.282   6.247   3.200
 2501WAT     H1 7745   3.297   6.269   3.103
 2501WAT     H2 7746   3.354   6.289   3.255
 2502WAT      O 7747   8.902   1.050   5.305
 2502WAT     H1 7748   8.970   1.058   5.378
 2502WAT     H2 7749   8.822   1.107   5.327
 2503WAT      O 7750   7.457   8.846   3.760
 2503WAT     H1 7751   7.386   8.820   3.695
 2503WAT     H2 7752   7.463   8.946   3.765
 2504WAT      O 7753   0.552   8.033   7.072
 2504WAT     H1 7754   0.542   8.029   7.172
 2504WAT     H2 7755   0.470   7.996   7.029
 2505WAT      O 7756   7.735   8.269   6.678
 2505WAT     H1 7757   7.691   8.243   6.764
 2505WAT     H2 7758   7.833   8.283   6.694
 2506WAT      O 7759   7.256   0.917   9.204
 2506WAT     H1 7760   7.167   0.958   9.184
 2506WAT     H2 7761   7.312   0.918   9.121
 2507WAT      O 7762   9.447   5.955   1.973
 2507WAT     H1 7763   9.517   5.987   1.908
 2507WAT     H2 7764   9.459   5.857   1.990
 2508WAT      O 7765   2.354   5.729   4.678
 2508WAT     H1 7766   2.288   5.664   4.640
 2508WAT     H2 7767   2.423   5.751   4.609
 2509WAT      O 7768   2.116   8.920   2.684
 2509WAT     H1 7769   2.177   8.998   2.672
 2509WAT     H2 7770   2.051   8.917   2.607
 2510WAT      O 7771   2.184   5.614   9.736
 2510WAT     H1 7772   2.251   5.540   9.726
 2510WAT     H2 7773   2.211   5.692   9.680
 2511WAT      O 7774   5.458   1.476   3.752
 2511WAT     H1 7775   5.467   1.503   3.848
 2511WAT     H2 7776   5.545   1.435   3.721
 2512WAT      O 7777   3.350   7.814   4.942
 2512WAT     H1 7778   3.269   7.773   4.985
 2512WAT     H2 7779   3.406   7.742   4.901
 2513WAT      O 7780   4.164   1.009   0.231
 2513WAT     H1 7781   4.093   1.079   0.222
 2513WAT     H2 7782   4.121   0.919   0.239
 2514WAT      O 7783   9.761   9.115   3.242
 2514WAT     H1 7784   9.829   9.041   3.244
 2514WAT     H2 7785   9.734   9.134   3.148
 2515WAT      O 7786   4.525   3.968   1.914
 2515WAT     H1 7787   4.495   4.062   1.901
 2515WAT     H2 7788   4.556   3.929   1.827
 2516WAT      O 7789   9.127   2.223   5.284
 2516WAT     H1 7790   9.055   2.287   5.259
 2516WAT     H2 7791   9.089   2.150   5.341
 2517WAT      O 7792   1.133   7.611   2.207
 2517WAT     H1 7793   1.213   7.568   2.248
 2517WAT     H2 7794   1.151   7.708   2.192
 2518WAT      O 7795   1.904   0.218   6.681
 2518WAT     H1 7796   1.835   0.267   6.627
 2518WAT     H2 7797   1.943   0.144   6.626
 2519WAT      O 7798   8.531   0.246   8.370
 2519WAT     H1 7799   8.592   0.237   8.449
 2519WAT     H2 7800   8.482   0.333   8.376
 2520WAT      O 7801   0.434   2.486   0.173
 2520WAT     H1 7802   0.505   2.459   0.238
 2520WAT     H2 7803   0.345   2.479   0.217
 2521WAT      O 7804   9.316   3.998   5.164
 2521WAT     H1 7805   9.296   4.076   5.104
 2521WAT     H2 7806   9.380   3.936   5.119
 2522WAT      O 7807   3.762   9.072   6.298
 2522WAT     H1 7808   3.778   9.065   6.396
 2522WAT     H2 7809   3.844   9.108   6.254
 2523WAT      O 7810   0.396   6.557   4.919
 2523WAT     H1 7811   0.473   6.493   4.921
 2523WAT     H2 7812   0.342   6.541   4.836
 2524WAT      O 7813   2.311   7.303   3.596
 2524WAT     H1 7814   2.345   7.244   3.522
 2524WAT     H2 7815   2.213   7.287   3.609
 2525WAT      O 7816   2.660   4.887   9.046
 2525WAT     H1 7817   2.617   4.901   9.136
 2525WAT     H2 7818   2.594   4.846   8.984
 2526WAT      O 7819   5.759   5.018   7.937
 2526WAT     H1 7820   5.721   5.081   8.005
 2526WAT     H2 7821   5.756   5.060   7.847
 2527WAT      O 7822   4.735   0.480   6.052
 2527WAT     H1 7823   4.767   0.572   6.074
 2527WAT     H2 7824   4.771   0.452   5.963
 2528WAT      O 7825   7.499   8.617   2.523
 2528WAT     H1 7826   7.435   8.684   2.560
 2528WAT     H2 7827   7.520   8.639   2.428
 2529WAT      O 7828   1.147   8.157   8.876
 2529WAT     H1 7829   1.215   8.198   8.936
 2529WAT     H2 7830   1.058   8.198   8.895
 2530WAT      O 7831   3.621   0.277   5.354
 2530WAT     H1 7832   3.700   0.242   5.405
 2530WAT     H2 7833   3.537   0.245   5.397
 2531WAT      O 7834   5.260   9.109   6.226
 2531WAT     H1 7835   5.205   9.029   6.203
 2531WAT     H2 7836   5.224   9.189   6.178
 2532WAT      O 7837   1.217   7.071   1.329
 2532WAT     H1 7838   1.314   7.060   1.351
 2532WAT     H2 7839   1.201   7.163   1.294
 2533WAT      O 7840   9.331   7.158   9.655
 2533WAT     H1 7841   9.315   7.078   9.713
 2533WAT     H2 7842   9.318   7.242   9.708
 2534WAT      O 7843   5.284   0.231   4.950
 2534WAT     H1 7844   5.254   0.142   4.986
 2534WAT     H2 7845   5.245   0.245   4.859
 2535WAT      O 7846   1.451   8.105   7.530
 2535WAT     H1 7847   1.409   8.017   7.556
 2535WAT     H2 7848   1.418   8.176   7.592
 2536WAT      O 7849   1.403   9.667   8.662
 2536WAT     H1 7850   1.336   9.710   8.602
 2536WAT     H2 7851   1.447   9.590   8.614
 2537WAT      O 7852   7.332   7.862   6.450
 2537WAT     H1 7853   7.324   7.813   6.363
 2537WAT     H2 7854   7.423   7.849   6.488
 2538WAT      O 7855   4.899   2.502   5.914
 2538WAT     H1 7856   4.822   2.553   5.953
 2538WAT     H2 7857   4.866   2.412   5.884
 2539WAT      O 7858   2.229   7.691   0.281
 2539WAT     H1 7859   2.166   7.675   0.357
 2539WAT     H2 7860   2.309   7.632   0.292
 2540WAT      O 7861   8.198   2.896   1.737
 2540WAT     H1 7862   8.225   2.983   1.696
 2540WAT     H2 7863   8.256   2.823   1.700
 2541WAT      O 7864   5.459   4.526   3.354
 2541WAT     H1 7865   5.437   4.543   3.258
 2541WAT     H2 7866   5.375   4.507   3.405
 2542WAT      O 7867   3.506   7.426   2.437
 2542WAT     H1 7868   3.447   7.470   2.370
 2542WAT     H2 7869   3.587   7.483   2.453
 2543WAT      O 7870   0.095   4.542   7.979
 2543WAT     H1 7871   0.071   4.629   8.023
 2543WAT     H2 7872   0.182   4.551   7.932
 2544WAT      O 7873   4.900   7.363   6.391
 2544WAT     H1 7874   4.885   7.279   6.339
 2544WAT     H2 7875   4.817   7.419   6.388
 2545WAT      O 7876   1.643   5.721   1.698
 2545WAT     H1 7877   1.618   5.656   1.770
 2545WAT     H2 7878   1.708   5.787   1.734
 2546WAT      O 7879   6.663   9.774   6.851
 2546WAT     H1 7880   6.709   9.799   6.765
 2546WAT     H2 7881   6.564   9.778   6.839
 2547WAT      O 7882   5.484   6.828   2.475
 2547WAT     H1 7883   5.560   6.870   2.524
 2547WAT     H2 7884   5.401   6.835   2.530
 2548WAT      O 7885   6.837   6.693   0.109
 2548WAT     H1 7886   6.799   6.662   0.196
 2548WAT     H2 7887   6.893   6.775   0.124
 2549WAT      O 7888   2.587   3.825   4.005
 2549WAT     H1 7889   2.532   3.851   3.925
 2549WAT     H2 7890   2.528   3.821   4.085
 2550WAT      O 7891   1.342   9.462   1.964
 2550WAT     H1 7892   1.425   9.408   1.978
 2550WAT     H2 7893   1.367   9.551   1.926
 2551WAT      O 7894   8.768   9.622   3.151
 2551WAT     H1 7895   8.734   9.670   3.232
 2551WAT     H2 7896   8.771   9.685   3.073
 2552WAT      O 7897   9.014   7.880   1.185
 2552WAT     H1 7898   9.108   7.874   1.218
 2552WAT     H2 7899   9.014   7.921   1.093
 2553WAT      O 7900   9.555   8.837   3.007
 2553WAT     H1 7901   9.483   8.897   2.971
 2553WAT     H2 7902   9.634   8.838   2.946
 2554WAT      O 7903   5.600   3.365   8.720
 2554WAT     H1 7904   5.616   3.318   8.806
 2554WAT     H2 7905   5.675   3.429   8.702
 2555WAT      O 7906   4.870   5.724   7.110
 2555WAT     H1 7907   4.820   5.656   7.056
 2555WAT     H2 7908   4.804   5.781   7.160
 2556WAT      O 7909   8.184   8.579   0.679
 2556WAT     H1 7910   8.117   8.514   0.714
 2556WAT     H2 7911   8.163   8.602   0.584
 2557WAT      O 7912   6.911   0.623   3.701
 2557WAT     H1 7913   6.877   0.702   3.649
 2557WAT     H2 7914   7.010   0.621   3.696
 2558WAT      O 7915   5.259   6.157   3.072
 2558WAT     H1 7916   5.296   6.234   3.020
 2558WAT     H2 7917   5.206   6.098   3.011
 2559WAT      O 7918   3.724   6.440   1.787
 2559WAT     H1 7919   3.774   6.481   1.710
 2559WAT     H2 7920   3.628   6.428   1.762
 2560WAT      O 7921   4.423   7.968   4.685
 2560WAT     H1 7922   4.394   8.059   4.716
 2560WAT     H2 7923   4.395   7.899   4.751
 2561WAT      O 7924   1.684   0.296   6.292
 2561WAT     H1 7925   1.687   0.395   6.280
 2561WAT     H2 7926   1.751   0.253   6.231
 2562WAT      O 7927   8.738   5.209   4.907
 2562WAT     H1 7928   8.696   5.273   4.970
 2562WAT     H2 7929   8.825   5.177   4.944
 2563WAT      O 7930   3.249   4.626   3.366
 2563WAT     H1 7931   3.323   4.567   3.334
 2563WAT     H2 7932   3.165   4.573   3.375
 2564WAT      O 7933   9.144   5.006   2.721
 2564WAT     H1 7934   9.215   5.075   2.706
 2564WAT     H2 7935   9.182   4.915   2.703
 2565WAT      O 7936   3.676   4.928   4.645
 2565WAT     H1 7937   3.607   4.921   4.718
 2565WAT     H2 7938   3.630   4.939   4.557
 2566WAT      O 7939   6.018   4.790   9.413
 2566WAT     H1 7940   6.114   4.794   9.384
 2566WAT     H2 7941   6.007   4.845   9.496
 2567WAT      O 7942   3.952   0.445   2.804
 2567WAT     H1 7943   3.895   0.394   2.868
 2567WAT     H2 7944   4.048   0.432   2.827
 2568WAT      O 7945   0.911   8.208   3.487
 2568WAT     H1 7946   0.819   8.201   3.525
 2568WAT     H2 7947   0.946   8.116   3.470
 2569WAT      O 7948   2.532   1.947   4.862
 2569WAT     H1 7949   2.438   1.965   4.835
 2569WAT     H2 7950   2.594   2.010   4.815
 2570WAT      O 7951   8.068   1.915   1.548
 2570WAT     H1 7952   8.077   1.953   1.640
 2570WAT     H2 7953   7.972   1.921   1.519
 2571WAT      O 7954   4.339   4.332   4.581
 2571WAT     H1 7955   4.354   4.428   4.560
 2571WAT     H2 7956   4.377   4.276   4.507
 2572WAT      O 7957   7.683   0.713   0.322
 2572WAT     H1 7958   7.712   0.794   0.372
 2572WAT     H2 7959   7.631   0.653   0.383
 2573WAT      O 7960   8.472   6.549   0.898
 2573WAT     H1 7961   8.431   6.461   0.923
 2573WAT     H2 7962   8.416   6.592   0.827
 2574WAT      O 7963   5.188   8.398   3.980
 2574WAT     H1 7964   5.267   8.410   3.920
 2574WAT     H2 7965   5.112   8.453   3.945
 2575WAT      O 7966   7.900   8.900   6.433
 2575WAT     H1 7967   7.971   8.836   6.405
 2575WAT     H2 7968   7.935   8.960   6.505
 2576WAT      O 7969   8.644   7.425   4.633
 2576WAT     H1 7970   8.695   7.510   4.640
 2576WAT     H2 7971   8.556   7.435   4.680
 2577WAT      O 7972   7.832   0.802   5.142
 2577WAT     H1 7973   7.765   0.874   5.122
 2577WAT     H2 7974   7.876   0.821   5.229
 2578WAT      O 7975   3.808   3.602   0.792
 2578WAT     H1 7976   3.735   3.580   0.857
 2578WAT     H2 7977   3.884   3.646   0.841
 2579WAT      O 7978   2.093   8.382   2.407
 2579WAT     H1 7979   2.109   8.434   2.323
 2579WAT     H2 7980   2.014   8.322   2.394
 2580WAT      O 7981   2.799   8.458   9.469
 2580WAT     H1 7982   2.725   8.390   9.472
 2580WAT     H2 7983   2.763   8.548   9.494
 2581WAT      O 7984   4.125   7.205   0.004
 2581WAT     H1 7985   4.133   7.159   0.092
 2581WAT     H2 7986   4.074   7.290   0.015
 2582WAT      O 7987   1.169   1.390   9.151
 2582WAT     H1 7988   1.164   1.296   9.119
 2582WAT     H2 7989   1.264   1.412   9.174
 2583WAT      O 7990   8.003   0.338   9.829
 2583WAT     H1 7991   8.087   0.335   9.883
 2583WAT     H2 7992   7.926   0.360   9.889
 2584WAT      O 7993   2.555   5.767   4.449
 2584WAT     H1 7994   2.589   5.838   4.388
 2584WAT     H2 7995   2.631   5.710   4.480
 2585WAT      O 7996   7.991   7.394   3.893
 2585WAT     H1 7997   7.935   7.367   3.815
 2585WAT     H2 7998   7.943   7.373   3.978
 2586WAT      O 7999   4.983   5.592   0.319
 2586WAT     H1 8000   4.959   5.557   0.228
 2586WAT     H2 8001   5.026   5.682   0.310
 2587WAT      O 8002   8.440   5.493   5.738
 2587WAT     H1 8003   8.465   5.465   5.646
 2587WAT     H2 8004   8.409   5.588   5.737
 2588WAT      O 8005   8.163   9.647   1.074
 2588WAT     H1 8006   8.250   9.687   1.045
 2588WAT     H2 8007   8.158   9.552   1.042
 2589WAT      O 8008   4.944   6.830   7.311
 2589WAT     H1 8009   4.874   6.760   7.301
 2589WAT     H2 8010   4.952   6.857   7.407
 2590WAT      O 8011   0.872   7.136   8.189
 2590WAT     H1 8012   0.942   7.073   8.224
 2590WAT     H2 8013   0.911   7.192   8.116
 2591WAT      O 8014   6.402   5.834   7.929
 2591WAT     H1 8015   6.459   5.763   7.888
 2591WAT     H2 8016   6.399   5.821   8.029
 2592WAT      O 8017   5.304   8.254   0.764
 2592WAT     H1 8018   5.213   8.279   0.797
 2592WAT     H2 8019   5.298   8.169   0.712
 2593WAT      O 8020   1.338   5.078   6.845
 2593WAT     H1 8021   1.251   5.127   6.849
 2593WAT     H2 8022   1.322   4.984   6.813
 2594WAT      O 8023   2.058   3.930   9.443
 2594WAT     H1 8024   2.097   3.864   9.507
 2594WAT     H2 8025   1.988   3.985   9.491
 2595WAT      O 8026   6.111   0.215   1.532
 2595WAT     H1 8027   6.133   0.283   1.602
 2595WAT     H2 8028   6.098   0.126   1.575
 2596WAT      O 8029   3.805   9.064   3.306
 2596WAT     H1 8030   3.723   9.065   3.363
 2596WAT     H2 8031   3.820   8.971   3.272
 2597WAT      O 8032   6.760   4.513   5.888
 2597WAT     H1 8033   6.770   4.483   5.793
 2597WAT     H2 8034   6.786   4.438   5.949
 2598WAT      O 8035   2.946   0.862   1.890
 2598WAT     H1 8036   3.003   0.895   1.815
 2598WAT     H2 8037   2.869   0.925   1.904
 2599WAT      O 8038   7.632   3.116   4.514
 2599WAT     H1 8039   7.616   3.128   4.612
 2599WAT     H2 8040   7.566   3.051   4.477
 2600WAT      O 8041   4.470   7.455   7.498
 2600WAT     H1 8042   4.511   7.505   7.421
 2600WAT     H2 8043   4.410   7.383   7.462
 2601WAT      O 8044   0.740   6.378   6.212
 2601WAT     H1 8045   0.658   6.321   6.210
 2601WAT     H2 8046   0.742   6.438   6.132
 2602WAT      O 8047   9.482   4.671   1.712
 2602WAT     H1 8048   9.516   4.582   1.743
 2602WAT     H2 8049   9.440   4.661   1.622
 2603WAT      O 8050   1.006   9.264   1.371
 2603WAT     H1 8051   0.937   9.287   1.440
 2603WAT     H2 8052   1.032   9.168   1.380
 2604WAT      O 8053   9.731   4.524   0.137
 2604WAT     H1 8054   9.783   4.562   0.214
 2604WAT     H2 8055   9.778   4.443   0.103
 2605WAT      O 8056   7.294   3.230   4.581
 2605WAT     H1 8057   7.293   3.252   4.679
 2605WAT     H2 8058   7.356   3.153   4.565
 2606WAT      O 8059   9.212   7.844   7.830
 2606WAT     H1 8060   9.287   7.780   7.847
 2606WAT     H2 8061   9.160   7.858   7.914
 2607WAT      O 8062   9.705   7.553   2.519
 2607WAT     H1 8063   9.801   7.548   2.547
 2607WAT     H2 8064   9.684   7.645   2.486
 2608WAT      O 8065   9.225   1.270   1.742
 2608WAT     H1 8066   9.155   1.285   1.672
 2608WAT     H2 8067   9.235   1.352   1.798
 2609WAT      O 8068   3.457   5.211   7.567
 2609WAT     H1 8069   3.404   5.212   7.482
 2609WAT     H2 8070   3.528   5.282   7.563
 2610WAT      O 8071   3.955   1.273   4.805
 2610WAT     H1 8072   4.039   1.227   4.780
 2610WAT     H2 8073   3.974   1.340   4.878
 2611WAT      O 8074   6.199   8.255   8.026
 2611WAT     H1 8075   6.145   8.330   7.988
 2611WAT     H2 8076   6.287   8.290   8.058
 2612WAT      O 8077   4.473   8.688   0.427
 2612WAT     H1 8078   4.503   8.774   0.470
 2612WAT     H2 8079   4.553   8.638   0.394
 2613WAT      O 8080   2.340   4.829   5.002
 2613WAT     H1 8081   2.439   4.818   4.994
 2613WAT     H2 8082   2.302   4.858   4.914
 2614WAT      O 8083   2.120   7.256   3.294
 2614WAT     H1 8084   2.152   7.351   3.285
 2614WAT     H2 8085   2.169   7.199   3.228
 2615WAT      O 8086   1.924   4.956   5.016
 2615WAT     H1 8087   1.918   5.047   5.056
 2615WAT     H2 8088   2.003   4.908   5.053
 2616WAT      O 8089   7.519   0.400   8.572
 2616WAT     H1 8090   7.458   0.458   8.626
 2616WAT     H2 8091   7.478   0.383   8.483
 2617WAT      O 8092   4.034   8.909   4.174
 2617WAT     H1 8093   3.998   8.989   4.125
 2617WAT     H2 8094   3.994   8.826   4.137
 2618WAT      O 8095   3.186   4.014   9.847
 2618WAT     H1 8096   3.167   4.094   9.790
 2618WAT     H2 8097   3.143   4.027   9.937
 2619WAT      O 8098   1.768   3.118   6.116
 2619WAT     H1 8099   1.764   3.210   6.077
 2619WAT     H2 8100   1.824   3.060   6.057
 2620WAT      O 8101   1.423   6.618   1.710
 2620WAT     H1 8102   1.439   6.615   1.809
 2620WAT     H2 8103   1.369   6.699   1.687
 2621WAT      O 8104   1.702   5.725   2.307
 2621WAT     H1 8105   1.641   5.741   2.230
 2621WAT     H2 8106   1.713   5.809   2.360
 2622WAT      O 8107   1.550   5.980   4.565
 2622WAT     H1 8108   1.508   5.889   4.561
 2622WAT     H2 8109   1.479   6.050   4.564
 2623WAT      O 8110   1.311   7.453   0.039
 2623WAT     H1 8111   1.217   7.488   0.048
 2623WAT     H2 8112   1.311   7.354   0.054
 2624WAT      O 8113   8.071   9.462   6.344
 2624WAT     H1 8114   8.168   9.449   6.324
 2624WAT     H2 8115   8.062   9.510   6.431
 2625WAT      O 8116   8.928   7.364   0.100
 2625WAT     H1 8117   8.953   7.424   0.025
 2625WAT     H2 8118   8.976   7.276   0.090
 2626WAT      O 8119   1.566   7.400   0.893
 2626WAT     H1 8120   1.586   7.494   0.864
 2626WAT     H2 8121   1.546   7.344   0.812
 2627WAT      O 8122   0.039   6.118   9.200
 2627WAT     H1 8123   0.060   6.168   9.284
 2627WAT     H2 8124  -0.047   6.068   9.211
 2628WAT      O 8125   7.792   2.901   2.811
 2628WAT     H1 8126   7.729   2.977   2.826
 2628WAT     H2 8127   7.783   2.835   2.885
 2629WAT      O 8128   8.530   9.024   3.028
 2629WAT     H1 8129   8.547   8.926   3.018
 2629WAT     H2 8130   8.541   9.070   2.940
 2630WAT      O 8131   2.185   7.429   0.481
 2630WAT     H1 8132   2.170   7.410   0.578
 2630WAT     H2 8133   2.279   7.462   0.468
 2631WAT      O 8134   3.597   7.930   6.135
 2631WAT     H1 8135   3.577   7.889   6.224
 2631WAT     H2 8136   3.646   7.863   6.078
 2632WAT      O 8137   2.391   4.397   2.732
 2632WAT     H1 8138   2.374   4.467   2.801
 2632WAT     H2 8139   2.423   4.313   2.776
 2633WAT      O 8140   0.220   4.247   1.202
 2633WAT     H1 8141   0.260   4.243   1.111
 2633WAT     H2 8142   0.278   4.302   1.262
 2634WAT      O 8143   2.447   2.520   9.742
 2634WAT     H1 8144   2.454   2.421   9.750
 2634WAT     H2 8145   2.454   2.547   9.646
 2635WAT      O 8146   9.315   6.036   5.447
 2635WAT     H1 8147   9.392   6.041   5.510
 2635WAT     H2 8148   9.328   6.100   5.371
 2636WAT      O 8149   2.848   8.341   4.233
 2636WAT     H1 8150   2.759   8.305   4.261
 2636WAT     H2 8151   2.895   8.380   4.312
 2637WAT      O 8152   2.007   7.885   8.111
 2637WAT     H1 8153   1.965   7.839   8.033
 2637WAT     H2 8154   2.106   7.883   8.102
 2638WAT      O 8155   4.012   4.505   5.947
 2638WAT     H1 8156   3.980   4.416   5.981
 2638WAT     H2 8157   4.098   4.529   5.992
 2639WAT      O 8158   6.554   2.692   2.869
 2639WAT     H1 8159   6.545   2.684   2.769
 2639WAT     H2 8160   6.651   2.699   2.893
 2640WAT      O 8161   8.679   3.647   7.378
 2640WAT     H1 8162   8.709   3.685   7.290
 2640WAT     H2 8163   8.595   3.594   7.364
 2641WAT      O 8164   4.791   8.707   2.904
 2641WAT     H1 8165   4.868   8.644   2.912
 2641WAT     H2 8166   4.811   8.790   2.957
 2642WAT      O 8167   3.868   1.042   9.598
 2642WAT     H1 8168   3.849   1.027   9.695
 2642WAT     H2 8169   3.918   1.128   9.587
 2643WAT      O 8170   5.253   3.923   2.135
 2643WAT     H1 8171   5.276   3.995   2.200
 2643WAT     H2 8172   5.249   3.961   2.043
 2644WAT      O 8173   5.615   8.080   3.620
 2644WAT     H1 8174   5.602   8.168   3.666
 2644WAT     H2 8175   5.609   8.006   3.687
 2645WAT      O 8176   2.666   7.631   3.299
 2645WAT     H1 8177   2.636   7.645   3.204
 2645WAT     H2 8178   2.608   7.562   3.342
 2646WAT      O 8179   2.830   7.273   2.144
 2646WAT     H1 8180   2.744   7.323   2.149
 2646WAT     H2 8181   2.897   7.328   2.094
 2647WAT      O 8182   0.364   6.257   2.418
 2647WAT     H1 8183   0.385   6.335   2.359
 2647WAT     H2 8184   0.450   6.213   2.447
 2648WAT      O 8185   7.654   1.359   8.569
 2648WAT     H1 8186   7.668   1.425   8.494
 2648WAT     H2 8187   7.674   1.404   8.656
 2649WAT      O 8188   1.639   3.134   1.019
 2649WAT     H1 8189   1.650   3.040   1.049
 2649WAT     H2 8190   1.620   3.136   0.921
 2650WAT      O 8191   8.844   0.165   9.673
 2650WAT     H1 8192   8.903   0.149   9.594
 2650WAT     H2 8193   8.888   0.129   9.755
 2651WAT      O 8194   1.830   1.968   5.413
 2651WAT     H1 8195   1.899   1.921   5.359
 2651WAT     H2 8196   1.782   2.034   5.355
 2652WAT      O 8197   6.794   8.489   8.593
 2652WAT     H1 8198   6.861   8.426   8.632
 2652WAT     H2 8199   6.718   8.437   8.555
 2653WAT      O 8200   1.001   5.547   8.462
 2653WAT     H1 8201   0.949   5.489   8.401
 2653WAT     H2 8202   1.041   5.492   8.535
 2654WAT      O 8203   0.937   6.567   2.013
 2654WAT     H1 8204   0.980   6.610   1.933
 2654WAT     H2 8205   0.945   6.468   2.006
 2655WAT      O 8206   1.287   5.651   9.751
 2655WAT     H1 8207   1.367   5.594   9.770
 2655WAT     H2 8208   1.250   5.627   9.661
 2656WAT      O 8209   9.080   6.572   5.490
 2656WAT     H1 8210   9.090   6.631   5.570
 2656WAT     H2 8211   8.984   6.543   5.482
 2657WAT      O 8212   4.127   6.341   8.070
 2657WAT     H1 8213   4.185   6.372   8.146
 2657WAT     H2 8214   4.060   6.275   8.104
 2658WAT      O 8215   2.357   5.163   9.582
 2658WAT     H1 8216   2.270   5.114   9.587
 2658WAT     H2 8217   2.433   5.098   9.583
 2659WAT      O 8218   2.924   0.404   1.889
 2659WAT     H1 8219   2.942   0.476   1.822
 2659WAT     H2 8220   2.974   0.321   1.864
 2660WAT      O 8221   6.528   4.371   1.170
 2660WAT     H1 8222   6.447   4.347   1.223
 2660WAT     H2 8223   6.511   4.355   1.073
 2661WAT      O 8224   6.717   7.504   2.811
 2661WAT     H1 8225   6.786   7.432   2.810
 2661WAT     H2 8226   6.645   7.480   2.876
 2662WAT      O 8227   0.997   7.153   3.210
 2662WAT     H1 8228   1.064   7.224   3.232
 2662WAT     H2 8229   0.961   7.168   3.118
 2663WAT      O 8230   3.861   8.460   6.701
 2663WAT     H1 8231   3.794   8.463   6.775
 2663WAT     H2 8232   3.865   8.548   6.654
 2664WAT      O 8233   0.562   3.901   0.888
 2664WAT     H1 8234   0.619   3.975   0.923
 2664WAT     H2 8235   0.596   3.814   0.922
 2665WAT      O 8236   4.692   4.660   8.633
 2665WAT     H1 8237   4.764   4.711   8.680
 2665WAT     H2 8238   4.641   4.720   8.573
 2666WAT      O 8239   9.389   9.296   4.569
 2666WAT     H1 8240   9.355   9.359   4.500
 2666WAT     H2 8241   9.417   9.348   4.650
 2667WAT      O 8242   1.340   6.202   4.924
 2667WAT     H1 8243   1.318   6.148   5.005
 2667WAT     H2 8244   1.289   6.288   4.927
 2668WAT      O 8245   7.352   5.710   2.092
 2668WAT     H1 8246   7.365   5.757   2.179
 2668WAT     H2 8247   7.260   5.671   2.088
 2669WAT      O 8248   9.089   1.380   2.522
 2669WAT     H1 8249   9.186   1.357   2.523
 2669WAT     H2 8250   9.040   1.318   2.584
 2670WAT      O 8251   1.525   5.246   5.294
 2670WAT     H1 8252   1.429   5.243   5.322
 2670WAT     H2 8253   1.575   5.170   5.337
 2671WAT      O 8254   6.739   4.425   8.133
 2671WAT     H1 8255   6.755   4.507   8.188
 2671WAT     H2 8256   6.793   4.430   8.049
 2672WAT      O 8257   7.821   1.896   1.497
 2672WAT     H1 8258   7.829   1.836   1.418
 2672WAT     H2 8259   7.784   1.845   1.574
 2673WAT      O 8260   5.842   7.594   7.555
 2673WAT     H1 8261   5.826   7.691   7.576
 2673WAT     H2 8262   5.806   7.572   7.465
 2674WAT      O 8263   3.732   8.274   6.303
 2674WAT     H1 8264   3.802   8.269   6.374
 2674WAT     H2 8265   3.767   8.229   6.220
 2675WAT      O 8266   7.883   6.228   6.968
 2675WAT     H1 8267   7.838   6.142   6.992
 2675WAT     H2 8268   7.824   6.305   6.990
 2676WAT      O 8269   4.557   9.405   4.792
 2676WAT     H1 8270   4.498   9.324   4.783
 2676WAT     H2 8271   4.644   9.379   4.833
 2677WAT      O 8272   7.134   0.156   0.049
 2677WAT     H1 8273   7.082   0.197  -0.026
 2677WAT     H2 8274   7.103   0.195   0.136
 2678WAT      O 8275   0.163   1.862   3.955
 2678WAT     H1 8276   0.128   1.844   4.047
 2678WAT     H2 8277   0.096   1.914   3.903
 2679WAT      O 8278   0.130   8.179   5.537
 2679WAT     H1 8279   0.048   8.217   5.580
 2679WAT     H2 8280   0.177   8.250   5.485
 2680WAT      O 8281   6.642   2.775   3.833
 2680WAT     H1 8282   6.618   2.741   3.743
 2680WAT     H2 8283   6.665   2.873   3.828
 2681WAT      O 8284   8.297   8.981   1.007
 2681WAT     H1 8285   8.259   8.915   0.942
 2681WAT     H2 8286   8.308   9.069   0.962
 2682WAT      O 8287   0.907   7.410   1.757
 2682WAT     H1 8288   0.921   7.502   1.719
 2682WAT     H2 8289   0.901   7.417   1.857
 2683WAT      O 8290   8.373   7.069   0.816
 2683WAT     H1 8291   8.369   7.029   0.725
 2683WAT     H2 8292   8.325   7.009   0.881
 2684WAT      O 8293   1.611   8.447   7.340
 2684WAT     H1 8294   1.698   8.397   7.335
 2684WAT     H2 8295   1.536   8.385   7.319
 2685WAT      O 8296   7.474   8.352   2.626
 2685WAT     H1 8297   7.392   8.312   2.586
 2685WAT     H2 8298   7.448   8.429   2.685
 2686WAT      O 8299   7.614   0.202   6.346
 2686WAT     H1 8300   7.617   0.209   6.446
 2686WAT     H2 8301   7.520   0.217   6.315
 2687WAT      O 8302   0.271   2.838   2.796
 2687WAT     H1 8303   0.193   2.778   2.810
 2687WAT     H2 8304   0.325   2.804   2.719
 2688WAT      O 8305   3.663   6.661   2.332
 2688WAT     H1 8306   3.702   6.752   2.319
 2688WAT     H2 8307   3.701   6.599   2.263
 2689WAT      O 8308   4.653   2.190   4.614
 2689WAT     H1 8309   4.726   2.152   4.557
 2689WAT     H2 8310   4.575   2.127   4.615
 2690WAT      O 8311   3.694   8.181   5.418
 2690WAT     H1 8312   3.659   8.094   5.382
 2690WAT     H2 8313   3.618   8.237   5.452
 2691WAT      O 8314   4.282   5.427   6.176
 2691WAT     H1 8315   4.193   5.470   6.189
 2691WAT     H2 8316   4.301   5.364   6.251
 2692WAT      O 8317   5.660   4.697   3.452
 2692WAT     H1 8318   5.583   4.633   3.456
 2692WAT     H2 8319   5.699   4.695   3.359
 2693WAT      O 8320   8.898   6.599   7.551
 2693WAT     H1 8321   8.886   6.695   7.527
 2693WAT     H2 8322   8.875   6.541   7.473
 2694WAT      O 8323   1.926   9.251   7.945
 2694WAT     H1 8324   1.886   9.203   8.022
 2694WAT     H2 8325   1.987   9.323   7.978
 2695WAT      O 8326   9.535   0.858   9.002
 2695WAT     H1 8327   9.501   0.808   9.081
 2695WAT     H2 8328   9.590   0.797   8.945
 2696WAT      O 8329   8.086   8.589   4.847
 2696WAT     H1 8330   8.088   8.674   4.795
 2696WAT     H2 8331   8.171   8.538   4.832
 2697WAT      O 8332   3.964   4.829   8.112
 2697WAT     H1 8333   3.887   4.774   8.145
 2697WAT     H2 8334   3.963   4.918   8.157
 2698WAT      O 8335   8.735   7.817   7.180
 2698WAT     H1 8336   8.661   7.842   7.243
 2698WAT     H2 8337   8.701   7.752   7.113
 2699WAT      O 8338   8.717   7.317   9.735
 2699WAT     H1 8339   8.648   7.357   9.675
 2699WAT     H2 8340   8.807   7.323   9.692
 2700WAT      O 8341   4.343   9.209   8.382
 2700WAT     H1 8342   4.333   9.245   8.475
 2700WAT     H2 8343   4.439   9.188   8.364
 2701WAT      O 8344   9.276   4.342   2.460
 2701WAT     H1 8345   9.187   4.377   2.430
 2701WAT     H2 8346   9.307   4.273   2.395
 2702WAT      O 8347   3.458   9.756   5.132
 2702WAT     H1 8348   3.375   9.794   5.174
 2702WAT     H2 8349   3.435   9.711   5.046
 2703WAT      O 8350   2.104   4.652   7.238
 2703WAT     H1 8351   2.179   4.587   7.254
 2703WAT     H2 8352   2.109   4.725   7.306
 2704WAT      O 8353   0.484   2.171   7.424
 2704WAT     H1 8354   0.462   2.255   7.376
 2704WAT     H2 8355   0.430   2.096   7.386
 2705WAT      O 8356   1.124   1.756   9.158
 2705WAT     H1 8357   1.141   1.715   9.068
 2705WAT     H2 8358   1.177   1.707   9.227
 2706WAT      O 8359   1.487   1.716   8.798
 2706WAT     H1 8360   1.551   1.782   8.759
 2706WAT     H2 8361   1.449   1.753   8.883
 2707WAT      O 8362   0.039   1.883   7.554
 2707WAT     H1 8363   0.117   1.940   7.578
 2707WAT     H2 8364   0.070   1.805   7.500
 2708WAT      O 8365   3.141   2.938   1.915
 2708WAT     H1 8366   3.179   2.861   1.967
 2708WAT     H2 8367   3.215   3.002   1.893
 2709WAT      O 8368   2.783   7.744   5.798
 2709WAT     H1 8369   2.776   7.644   5.798
 2709WAT     H2 8370   2.805   7.775   5.706
 2710WAT      O 8371   3.553   6.372   8.666
 2710WAT     H1 8372   3.485   6.444   8.678
 2710WAT     H2 8373   3.641   6.403   8.701
 2711WAT      O 8374   1.329   0.405   1.167
 2711WAT     H1 8375   1.293   0.311   1.168
 2711WAT     H2 8376   1.429   0.402   1.162
 2712WAT      O 8377   6.731   2.602   5.690
 2712WAT     H1 8378   6.722   2.544   5.771
 2712WAT     H2 8379   6.760   2.546   5.612
 2713WAT      O 8380   5.142   3.337   2.045
 2713WAT     H1 8381   5.197   3.337   2.129
 2713WAT     H2 8382   5.045   3.328   2.069
 2714WAT      O 8383   7.610   7.154   2.999
 2714WAT     H1 8384   7.684   7.095   3.033
 2714WAT     H2 8385   7.584   7.219   3.071
 2715WAT      O 8386   0.898   0.487   3.091
 2715WAT     H1 8387   0.927   0.537   3.009
 2715WAT     H2 8388   0.973   0.429   3.123
 2716WAT      O 8389   7.730   2.219   9.015
 2716WAT     H1 8390   7.693   2.308   8.989
 2716WAT     H2 8391   7.813   2.232   9.069
 2717WAT      O 8392   1.711   5.576   1.495
 2717WAT     H1 8393   1.698   5.477   1.500
 2717WAT     H2 8394   1.692   5.616   1.585
 2718WAT      O 8395   3.938   3.818   5.220
 2718WAT     H1 8396   3.892   3.734   5.248
 2718WAT     H2 8397   3.871   3.886   5.193
 2719WAT      O 8398   3.079   4.178   1.685
 2719WAT     H1 8399   3.108   4.156   1.591
 2719WAT     H2 8400   3.101   4.101   1.745
 2720WAT      O 8401   1.461   7.527   7.427
 2720WAT     H1 8402   1.550   7.480   7.429
 2720WAT     H2 8403   1.476   7.624   7.411
 2721WAT      O 8404   1.350   8.834   8.521
 2721WAT     H1 8405   1.423   8.782   8.476
 2721WAT     H2 8406   1.336   8.797   8.613
 2722WAT      O 8407   3.832   8.438   2.607
 2722WAT     H1 8408   3.778   8.521   2.622
 2722WAT     H2 8409   3.889   8.420   2.687
 2723WAT      O 8410   2.798   7.719   6.523
 2723WAT     H1 8411   2.779   7.785   6.451
 2723WAT     H2 8412   2.816   7.766   6.609
 2724WAT      O 8413   2.513   0.890   4.549
 2724WAT     H1 8414   2.439   0.922   4.609
 2724WAT     H2 8415   2.569   0.823   4.598
 2725WAT      O 8416   8.178   4.251   5.827
 2725WAT     H1 8417   8.218   4.204   5.906
 2725WAT     H2 8418   8.129   4.185   5.770
 2726WAT      O 8419   8.711   3.141   0.537
 2726WAT     H1 8420   8.798   3.103   0.568
 2726WAT     H2 8421   8.669   3.195   0.610
 2727WAT      O 8422   8.525   3.343   5.355
 2727WAT     H1 8423   8.608   3.335   5.411
 2727WAT     H2 8424   8.458   3.401   5.401
 2728WAT      O 8425   7.453   3.557   8.556
 2728WAT     H1 8426   7.478   3.642   8.602
 2728WAT     H2 8427   7.532   3.497   8.552
 2729WAT      O 8428   6.007   4.201   9.430
 2729WAT     H1 8429   5.917   4.245   9.426
 2729WAT     H2 8430   6.023   4.164   9.521
 2730WAT      O 8431   5.218   1.247   3.421
 2730WAT     H1 8432   5.183   1.270   3.512
 2730WAT     H2 8433   5.316   1.227   3.426
 2731WAT      O 8434   6.638   7.967   8.097
 2731WAT     H1 8435   6.577   8.016   8.034
 2731WAT     H2 8436   6.713   7.925   8.044
 2732WAT      O 8437   0.652   7.120   7.032
 2732WAT     H1 8438   0.587   7.175   6.980
 2732WAT     H2 8439   0.608   7.088   7.116
 2733WAT      O 8440   5.825   1.760   6.592
 2733WAT     H1 8441   5.850   1.696   6.519
 2733WAT     H2 8442   5.871   1.848   6.575
 2734WAT      O 8443   0.995   6.521   3.480
 2734WAT     H1 8444   1.050   6.451   3.434
 2734WAT     H2 8445   0.995   6.504   3.578
 2735WAT      O 8446   8.012   7.987   1.919
 2735WAT     H1 8447   7.953   7.938   1.982
 2735WAT     H2 8448   7.990   7.960   1.825
 2736WAT      O 8449   0.545   7.838   0.333
 2736WAT     H1 8450   0.636   7.815   0.368
 2736WAT     H2 8451   0.479   7.838   0.409
 2737WAT      O 8452   4.467   8.444   9.601
 2737WAT     H1 8453   4.456   8.542   9.612
 2737WAT     H2 8454   4.383   8.404   9.565
 2738WAT      O 8455   4.610   3.434   3.964
 2738WAT     H1 8456   4.653   3.500   4.025
 2738WAT     H2 8457   4.673   3.358   3.947
 2739WAT      O 8458   8.627   4.716   0.665
 2739WAT     H1 8459   8.600   4.629   0.705
 2739WAT     H2 8460   8.569   4.789   0.700
 2740WAT      O 8461   0.471   8.712   7.061
 2740WAT     H1 8462   0.375   8.736   7.049
 2740WAT     H2 8463   0.480   8.613   7.071
 2741WAT      O 8464   3.667   7.235   8.384
 2741WAT     H1 8465   3.672   7.335   8.378
 2741WAT     H2 8466   3.572   7.206   8.383
 2742WAT      O 8467   6.554   1.173   5.661
 2742WAT     H1 8468   6.491   1.250   5.655
 2742WAT     H2 8469   6.648   1.207   5.671
 2743WAT      O 8470   7.560   3.062   2.840
 2743WAT     H1 8471   7.526   3.008   2.918
 2743WAT     H2 8472   7.483   3.098   2.788
 2744WAT      O 8473   6.294   8.399   5.880
 2744WAT     H1 8474   6.223   8.440   5.937
 2744WAT     H2 8475   6.344   8.331   5.934
 2745WAT      O 8476   1.539   7.238   0.630
 2745WAT     H1 8477   1.486   7.181   0.693
 2745WAT     H2 8478   1.627   7.194   0.610
 2746WAT      O 8479   0.335   1.075   1.503
 2746WAT     H1 8480   0.355   1.172   1.491
 2746WAT     H2 8481   0.389   1.039   1.580
 2747WAT      O 8482   4.924   9.137   6.543
 2747WAT     H1 8483   4.956   9.112   6.635
 2747WAT     H2 8484   4.973   9.218   6.511
 2748WAT      O 8485   4.120   0.414   1.327
 2748WAT     H1 8486   4.091   0.509   1.325
 2748WAT     H2 8487   4.135   0.385   1.422
 2749WAT      O 8488   5.590   3.504   3.754
 2749WAT     H1 8489   5.533   3.550   3.822
 2749WAT     H2 8490   5.532   3.471   3.679
 2750WAT      O 8491   3.326   7.710   0.170
 2750WAT     H1 8492   3.393   7.672   0.233
 2750WAT     H2 8493   3.345   7.807   0.155
 2751WAT      O 8494   7.918   5.340   1.605
 2751WAT     H1 8495   8.001   5.297   1.640
 2751WAT     H2 8496   7.857   5.362   1.681
 2752WAT      O 8497   1.227   1.330   5.695
 2752WAT     H1 8498   1.278   1.416   5.698
 2752WAT     H2 8499   1.137   1.346   5.654
 2753WAT      O 8500   1.693   9.468   3.440
 2753WAT     H1 8501   1.668   9.562   3.465
 2753WAT     H2 8502   1.788   9.466   3.411
 2754WAT      O 8503   6.352   1.014   4.492
 2754WAT     H1 8504   6.260   1.008   4.455
 2754WAT     H2 8505   6.372   0.932   4.547
 2755WAT      O 8506   4.918   4.843   3.461
 2755WAT     H1 8507   4.857   4.817   3.386
 2755WAT     H2 8508   4.865   4.851   3.546
 2756WAT      O 8509   6.220   6.573   4.460
 2756WAT     H1 8510   6.280   6.502   4.423
 2756WAT     H2 8511   6.167   6.614   4.386
 2757WAT      O 8512   3.130   8.259   3.969
 2757WAT     H1 8513   3.161   8.343   4.012
 2757WAT     H2 8514   3.209   8.201   3.948
 2758WAT      O 8515   0.079   1.651   9.160
 2758WAT     H1 8516  -0.001   1.598   9.186
 2758WAT     H2 8517   0.050   1.741   9.126
 2759WAT      O 8518   2.067   4.800   3.607
 2759WAT     H1 8519   2.103   4.707   3.616
 2759WAT     H2 8520   1.983   4.809   3.659
 2760WAT      O 8521   0.147   4.864   3.980
 2760WAT     H1 8522   0.120   4.771   3.952
 2760WAT     H2 8523   0.069   4.910   4.022
 2761WAT      O 8524   5.829   6.500   1.801
 2761WAT     H1 8525   5.887   6.576   1.773
 2761WAT     H2 8526   5.876   6.447   1.872
 2762WAT      O 8527   2.343   1.548   9.623
 2762WAT     H1 8528   2.309   1.532   9.715
 2762WAT     H2 8529   2.272   1.593   9.569
 2763WAT      O 8530   7.586   8.051   3.185
 2763WAT     H1 8531   7.600   8.067   3.087
 2763WAT     H2 8532   7.535   7.966   3.198
 2764WAT      O 8533   7.505   4.499   9.092
 2764WAT     H1 8534   7.511   4.417   9.149
 2764WAT     H2 8535   7.597   4.529   9.068
 2765WAT      O 8536   8.986   2.929   5.408
 2765WAT     H1 8537   9.022   2.997   5.344
 2765WAT     H2 8538   9.039   2.845   5.400
 2766WAT      O 8539   7.746   8.540   8.066
 2766WAT     H1 8540   7.766   8.628   8.110
 2766WAT     H2 8541   7.799   8.468   8.110
 2767WAT      O 8542   5.521   3.200   1.580
 2767WAT     H1 8543   5.556   3.122   1.528
 2767WAT     H2 8544   5.431   3.226   1.544
 2768WAT      O 8545   3.079   2.708   9.624
 2768WAT     H1 8546   3.105   2.643   9.696
 2768WAT     H2 8547   3.139   2.788   9.629
 2769WAT      O 8548   9.797   0.866   1.171
 2769WAT     H1 8549   9.851   0.950   1.177
 2769WAT     H2 8550   9.853   0.788   1.198
 2770WAT      O 8551   5.386   7.374   1.799
 2770WAT     H1 8552   5.330   7.374   1.883
 2770WAT     H2 8553   5.474   7.331   1.819
 2771WAT      O 8554   6.840   5.745   6.802
 2771WAT     H1 8555   6.752   5.742   6.755
 2771WAT     H2 8556   6.895   5.667   6.774
 2772WAT      O 8557   9.746   8.131   9.108
 2772WAT     H1 8558   9.761   8.035   9.130
 2772WAT     H2 8559   9.656   8.143   9.066
 2773WAT      O 8560   4.337   8.828   1.189
 2773WAT     H1 8561   4.339   8.728   1.197
 2773WAT     H2 8562   4.292   8.855   1.104
 2774WAT      O 8563   5.001   9.682   6.373
 2774WAT     H1 8564   5.007   9.665   6.275
 2774WAT     H2 8565   4.921   9.738   6.392
 2775WAT      O 8566   6.358   1.068   9.723
 2775WAT     H1 8567   6.452   1.073   9.690
 2775WAT     H2 8568   6.319   1.160   9.729
 2776WAT      O 8569   9.354   6.723   8.645
 2776WAT     H1 8570   9.291   6.715   8.568
 2776WAT     H2 8571   9.400   6.812   8.642
 2777WAT      O 8572   8.060   1.171   7.455
 2777WAT     H1 8573   8.001   1.135   7.527
 2777WAT     H2 8574   8.047   1.118   7.371
 2778WAT      O 8575   9.673   8.936   1.289
 2778WAT     H1 8576   9.656   9.010   1.354
 2778WAT     H2 8577   9.743   8.965   1.223
 2779WAT      O 8578   4.313   6.619   8.895
 2779WAT     H1 8579   4.230   6.623   8.951
 2779WAT     H2 8580   4.393   6.622   8.954
 2780WAT      O 8581   6.743   0.521   7.339
 2780WAT     H1 8582   6.649   0.507   7.371
 2780WAT     H2 8583   6.776   0.438   7.294
 2781WAT      O 8584   5.305   8.254   1.113
 2781WAT     H1 8585   5.361   8.291   1.039
 2781WAT     H2 8586   5.290   8.157   1.098
 2782WAT      O 8587   4.053   3.188   2.940
 2782WAT     H1 8588   4.135   3.233   2.975
 2782WAT     H2 8589   3.975   3.251   2.948
 2783WAT      O 8590   3.906   1.777   6.525
 2783WAT     H1 8591   3.829   1.724   6.560
 2783WAT     H2 8592   3.975   1.715   6.487
 2784WAT      O 8593   4.766   3.364   9.125
 2784WAT     H1 8594   4.823   3.301   9.178
 2784WAT     H2 8595   4.823   3.411   9.058
 2785WAT      O 8596   9.034   2.458   2.662
 2785WAT     H1 8597   8.939   2.477   2.639
 2785WAT     H2 8598   9.038   2.396   2.740
 2786WAT      O 8599   9.581   9.714   2.588
 2786WAT     H1 8600   9.652   9.771   2.630
 2786WAT     H2 8601   9.568   9.631   2.641
 2787WAT      O 8602   9.675   9.254   7.381
 2787WAT     H1 8603   9.690   9.335   7.437
 2787WAT     H2 8604   9.641   9.179   7.438
 2788WAT      O 8605   0.463   7.975   8.131
 2788WAT     H1 8606   0.407   8.028   8.194
 2788WAT     H2 8607   0.513   7.905   8.181
 2789WAT      O 8608   5.772   9.168   4.916
 2789WAT     H1 8609   5.678   9.155   4.947
 2789WAT     H2 8610   5.805   9.257   4.947
 2790WAT      O 8611   2.832   9.387   5.463
 2790WAT     H1 8612   2.927   9.405   5.489
 2790WAT     H2 8613   2.813   9.289   5.474
 2791WAT      O 8614   2.392   3.770   1.222
 2791WAT     H1 8615   2.396   3.748   1.320
 2791WAT     H2 8616   2.297   3.766   1.191
 2792WAT      O 8617   0.595   5.724   8.356
 2792WAT     H1 8618   0.519   5.687   8.303
 2792WAT     H2 8619   0.562   5.794   8.418
 2793WAT      O 8620   9.090   1.834   2.257
 2793WAT     H1 8621   8.997   1.858   2.282
 2793WAT     H2 8622   9.088   1.765   2.184
 2794WAT      O 8623   9.686   8.655   1.329
 2794WAT     H1 8624   9.648   8.746   1.347
 2794WAT     H2 8625   9.626   8.585   1.368
 2795WAT      O 8626   5.791   7.600   0.488
 2795WAT     H1 8627   5.789   7.517   0.543
 2795WAT     H2 8628   5.722   7.665   0.521
 2796WAT      O 8629   9.308   5.737   8.230
 2796WAT     H1 8630   9.253   5.800   8.175
 2796WAT     H2 8631   9.332   5.780   8.317
 2797WAT      O 8632   9.235   2.128   7.186
 2797WAT     H1 8633   9.195   2.070   7.257
 2797WAT     H2 8634   9.285   2.203   7.230
 2798WAT      O 8635   4.655   8.001   0.573
 2798WAT     H1 8636   4.561   7.966   0.560
 2798WAT     H2 8637   4.669   8.079   0.512
 2799WAT      O 8638   6.260   3.672   6.971
 2799WAT     H1 8639   6.345   3.631   7.004
 2799WAT     H2 8640   6.278   3.721   6.885
 2800WAT      O 8641   0.372   5.217   8.150
 2800WAT     H1 8642   0.346   5.273   8.072
 2800WAT     H2 8643   0.450   5.159   8.126
 2801WAT      O 8644   0.427   8.940   3.060
 2801WAT     H1 8645   0.525   8.942   3.038
 2801WAT     H2 8646   0.385   8.860   3.016
 2802WAT      O 8647   8.509   8.710   3.890
 2802WAT     H1 8648   8.543   8.660   3.810
 2802WAT     H2 8649   8.414   8.683   3.907
 2803WAT      O 8650   1.330   8.662   2.765
 2803WAT     H1 8651   1.325   8.565   2.788
 2803WAT     H2 8652   1.281   8.715   2.834
 2804WAT      O 8653   3.762   5.533   0.502
 2804WAT     H1 8654   3.732   5.439   0.487
 2804WAT     H2 8655   3.862   5.536   0.507
 2805WAT      O 8656   0.088   9.323   4.445
 2805WAT     H1 8657   0.016   9.327   4.514
 2805WAT     H2 8658   0.159   9.390   4.468
 2806WAT      O 8659   0.006   1.483   3.697
 2806WAT     H1 8660  -0.038   1.394   3.688
 2806WAT     H2 8661   0.105   1.472   3.693
 2807WAT      O 8662   5.886   6.189   0.214
 2807WAT     H1 8663   5.887   6.157   0.120
 2807WAT     H2 8664   5.920   6.117   0.275
 2808WAT      O 8665   3.370   1.603   3.640
 2808WAT     H1 8666   3.311   1.637   3.713
 2808WAT     H2 8667   3.431   1.676   3.609
 2809WAT      O 8668   5.835   0.144   4.337
 2809WAT     H1 8669   5.866   0.066   4.282
 2809WAT     H2 8670   5.764   0.114   4.401
 2810WAT      O 8671   6.120   7.109   1.042
 2810WAT     H1 8672   6.075   7.057   0.969
 2810WAT     H2 8673   6.149   7.198   1.007
 2811WAT      O 8674   4.610   7.059   0.110
 2811WAT     H1 8675   4.674   7.118   0.160
 2811WAT     H2 8676   4.534   7.034   0.170
 2812WAT      O 8677   1.978   9.602   9.294
 2812WAT     H1 8678   2.052   9.668   9.305
 2812WAT     H2 8679   1.964   9.583   9.196
 2813WAT      O 8680   7.240   9.642   3.194
 2813WAT     H1 8681   7.293   9.689   3.124
 2813WAT     H2 8682   7.168   9.703   3.228
 2814WAT      O 8683   5.716   7.130   5.120
 2814WAT     H1 8684   5.759   7.091   5.201
 2814WAT     H2 8685   5.700   7.057   5.053
 2815WAT      O 8686   7.030   8.521   3.280
 2815WAT     H1 8687   7.061   8.606   3.237
 2815WAT     H2 8688   7.066   8.443   3.229
 2816WAT      O 8689   2.317   0.404   4.041
 2816WAT     H1 8690   2.390   0.423   3.976
 2816WAT     H2 8691   2.294   0.488   4.090
 2817WAT      O 8692   9.193   1.985   3.973
 2817WAT     H1 8693   9.216   1.930   3.893
 2817WAT     H2 8694   9.170   2.078   3.943
 2818WAT      O 8695   3.303   0.989   6.474
 2818WAT     H1 8696   3.208   1.004   6.448
 2818WAT     H2 8697   3.341   0.914   6.420
 2819WAT      O 8698   1.332   0.213   9.705
 2819WAT     H1 8699   1.283   0.223   9.618
 2819WAT     H2 8700   1.430   0.203   9.686
 2820WAT      O 8701   1.069   8.820   7.455
 2820WAT     H1 8702   1.021   8.801   7.541
 2820WAT     H2 8703   1.132   8.745   7.435
 2821WAT      O 8704   8.774   2.762   2.017
 2821WAT     H1 8705   8.865   2.746   1.977
 2821WAT     H2 8706   8.719   2.679   2.008
 2822WAT      O 8707   1.856   4.740   0.565
 2822WAT     H1 8708   1.809   4.708   0.648
 2822WAT     H2 8709   1.917   4.669   0.532
 2823WAT      O 8710   5.833   8.019   8.670
 2823WAT     H1 8711   5.783   8.105   8.677
 2823WAT     H2 8712   5.929   8.034   8.693
 2824WAT      O 8713   5.652   6.580   5.860
 2824WAT     H1 8714   5.701   6.624   5.786
 2824WAT     H2 8715   5.569   6.536   5.824
 2825WAT      O 8716   4.112   4.533   1.451
 2825WAT     H1 8717   4.082   4.438   1.445
 2825WAT     H2 8718   4.210   4.535   1.474
 2826WAT      O 8719   5.265   7.707   5.607
 2826WAT     H1 8720   5.312   7.645   5.544
 2826WAT     H2 8721   5.193   7.657   5.655
 2827WAT      O 8722   2.664   7.794   3.832
 2827WAT     H1 8723   2.735   7.848   3.786
 2827WAT     H2 8724   2.681   7.697   3.818
 2828WAT      O 8725   7.860   3.381   3.526
 2828WAT     H1 8726   7.932   3.421   3.470
 2828WAT     H2 8727   7.901   3.334   3.605
 2829WAT      O 8728   1.844   4.720   8.340
 2829WAT     H1 8729   1.772   4.715   8.409
 2829WAT     H2 8730   1.812   4.678   8.255
 2830WAT      O 8731   9.647   9.124   2.994
 2830WAT     H1 8732   9.562   9.100   2.948
 2830WAT     H2 8733   9.718   9.059   2.968
 2831WAT      O 8734   8.984   4.716   4.098
 2831WAT     H1 8735   9.025   4.790   4.150
 2831WAT     H2 8736   8.897   4.746   4.059
 2832WAT      O 8737   7.337   9.824   3.432
 2832WAT     H1 8738   7.435   9.806   3.446
 2832WAT     H2 8739   7.314   9.913   3.470
 2833WAT      O 8740   0.022   0.416   2.026
 2833WAT     H1 8741  -0.008   0.344   2.088
 2833WAT     H2 8742  -0.054   0.442   1.966
 2834WAT      O 8743   8.763   2.799   5.143
 2834WAT     H1 8744   8.676   2.832   5.179
 2834WAT     H2 8745   8.820   2.876   5.116
 2835WAT      O 8746   3.707   6.771   4.431
 2835WAT     H1 8747   3.773   6.773   4.506
 2835WAT     H2 8748   3.753   6.740   4.347
 2836WAT      O 8749   7.566   1.227   7.936
 2836WAT     H1 8750   7.495   1.169   7.896
 2836WAT     H2 8751   7.642   1.236   7.872
 2837WAT      O 8752   0.723   4.192   1.650
 2837WAT     H1 8753   0.657   4.133   1.602
 2837WAT     H2 8754   0.804   4.205   1.593
 2838WAT      O 8755   1.129   5.818   0.701
 2838WAT     H1 8756   1.212   5.769   0.673
 2838WAT     H2 8757   1.103   5.788   0.793
 2839WAT      O 8758   4.103   4.172   5.054
 2839WAT     H1 8759   4.166   4.117   4.999
 2839WAT     H2 8760   4.154   4.242   5.103
 2840WAT      O 8761   4.328   4.636   4.101
 2840WAT     H1 8762   4.401   4.567   4.094
 2840WAT     H2 8763   4.307   4.653   4.197
 2841WAT      O 8764   1.531   3.608   5.505
 2841WAT     H1 8765   1.456   3.570   5.452
 2841WAT     H2 8766   1.531   3.568   5.597
 2842WAT      O 8767   0.747   8.608   2.510
 2842WAT     H1 8768   0.753   8.590   2.412
 2842WAT     H2 8769   0.836   8.640   2.543
 2843WAT      O 8770   3.659   9.624   5.293
 2843WAT     H1 8771   3.714   9.552   5.251
 2843WAT     H2 8772   3.591   9.656   5.228
 2844WAT      O 8773   6.070   0.977   4.642
 2844WAT     H1 8774   6.111   1.068   4.628
 2844WAT     H2 8775   6.140   0.907   4.630
 2845WAT      O 8776   3.531   0.906   0.316
 2845WAT     H1 8777   3.446   0.917   0.368
 2845WAT     H2 8778   3.600   0.970   0.352
 2846WAT      O 8779   8.800   1.919   8.739
 2846WAT     H1 8780   8.794   1.848   8.669
 2846WAT     H2 8781   8.737   1.993   8.717
 2847WAT      O 8782   5.512   0.003   6.617
 2847WAT     H1 8783   5.429   0.014   6.672
 2847WAT     H2 8784   5.574   0.080   6.633
 2848WAT      O 8785   9.827   4.449   9.403
 2848WAT     H1 8786   9.739   4.407   9.425
 2848WAT     H2 8787   9.838   4.451   9.304
 2849WAT      O 8788   2.324   6.866   5.393
 2849WAT     H1 8789   2.299   6.770   5.384
 2849WAT     H2 8790   2.242   6.923   5.391
 2850WAT      O 8791   3.480   7.516   8.758
 2850WAT     H1 8792   3.542   7.439   8.749
 2850WAT     H2 8793   3.504   7.587   8.692
 2851WAT      O 8794   8.408   9.316   3.701
 2851WAT     H1 8795   8.355   9.304   3.785
 2851WAT     H2 8796   8.393   9.407   3.664
 2852WAT      O 8797   1.438   9.046   1.148
 2852WAT     H1 8798   1.474   8.954   1.162
 2852WAT     H2 8799   1.355   9.058   1.202
 2853WAT      O 8800   7.121   7.026   8.086
 2853WAT     H1 8801   7.104   7.115   8.129
 2853WAT     H2 8802   7.057   7.014   8.010
 2854WAT      O 8803   8.905   2.454   3.808
 2854WAT     H1 8804   8.937   2.475   3.715
 2854WAT     H2 8805   8.915   2.356   3.825
 2855WAT      O 8806   0.815   2.814   9.400
 2855WAT     H1 8807   0.893   2.818   9.463
 2855WAT     H2 8808   0.848   2.806   9.306
 2856WAT      O 8809   2.677   0.900   6.321
 2856WAT     H1 8810   2.750   0.921   6.387
 2856WAT     H2 8811   2.679   0.967   6.247
 2857WAT      O 8812   0.825   6.914   1.524
 2857WAT     H1 8813   0.835   6.910   1.623
 2857WAT     H2 8814   0.833   6.822   1.486
 2858WAT      O 8815   1.791   4.389   7.260
 2858WAT     H1 8816   1.751   4.404   7.170
 2858WAT     H2 8817   1.880   4.344   7.250
 2859WAT      O 8818   2.614   9.664   6.629
 2859WAT     H1 8819   2.605   9.630   6.723
 2859WAT     H2 8820   2.595   9.590   6.565
 2860WAT      O 8821   0.031   3.354   0.114
 2860WAT     H1 8822  -0.050   3.405   0.142
 2860WAT     H2 8823   0.003   3.263   0.081
 2861WAT      O 8824   7.824   2.160   7.749
 2861WAT     H1 8825   7.900   2.104   7.714
 2861WAT     H2 8826   7.796   2.125   7.838
 2862WAT      O 8827   9.051   7.691   4.538
 2862WAT     H1 8828   9.077   7.641   4.621
 2862WAT     H2 8829   9.126   7.752   4.511
 2863WAT      O 8830   2.500   4.509   0.090
 2863WAT     H1 8831   2.552   4.578   0.141
 2863WAT     H2 8832   2.564   4.444   0.049
 2864WAT      O 8833   5.563   6.488   9.377
 2864WAT     H1 8834   5.519   6.547   9.444
 2864WAT     H2 8835   5.494   6.453   9.313
 2865WAT      O 8836   7.706   9.531   6.249
 2865WAT     H1 8837   7.725   9.466   6.323
 2865WAT     H2 8838   7.631   9.591   6.276
 2866WAT      O 8839   6.523   7.948   6.624
 2866WAT     H1 8840   6.453   7.888   6.662
 2866WAT     H2 8841   6.611   7.928   6.667
 2867WAT      O 8842   8.523   5.459   1.497
 2867WAT     H1 8843   8.610   5.461   1.547
 2867WAT     H2 8844   8.526   5.522   1.420
 2868WAT      O 8845   1.559   7.951   1.324
 2868WAT     H1 8846   1.618   7.873   1.344
 2868WAT     H2 8847   1.467   7.919   1.303
 2869WAT      O 8848   2.307   6.233   7.336
 2869WAT     H1 8849   2.212   6.241   7.367
 2869WAT     H2 8850   2.344   6.324   7.319
 2870WAT      O 8851   2.092   0.400   4.770
 2870WAT     H1 8852   2.075   0.329   4.838
 2870WAT     H2 8853   2.035   0.480   4.790
 2871WAT      O 8854   7.526   8.868   4.333
 2871WAT     H1 8855   7.625   8.851   4.331
 2871WAT     H2 8856   7.479   8.794   4.284
 2872WAT      O 8857   4.914   8.063   2.573
 2872WAT     H1 8858   4.865   7.976   2.586
 2872WAT     H2 8859   4.986   8.050   2.505
 2873WAT      O 8860   2.636   0.773   5.247
 2873WAT     H1 8861   2.727   0.770   5.288
 2873WAT     H2 8862   2.606   0.680   5.226
 2874WAT      O 8863   9.528   9.711   1.853
 2874WAT     H1 8864   9.471   9.645   1.804
 2874WAT     H2 8865   9.484   9.737   1.939
 2875WAT      O 8866   5.745   9.008   3.983
 2875WAT     H1 8867   5.662   9.016   3.928
 2875WAT     H2 8868   5.736   9.064   4.066
 2876WAT      O 8869   0.447   6.690   0.130
 2876WAT     H1 8870   0.355   6.674   0.163
 2876WAT     H2 8871   0.466   6.632   0.051
 2877WAT      O 8872   3.928   9.585   7.176
 2877WAT     H1 8873   4.018   9.601   7.215
 2877WAT     H2 8874   3.898   9.666   7.125
 2878WAT      O 8875   1.972   8.017   4.823
 2878WAT     H1 8876   1.922   7.988   4.741
 2878WAT     H2 8877   1.999   8.113   4.813
 2879WAT      O 8878   9.251   5.207   0.349
 2879WAT     H1 8879   9.245   5.305   0.365
 2879WAT     H2 8880   9.288   5.161   0.429
 2880WAT      O 8881   5.921   2.113   7.231
 2880WAT     H1 8882   6.000   2.167   7.257
 2880WAT     H2 8883   5.897   2.051   7.306
 2881WAT      O 8884   4.806   2.207   3.818
 2881WAT     H1 8885   4.776   2.155   3.737
 2881WAT     H2 8886   4.847   2.293   3.788
 2882WAT      O 8887   5.491   8.530   3.569
 2882WAT     H1 8888   5.464   8.532   3.473
 2882WAT     H2 8889   5.563   8.462   3.582
 2883WAT      O 8890   4.915   1.270   2.126
 2883WAT     H1 8891   4.989   1.244   2.188
 2883WAT     H2 8892   4.905   1.370   2.125
 2884WAT      O 8893   5.991   6.384   9.281
 2884WAT     H1 8894   6.012   6.445   9.358
 2884WAT     H2 8895   5.895   6.396   9.255
 2885WAT      O 8896   7.702   1.586   2.485
 2885WAT     H1 8897   7.801   1.571   2.485
 2885WAT     H2 8898   7.683   1.684   2.479
 2886WAT      O 8899   5.345   3.314   5.532
 2886WAT     H1 8900   5.423   3.377   5.538
 2886WAT     H2 8901   5.273   3.344   5.595
 2887WAT      O 8902   1.940   2.805   6.142
 2887WAT     H1 8903   1.861   2.753   6.110
 2887WAT     H2 8904   1.911   2.874   6.207
 2888WAT      O 8905   3.926   6.806   6.247
 2888WAT     H1 8906   3.982   6.889   6.236
 2888WAT     H2 8907   3.838   6.819   6.201
 2889WAT      O 8908   9.779   3.854   3.329
 2889WAT     H1 8909   9.807   3.909   3.407
 2889WAT     H2 8910   9.747   3.765   3.360
 2890WAT      O 8911   4.255   8.209   4.066
 2890WAT     H1 8912   4.321   8.271   4.108
 2890WAT     H2 8913   4.244   8.127   4.123
 2891WAT      O 8914   2.960   4.278   0.883
 2891WAT     H1 8915   2.868   4.249   0.907
 2891WAT     H2 8916   2.956   4.349   0.812
 2892WAT      O 8917   1.397   8.295   7.316
 2892WAT     H1 8918   1.352   8.265   7.400
 2892WAT     H2 8919   1.363   8.241   7.239
 2893WAT      O 8920   2.482   3.512   1.152
 2893WAT     H1 8921   2.581   3.510   1.166
 2893WAT     H2 8922   2.446   3.603   1.172
 2894WAT      O 8923   4.101   2.660   2.846
 2894WAT     H1 8924   4.031   2.688   2.780
 2894WAT     H2 8925   4.111   2.731   2.917
 2895WAT      O 8926   4.219   2.404   4.204
 2895WAT     H1 8927   4.306   2.431   4.248
 2895WAT     H2 8928   4.182   2.482   4.154
 2896WAT      O 8929   3.448   5.318   1.005
 2896WAT     H1 8930   3.375   5.322   0.935
 2896WAT     H2 8931   3.478   5.410   1.027
 2897WAT      O 8932   2.809   5.537   7.728
 2897WAT     H1 8933   2.896   5.557   7.773
 2897WAT     H2 8934   2.824   5.469   7.657
 2898WAT      O 8935   0.662   6.269   7.106
 2898WAT     H1 8936   0.665   6.348   7.044
 2898WAT     H2 8937   0.683   6.186   7.055
 2899WAT      O 8938   4.806   9.153   5.171
 2899WAT     H1 8939   4.835   9.149   5.267
 2899WAT     H2 8940   4.881   9.121   5.112
 2900WAT      O 8941   7.702   6.225   5.531
 2900WAT     H1 8942   7.708   6.128   5.554
 2900WAT     H2 8943   7.719   6.280   5.614
 2901WAT      O 8944   8.805   2.818   8.914
 2901WAT     H1 8945   8.858   2.813   8.829
 2901WAT     H2 8946   8.728   2.881   8.902
 2902WAT      O 8947   9.472   1.522   8.991
 2902WAT     H1 8948   9.471   1.454   9.064
 2902WAT     H2 8949   9.397   1.505   8.927
 2903WAT      O 8950   6.317   7.329   9.040
 2903WAT     H1 8951   6.252   7.365   8.973
 2903WAT     H2 8952   6.324   7.230   9.030
 2904WAT      O 8953   7.296   5.884   3.614
 2904WAT     H1 8954   7.289   5.982   3.632
 2904WAT     H2 8955   7.207   5.841   3.630
 2905WAT      O 8956   7.574   4.869   0.601
 2905WAT     H1 8957   7.618   4.900   0.517
 2905WAT     H2 8958   7.565   4.769   0.598
 2906WAT      O 8959   6.498   1.046   5.963
 2906WAT     H1 8960   6.532   0.957   5.996
 2906WAT     H2 8961   6.410   1.065   6.005
 2907WAT      O 8962   7.412   8.694   6.172
 2907WAT     H1 8963   7.401   8.595   6.184
 2907WAT     H2 8964   7.324   8.735   6.151
 2908WAT      O 8965   1.473   6.394   5.148
 2908WAT     H1 8966   1.444   6.349   5.064
 2908WAT     H2 8967   1.536   6.468   5.127
 2909WAT      O 8968   0.919   5.803   6.915
 2909WAT     H1 8969   0.948   5.872   6.849
 2909WAT     H2 8970   0.990   5.732   6.922
 2910WAT      O 8971   5.971   0.856   0.433
 2910WAT     H1 8972   5.968   0.817   0.341
 2910WAT     H2 8973   5.880   0.850   0.474
 2911WAT      O 8974   2.953   0.952   2.652
 2911WAT     H1 8975   2.902   0.948   2.567
 2911WAT     H2 8976   2.899   1.000   2.721
 2912WAT      O 8977   3.573   5.021   8.042
 2912WAT     H1 8978   3.600   4.931   8.008
 2912WAT     H2 8979   3.575   5.021   8.142
 2913WAT      O 8980   3.597   7.410   5.525
 2913WAT     H1 8981   3.557   7.502   5.526
 2913WAT     H2 8982   3.651   7.398   5.441
 2914WAT      O 8983   8.107   8.322   8.429
 2914WAT     H1 8984   8.087   8.297   8.524
 2914WAT     H2 8985   8.082   8.417   8.414
 2915WAT      O 8986   2.465   7.873   6.029
 2915WAT     H1 8987   2.373   7.835   6.027
 2915WAT     H2 8988   2.493   7.897   5.936
 2916WAT      O 8989   4.326   0.227   0.622
 2916WAT     H1 8990   4.234   0.222   0.661
 2916WAT     H2 8991   4.325   0.287   0.542
 2917WAT      O 8992   5.783   1.320   9.841
 2917WAT     H1 8993   5.861   1.382   9.828
 2917WAT     H2 8994   5.758   1.319   9.938
 2918WAT      O 8995   4.573   0.604   2.595
 2918WAT     H1 8996   4.650   0.569   2.540
 2918WAT     H2 8997   4.487   0.578   2.550
 2919WAT      O 8998   8.759   7.110   2.201
 2919WAT     H1 8999   8.791   7.116   2.295
 2919WAT     H2 9000   8.659   7.106   2.200
 2920WAT      O 9001   2.214   5.371   4.974
 2920WAT     H1 9002   2.185   5.302   4.908
 2920WAT     H2 9003   2.313   5.373   4.979
 2921WAT      O 9004   6.650   3.774   8.417
 2921WAT     H1 9005   6.688   3.688   8.382
 2921WAT     H2 9006   6.559   3.788   8.378
 2922WAT      O 9007   0.373   6.926   5.616
 2922WAT     H1 9008   0.431   6.886   5.546
 2922WAT     H2 9009   0.379   7.026   5.613
 2923WAT      O 9010   3.998   9.275   6.919
 2923WAT     H1 9011   4.065   9.294   6.991
 2923WAT     H2 9012   4.041   9.220   6.847
 2924WAT      O 9013   3.536   0.239   9.006
 2924WAT     H1 9014   3.603   0.165   8.999
 2924WAT     H2 9015   3.540   0.295   8.924
 2925WAT      O 9016   8.558   3.221   9.574
 2925WAT     H1 9017   8.539   3.141   9.630
 2925WAT     H2 9018   8.546   3.198   9.477
 2926WAT      O 9019   4.247   9.315   5.231
 2926WAT     H1 9020   4.199   9.234   5.199
 2926WAT     H2 9021   4.346   9.302   5.222
 2927WAT      O 9022   0.542   1.065   7.916
 2927WAT     H1 9023   0.492   1.108   7.991
 2927WAT     H2 9024   0.634   1.040   7.946
 2928WAT      O 9025   0.998   1.667   1.091
 2928WAT     H1 9026   1.024   1.763   1.082
 2928WAT     H2 9027   1.041   1.628   1.173
 2929WAT      O 9028   3.928   7.333   0.127
 2929WAT     H1 9029   3.884   7.421   0.147
 2929WAT     H2 9030   3.858   7.261   0.124
 2930WAT      O 9031   0.439   8.977   9.188
 2930WAT     H1 9032   0.489   9.006   9.270
 2930WAT     H2 9033   0.438   8.877   9.184
 2931WAT      O 9034   8.930   2.039   8.432
 2931WAT     H1 9035   8.875   1.959   8.459
 2931WAT     H2 9036   9.022   2.030   8.469
 2932WAT      O 9037   0.394   4.680   1.669
 2932WAT     H1 9038   0.454   4.642   1.739
 2932WAT     H2 9039   0.375   4.609   1.600
 2933WAT      O 9040   6.635   1.776   4.003
 2933WAT     H1 9041   6.593   1.773   3.913
 2933WAT     H2 9042   6.735   1.784   3.994
 2934WAT      O 9043   5.030   0.349   9.092
 2934WAT     H1 9044   5.083   0.276   9.134
 2934WAT     H2 9045   4.965   0.385   9.159
 2935WAT      O 9046   9.259   6.233   1.848
 2935WAT     H1 9047   9.352   6.224   1.812
 2935WAT     H2 9048   9.242   6.161   1.915
 2936WAT      O 9049   1.386   0.900   0.011
 2936WAT     H1 9050   1.449   0.943  -0.053
 2936WAT     H2 9051   1.305   0.958   0.023
 2937WAT      O 9052   0.016   8.516   0.515
 2937WAT     H1 9053  -0.049   8.463   0.569
 2937WAT     H2 9054  -0.025   8.541   0.428
 2938WAT      O 9055   6.088   5.893   9.034
 2938WAT     H1 9056   6.150   5.815   9.030
 2938WAT     H2 9057   6.093   5.935   9.125
 2939WAT      O 9058   0.116   3.746   7.509
 2939WAT     H1 9059   0.035   3.744   7.451
 2939WAT     H2 9060   0.135   3.654   7.544
 2940WAT      O 9061   6.764   0.232   8.835
 2940WAT     H1 9062   6.852   0.280   8.837
 2940WAT     H2 9063   6.759   0.172   8.915
 2941WAT      O 9064   8.778   2.646   9.485
 2941WAT     H1 9065   8.756   2.683   9.395
 2941WAT     H2 9066   8.877   2.628   9.491
 2942WAT      O 9067   5.923   8.861   3.797
 2942WAT     H1 9068   5.896   8.926   3.868
 2942WAT     H2 9069   5.843   8.829   3.748
 2943WAT      O 9070   1.917   1.444   3.343
 2943WAT     H1 9071   1.933   1.351   3.378
 2943WAT     H2 9072   1.996   1.501   3.365
 2944WAT      O 9073   3.676   7.179   9.639
 2944WAT     H1 9074   3.580   7.151   9.650
 2944WAT     H2 9075   3.705   7.231   9.718
 2945WAT      O 9076   3.811   0.645   5.187
 2945WAT     H1 9077   3.717   0.610   5.190
 2945WAT     H2 9078   3.842   0.649   5.092
 2946WAT      O 9079   8.967   0.843   8.657
 2946WAT     H1 9080   9.061   0.837   8.623
 2946WAT     H2 9081   8.908   0.780   8.606
 2947WAT      O 9082   0.173   6.188   4.705
 2947WAT     H1 9083   0.202   6.130   4.628
 2947WAT     H2 9084   0.236   6.175   4.782
 2948WAT      O 9085   1.787   4.583   3.248
 2948WAT     H1 9086   1.850   4.654   3.279
 2948WAT     H2 9087   1.717   4.568   3.318
 2949WAT      O 9088   4.450   8.722   4.983
 2949WAT     H1 9089   4.504   8.806   4.973
 2949WAT     H2 9090   4.509   8.650   5.021
 2950WAT      O 9091   4.120   7.977   0.132
 2950WAT     H1 9092   4.060   7.955   0.208
 2950WAT     H2 9093   4.094   7.923   0.052
 2951WAT      O 9094   7.309   3.323   4.336
 2951WAT     H1 9095   7.309   3.277   4.424
 2951WAT     H2 9096   7.329   3.257   4.263
 2952WAT      O 9097   1.179   8.293   8.627
 2952WAT     H1 9098   1.166   8.245   8.714
 2952WAT     H2 9099   1.272   8.281   8.595
 2953WAT      O 9100   6.970   6.507   2.490
 2953WAT     H1 9101   6.909   6.580   2.520
 2953WAT     H2 9102   7.016   6.535   2.405
 2954WAT      O 9103   8.420   9.297   8.208
 2954WAT     H1 9104   8.415   9.366   8.281
 2954WAT     H2 9105   8.375   9.213   8.238
 2955WAT      O 9106   2.431   7.346   9.755
 2955WAT     H1 9107   2.519   7.315   9.719
 2955WAT     H2 9108   2.357   7.294   9.712
 2956WAT      O 9109   8.110   6.346   7.877
 2956WAT     H1 9110   8.059   6.317   7.796
 2956WAT     H2 9111   8.120   6.269   7.940
 2957WAT      O 9112   4.531   6.769   2.818
 2957WAT     H1 9113   4.542   6.678   2.858
 2957WAT     H2 9114   4.525   6.836   2.891
 2958WAT      O 9115   8.271   6.084   1.093
 2958WAT     H1 9116   8.280   5.994   1.050
 2958WAT     H2 9117   8.226   6.074   1.182
 2959WAT      O 9118   3.553   2.973   1.190
 2959WAT     H1 9119   3.599   2.987   1.103
 2959WAT     H2 9120   3.607   3.012   1.264
 2960WAT      O 9121   6.327   8.195   6.034
 2960WAT     H1 9122   6.271   8.234   6.107
 2960WAT     H2 9123   6.318   8.095   6.033
 2961WAT      O 9124   4.100   6.197   0.496
 2961WAT     H1 9125   4.001   6.180   0.501
 2961WAT     H2 9126   4.147   6.112   0.472
 2962WAT      O 9127   5.530   0.470   7.249
 2962WAT     H1 9128   5.465   0.462   7.326
 2962WAT     H2 9129   5.506   0.403   7.179
 2963WAT      O 9130   5.309   5.904   3.428
 2963WAT     H1 9131   5.343   5.995   3.405
 2963WAT     H2 9132   5.293   5.852   3.344
 2964WAT      O 9133   6.454   0.778   0.369
 2964WAT     H1 9134   6.400   0.807   0.290
 2964WAT     H2 9135   6.422   0.826   0.451
 2965WAT      O 9136   0.631   0.313   7.909
 2965WAT     H1 9137   0.542   0.354   7.890
 2965WAT     H2 9138   0.673   0.283   7.823
 2966WAT      O 9139   7.727   4.489   8.798
 2966WAT     H1 9140   7.704   4.392   8.795
 2966WAT     H2 9141   7.664   4.540   8.740
 2967WAT      O 9142   2.228   5.085   0.485
 2967WAT     H1 9143   2.229   5.183   0.505
 2967WAT     H2 9144   2.134   5.051   0.490
 2968WAT      O 9145   4.585   4.897   9.306
 2968WAT     H1 9146   4.534   4.945   9.234
 2968WAT     H2 9147   4.610   4.961   9.378
 2969WAT      O 9148   1.315   3.857   6.083
 2969WAT     H1 9149   1.221   3.846   6.115
 2969WAT     H2 9150   1.315   3.861   5.983
 2970WAT      O 9151   6.217   9.093   5.319
 2970WAT     H1 9152   6.154   9.138   5.382
 2970WAT     H2 9153   6.292   9.051   5.370
 2971WAT      O 9154   7.235   9.693   1.261
 2971WAT     H1 9155   7.144   9.714   1.297
 2971WAT     H2 9156   7.280   9.626   1.320
 2972WAT      O 9157   6.526   5.511   6.232
 2972WAT     H1 9158   6.559   5.522   6.325
 2972WAT     H2 9159   6.464   5.586   6.209
 2973WAT      O 9160   3.810   1.358   5.135
 2973WAT     H1 9161   3.768   1.435   5.086
 2973WAT     H2 9162   3.738   1.304   5.179
 2974WAT      O 9163   0.623   8.841   1.166
 2974WAT     H1 9164   0.692   8.883   1.225
 2974WAT     H2 9165   0.589   8.757   1.210
 2975WAT      O 9166   7.210   4.221   1.560
 2975WAT     H1 9167   7.286   4.225   1.494
 2975WAT     H2 9168   7.229   4.150   1.628
 2976WAT      O 9169   6.121   7.551   8.892
 2976WAT     H1 9170   6.044   7.520   8.949
 2976WAT     H2 9171   6.101   7.531   8.796
 2977WAT      O 9172   0.391   8.539   4.070
 2977WAT     H1 9173   0.434   8.472   4.010
 2977WAT     H2 9174   0.458   8.606   4.100
 2978WAT      O 9175   2.609   4.821   5.060
 2978WAT     H1 9176   2.626   4.864   5.149
 2978WAT     H2 9177   2.683   4.756   5.040
 2979WAT      O 9178   4.010   8.851   2.519
 2979WAT     H1 9179   4.045   8.840   2.612
 2979WAT     H2 9180   3.922   8.899   2.521
 2980WAT      O 9181   3.187   1.513   4.188
 2980WAT     H1 9182   3.271   1.490   4.237
 2980WAT     H2 9183   3.112   1.456   4.223
 2981WAT      O 9184   4.142   3.881   7.418
 2981WAT     H1 9185   4.059   3.849   7.372
 2981WAT     H2 9186   4.165   3.819   7.493
 2982WAT      O 9187   5.716   9.753   2.476
 2982WAT     H1 9188   5.621   9.741   2.503
 2982WAT     H2 9189   5.720   9.780   2.380
 2983WAT      O 9190   7.101   0.270   2.869
 2983WAT     H1 9191   7.139   0.208   2.938
 2983WAT     H2 9192   7.168   0.339   2.845
 2984WAT      O 9193   5.627   3.580   6.222
 2984WAT     H1 9194   5.584   3.632   6.149
 2984WAT     H2 9195   5.703   3.633   6.260
 2985WAT      O 9196   0.991   6.357   1.304
 2985WAT     H1 9197   1.074   6.358   1.359
 2985WAT     H2 9198   0.982   6.268   1.259
 2986WAT      O 9199   5.349   6.569   8.344
 2986WAT     H1 9200   5.406   6.632   8.396
 2986WAT     H2 9201   5.404   6.526   8.272
 2987WAT      O 9202   5.456   1.035   7.737
 2987WAT     H1 9203   5.450   0.938   7.759
 2987WAT     H2 9204   5.472   1.046   7.639
 2988WAT      O 9205   8.309   0.463   1.357
 2988WAT     H1 9206   8.222   0.454   1.405
 2988WAT     H2 9207   8.355   0.374   1.353
 2989WAT      O 9208   2.302   2.031   0.391
 2989WAT     H1 9209   2.267   2.107   0.445
 2989WAT     H2 9210   2.390   2.001   0.429
 2990WAT      O 9211   9.205   9.455   5.931
 2990WAT     H1 9212   9.190   9.367   5.976
 2990WAT     H2 9213   9.206   9.528   6.000
 2991WAT      O 9214   8.683   5.117   7.461
 2991WAT     H1 9215   8.715   5.058   7.386
 2991WAT     H2 9216   8.583   5.109   7.469
 2992WAT      O 9217   2.239   3.903   7.422
 2992WAT     H1 9218   2.141   3.887   7.411
 2992WAT     H2 9219   2.289   3.820   7.397
 2993WAT      O 9220   4.285   3.463   7.571
 2993WAT     H1 9221   4.302   3.395   7.643
 2993WAT     H2 9222   4.326   3.431   7.485
 2994WAT      O 9223   6.634   5.997   2.696
 2994WAT     H1 9224   6.705   5.930   2.717
 2994WAT     H2 9225   6.577   6.012   2.777
 2995WAT      O 9226   0.409   2.933   7.635
 2995WAT     H1 9227   0.386   3.028   7.656
 2995WAT     H2 9228   0.504   2.916   7.660
 2996WAT      O 9229   2.529   4.255   4.293
 2996WAT     H1 9230   2.459   4.309   4.339
 2996WAT     H2 9231   2.618   4.276   4.334
 2997WAT      O 9232   8.111   8.580   3.693
 2997WAT     H1 9233   8.067   8.495   3.662
 2997WAT     H2 9234   8.106   8.648   3.619
 2998WAT      O 9235   3.933   3.432   1.127
 2998WAT     H1 9236   4.031   3.439   1.106
 2998WAT     H2 9237   3.905   3.513   1.179
 2999WAT      O 9238   2.310   7.661   6.720
 2999WAT     H1 9239   2.220   7.678   6.762
 2999WAT     H2 9240   2.326   7.727   6.647
 3000WAT      O 9241   0.729   0.200   9.226
 3000WAT     H1 9242   0.828   0.199   9.239
 3000WAT     H2 9243   0.691   0.283   9.268
 3001WAT      O 9244   1.879   0.855   1.357
 3001WAT     H1 9245   1.791   0.898   1.335
 3001WAT     H2 9246   1.868   0.794   1.436
 3002WAT      O 9247   6.270   1.489   5.697
 3002WAT     H1 9248   6.248   1.408   5.751
 3002WAT     H2 9249   6.367   1.486   5.671
 3003WAT      O 9250   0.620   4.697   7.381
 3003WAT     H1 9251   0.556   4.640   7.433
 3003WAT     H2 9252   0.627   4.787   7.425
 3004WAT      O 9253   8.124   4.395   9.249
 3004WAT     H1 9254   8.161   4.328   9.184
 3004WAT     H2 9255   8.069   4.347   9.318
 3005WAT      O 9256   4.988   6.905   7.569
 3005WAT     H1 9257   5.078   6.923   7.610
 3005WAT     H2 9258   4.925   6.978   7.596
 3006WAT      O 9259   6.049   9.075   0.977
 3006WAT     H1 9260   6.037   9.071   0.878
 3006WAT     H2 9261   5.968   9.039   1.022
 3007WAT      O 9262   9.827   0.665   4.782
 3007WAT     H1 9263   9.792   0.726   4.711
 3007WAT     H2 9264   9.761   0.660   4.857
 3008WAT      O 9265   1.537   3.498   5.741
 3008WAT     H1 9266   1.552   3.521   5.837
 3008WAT     H2 9267   1.461   3.434   5.733
 3009WAT      O 9268   6.829   8.794   7.573
 3009WAT     H1 9269   6.748   8.834   7.529
 3009WAT     H2 9270   6.845   8.703   7.536
 3010WAT      O 9271   0.947   9.342   8.225
 3010WAT     H1 9272   1.032   9.325   8.274
 3010WAT     H2 9273   0.900   9.420   8.266
 3011WAT      O 9274   6.357   0.959   3.615
 3011WAT     H1 9275   6.285   1.028   3.610
 3011WAT     H2 9276   6.316   0.871   3.640
 3012WAT      O 9277   1.132   0.514   9.132
 3012WAT     H1 9278   1.105   0.560   9.047
 3012WAT     H2 9279   1.051   0.491   9.185
 3013WAT      O 9280   5.669   1.511   6.052
 3013WAT     H1 9281   5.680   1.604   6.085
 3013WAT     H2 9282   5.758   1.473   6.028
 3014WAT      O 9283   1.856   0.287   2.552
 3014WAT     H1 9284   1.853   0.380   2.514
 3014WAT     H2 9285   1.931   0.236   2.509
 3015WAT      O 9286   6.109   0.562   2.250
 3015WAT     H1 9287   6.072   0.574   2.158
 3015WAT     H2 9288   6.036   0.579   2.317
 3016WAT      O 9289   5.370   4.328   0.581
 3016WAT     H1 9290   5.354   4.230   0.569
 3016WAT     H2 9291   5.288   4.379   0.555
 3017WAT      O 9292   9.604   5.289   1.091
 3017WAT     H1 9293   9.615   5.189   1.083
 3017WAT     H2 9294   9.536   5.309   1.161
 3018WAT      O 9295   6.569   7.714   6.922
 3018WAT     H1 9296   6.514   7.633   6.905
 3018WAT     H2 9297   6.658   7.705   6.878
 3019WAT      O 9298   2.190   3.985   0.329
 3019WAT     H1 9299   2.127   3.912   0.354
 3019WAT     H2 9300   2.283   3.949   0.325
 3020WAT      O 9301   5.246   8.621   6.622
 3020WAT     H1 9302   5.211   8.583   6.708
 3020WAT     H2 9303   5.206   8.571   6.545
 3021WAT      O 9304   7.779   3.402   8.359
 3021WAT     H1 9305   7.760   3.406   8.457
 3021WAT     H2 9306   7.778   3.495   8.321
 3022WAT      O 9307   4.841   2.513   9.391
 3022WAT     H1 9308   4.748   2.546   9.410
 3022WAT     H2 9309   4.894   2.586   9.348
 3023WAT      O 9310   0.009   5.286   6.426
 3023WAT     H1 9311  -0.028   5.257   6.338
 3023WAT     H2 9312  -0.035   5.235   6.500
 3024WAT      O 9313   0.875   8.654   8.430
 3024WAT     H1 9314   0.847   8.625   8.339
 3024WAT     H2 9315   0.975   8.664   8.433
 3025WAT      O 9316   2.085   7.297   8.527
 3025WAT     H1 9317   2.002   7.296   8.471
 3025WAT     H2 9318   2.087   7.215   8.585
 3026WAT      O 9319   9.809   0.887   0.404
 3026WAT     H1 9320   9.883   0.940   0.446
 3026WAT     H2 9321   9.790   0.923   0.313
 3027WAT      O 9322   1.944   5.245   9.171
 3027WAT     H1 9323   1.944   5.214   9.076
 3027WAT     H2 9324   2.029   5.216   9.216
 3028WAT      O 9325   2.494   0.650   1.061
 3028WAT     H1 9326   2.577   0.677   1.013
 3028WAT     H2 9327   2.515   0.574   1.124
 3029WAT      O 9328   6.092   9.038   7.867
 3029WAT     H1 9329   6.059   9.082   7.951
 3029WAT     H2 9330   6.187   9.007   7.880
 3030WAT      O 9331   5.340   1.925   4.551
 3030WAT     H1 9332   5.253   1.877   4.543
 3030WAT     H2 9333   5.412   1.860   4.576
 3031WAT      O 9334   1.098   3.193   3.723
 3031WAT     H1 9335   1.001   3.196   3.746
 3031WAT     H2 9336   1.148   3.258   3.781
 3032WAT      O 9337   7.715   8.878   1.893
 3032WAT     H1 9338   7.752   8.795   1.851
 3032WAT     H2 9339   7.746   8.884   1.988
 3033WAT      O 9340   9.460   5.148   5.680
 3033WAT     H1 9341   9.434   5.108   5.768
 3033WAT     H2 9342   9.430   5.243   5.676
 3034WAT      O 9343   6.052   5.486   4.308
 3034WAT     H1 9344   6.119   5.421   4.344
 3034WAT     H2 9345   6.019   5.544   4.382
 3035WAT      O 9346   8.451   1.399   0.831
 3035WAT     H1 9347   8.439   1.459   0.910
 3035WAT     H2 9348   8.548   1.390   0.810
 3036WAT      O 9349   5.598   1.816   3.811
 3036WAT     H1 9350   5.693   1.782   3.807
 3036WAT     H2 9351   5.569   1.822   3.906
 3037WAT      O 9352   8.182   6.740   2.628
 3037WAT     H1 9353   8.188   6.736   2.528
 3037WAT     H2 9354   8.269   6.771   2.666
 3038WAT      O 9355   7.958   7.508   1.738
 3038WAT     H1 9356   7.995   7.425   1.780
 3038WAT     H2 9357   7.858   7.504   1.740
 3039WAT      O 9358   0.712   7.875   0.095
 3039WAT     H1 9359   0.649   7.864   0.171
 3039WAT     H2 9360   0.760   7.962   0.104
 3040WAT      O 9361   8.993   2.098   6.926
 3040WAT     H1 9362   8.950   2.087   6.837
 3040WAT     H2 9363   9.082   2.051   6.926
 3041WAT      O 9364   7.800   0.393   7.741
 3041WAT     H1 9365   7.701   0.407   7.738
 3041WAT     H2 9366   7.840   0.447   7.814
 3042WAT      O 9367   2.769   0.082   3.883
 3042WAT     H1 9368   2.702   0.071   3.956
 3042WAT     H2 9369   2.838   0.149   3.911
 3043WAT      O 9370   7.778   2.607   9.197
 3043WAT     H1 9371   7.759   2.646   9.108
 3043WAT     H2 9372   7.710   2.536   9.218
 3044WAT      O 9373   5.512   5.087   1.135
 3044WAT     H1 9374   5.485   5.081   1.231
 3044WAT     H2 9375   5.484   5.176   1.098
 3045WAT      O 9376   0.350   2.956   6.913
 3045WAT     H1 9377   0.309   2.974   6.824
 3045WAT     H2 9378   0.302   2.881   6.958
 3046WAT      O 9379   9.133   3.395   1.650
 3046WAT     H1 9380   9.200   3.339   1.601
 3046WAT     H2 9381   9.169   3.420   1.740
 3047WAT      O 9382   8.762   4.009   7.324
 3047WAT     H1 9383   8.784   3.997   7.421
 3047WAT     H2 9384   8.773   3.922   7.277
 3048WAT      O 9385   5.805   2.040   8.141
 3048WAT     H1 9386   5.772   1.990   8.061
 3048WAT     H2 9387   5.824   1.976   8.215
 3049WAT      O 9388   4.493   6.648   6.946
 3049WAT     H1 9389   4.493   6.569   7.007
 3049WAT     H2 9390   4.550   6.720   6.985
 3050WAT      O 9391   5.313   9.148   7.450
 3050WAT     H1 9392   5.409   9.122   7.437
 3050WAT     H2 9393   5.261   9.127   7.368
 3051WAT      O 9394   6.921   4.795   3.378
 3051WAT     H1 9395   6.869   4.816   3.295
 3051WAT     H2 9396   6.866   4.736   3.437
 3052WAT      O 9397   0.706   5.109   9.848
 3052WAT     H1 9398   0.734   5.019   9.880
 3052WAT     H2 9399   0.745   5.126   9.758
 3053WAT      O 9400   4.920   6.254   8.195
 3053WAT     H1 9401   4.978   6.182   8.157
 3053WAT     H2 9402   4.966   6.342   8.187
 3054WAT      O 9403   4.630   6.017   2.187
 3054WAT     H1 9404   4.593   6.093   2.133
 3054WAT     H2 9405   4.702   5.971   2.135
 3055WAT      O 9406   5.764   0.916   2.193
 3055WAT     H1 9407   5.746   0.818   2.183
 3055WAT     H2 9408   5.820   0.932   2.275
 3056WAT      O 9409   5.417   7.897   6.253
 3056WAT     H1 9410   5.365   7.955   6.190
 3056WAT     H2 9411   5.463   7.954   6.320
 3057WAT      O 9412   6.489   0.040   7.236
 3057WAT     H1 9413   6.536   0.124   7.208
 3057WAT     H2 9414   6.490   0.033   7.335
 3058WAT      O 9415   3.244   7.753   8.337
 3058WAT     H1 9416   3.182   7.732   8.412
 3058WAT     H2 9417   3.191   7.781   8.257
 3059WAT      O 9418   3.687   5.688   4.897
 3059WAT     H1 9419   3.756   5.639   4.951
 3059WAT     H2 9420   3.600   5.687   4.947
 3060WAT      O 9421   6.199   1.786   3.677
 3060WAT     H1 9422   6.224   1.739   3.761
 3060WAT     H2 9423   6.213   1.884   3.688
 3061WAT      O 9424   6.947   5.857   0.294
 3061WAT     H1 9425   6.905   5.890   0.209
 3061WAT     H2 9426   6.946   5.929   0.363
 3062WAT      O 9427   7.108   4.460   6.356
 3062WAT     H1 9428   7.061   4.530   6.409
 3062WAT     H2 9429   7.144   4.390   6.418
 3063WAT      O 9430   7.957   3.956   1.136
 3063WAT     H1 9431   8.051   3.970   1.104
 3063WAT     H2 9432   7.944   4.002   1.224
 3064WAT      O 9433   2.208   1.113   8.695
 3064WAT     H1 9434   2.166   1.109   8.604
 3064WAT     H2 9435   2.306   1.098   8.687
 3065WAT      O 9436   4.168   5.544   4.646
 3065WAT     H1 9437   4.179   5.498   4.734
 3065WAT     H2 9438   4.113   5.487   4.585
 3066WAT      O 9439   1.298   0.984   3.004
 3066WAT     H1 9440   1.347   1.049   2.946
 3066WAT     H2 9441   1.285   0.898   2.954
 3067WAT      O 9442   8.437   3.008   4.905
 3067WAT     H1 9443   8.493   3.091   4.902
 3067WAT     H2 9444   8.421   2.974   4.812
 3068WAT      O 9445   4.915   6.796   6.391
 3068WAT     H1 9446   4.957   6.745   6.466
 3068WAT     H2 9447   4.875   6.732   6.325
 3069WAT      O 9448   1.238   5.375   6.930
 3069WAT     H1 9449   1.237   5.380   6.830
 3069WAT     H2 9450   1.333   5.378   6.962
 3070WAT      O 9451   0.583   8.454   8.314
 3070WAT     H1 9452   0.669   8.467   8.264
 3070WAT     H2 9453   0.510   8.505   8.268
 3071WAT      O 9454   4.851   2.847   2.726
 3071WAT     H1 9455   4.949   2.842   2.748
 3071WAT     H2 9456   4.839   2.842   2.627
 3072WAT      O 9457   0.148   5.319   3.906
 3072WAT     H1 9458   0.115   5.252   3.840
 3072WAT     H2 9459   0.235   5.357   3.875
 3073WAT      O 9460   8.300   8.882   2.391
 3073WAT     H1 9461   8.298   8.928   2.302
 3073WAT     H2 9462   8.384   8.827   2.398
 3074WAT      O 9463   3.027   5.268   1.951
 3074WAT     H1 9464   2.982   5.203   2.012
 3074WAT     H2 9465   3.051   5.351   2.001
 3075WAT      O 9466   7.392   8.407   0.465
 3075WAT     H1 9467   7.293   8.391   0.456
 3075WAT     H2 9468   7.418   8.402   0.561
 3076WAT      O 9469   5.054   2.318   4.522
 3076WAT     H1 9470   5.095   2.236   4.481
 3076WAT     H2 9471   5.125   2.378   4.557
 3077WAT      O 9472   0.948   8.084   4.192
 3077WAT     H1 9473   0.999   8.003   4.162
 3077WAT     H2 9474   0.974   8.163   4.137
 3078WAT      O 9475   2.516   4.877   3.727
 3078WAT     H1 9476   2.585   4.926   3.780
 3078WAT     H2 9477   2.459   4.823   3.789
 3079WAT      O 9478   8.932   1.142   2.420
 3079WAT     H1 9479   9.010   1.201   2.400
 3079WAT     H2 9480   8.917   1.079   2.344
 3080WAT      O 9481   3.087   4.578   3.076
 3080WAT     H1 9482   3.045   4.585   2.986
 3080WAT     H2 9483   3.137   4.663   3.096
 3081WAT      O 9484   8.309   1.496   6.464
 3081WAT     H1 9485   8.384   1.562   6.463
 3081WAT     H2 9486   8.291   1.465   6.371
 3082WAT      O 9487   6.592   1.717   1.206
 3082WAT     H1 9488   6.499   1.746   1.228
 3082WAT     H2 9489   6.596   1.688   1.110
 3083WAT      O 9490   1.985   7.216   3.544
 3083WAT     H1 9491   1.938   7.129   3.562
 3083WAT     H2 9492   2.038   7.208   3.460
 3084WAT      O 9493   1.603   4.717   6.800
 3084WAT     H1 9494   1.512   4.759   6.801
 3084WAT     H2 9495   1.599   4.630   6.851
 3085WAT      O 9496   6.847   6.551   1.487
 3085WAT     H1 9497   6.901   6.605   1.422
 3085WAT     H2 9498   6.885   6.458   1.493
 3086WAT      O 9499   4.953   8.799   3.908
 3086WAT     H1 9500   4.989   8.818   3.817
 3086WAT     H2 9501   4.944   8.700   3.921
 3087WAT      O 9502   3.591   3.748   2.676
 3087WAT     H1 9503   3.624   3.716   2.765
 3087WAT     H2 9504   3.570   3.846   2.683
 3088WAT      O 9505   7.949   8.777   2.896
 3088WAT     H1 9506   8.011   8.830   2.839
 3088WAT     H2 9507   7.968   8.679   2.883
 3089WAT      O 9508   7.501   8.057   5.371
 3089WAT     H1 9509   7.410   8.043   5.331
 3089WAT     H2 9510   7.524   7.979   5.429
 3090WAT      O 9511   3.919   9.566   2.831
 3090WAT     H1 9512   3.913   9.467   2.842
 3090WAT     H2 9513   3.827   9.605   2.839
 3091WAT      O 9514   9.199   3.973   8.487
 3091WAT     H1 9515   9.136   4.018   8.550
 3091WAT     H2 9516   9.292   3.981   8.521
 3092WAT      O 9517   8.287   4.939   1.890
 3092WAT     H1 9518   8.256   4.884   1.967
 3092WAT     H2 9519   8.233   4.917   1.809
 3093WAT      O 9520   6.328   0.355   8.532
 3093WAT     H1 9521   6.348   0.266   8.491
 3093WAT     H2 9522   6.354   0.355   8.628
 3094WAT      O 9523   4.058   4.636   0.703
 3094WAT     H1 9524   4.146   4.660   0.743
 3094WAT     H2 9525   4.014   4.717   0.665
 3095WAT      O 9526   9.223   7.847   0.301
 3095WAT     H1 9527   9.162   7.925   0.304
 3095WAT     H2 9528   9.200   7.790   0.222
 3096WAT      O 9529   9.268   3.816   7.891
 3096WAT     H1 9530   9.295   3.767   7.808
 3096WAT     H2 9531   9.279   3.755   7.970
 3097WAT      O 9532   6.059   8.584   9.852
 3097WAT     H1 9533   6.153   8.605   9.829
 3097WAT     H2 9534   6.047   8.485   9.857
 3098WAT      O 9535   1.549   4.328   0.747
 3098WAT     H1 9536   1.594   4.356   0.662
 3098WAT     H2 9537   1.550   4.404   0.812
 3099WAT      O 9538   8.532   3.590   9.200
 3099WAT     H1 9539   8.455   3.653   9.209
 3099WAT     H2 9540   8.548   3.570   9.103
 3100WAT      O 9541   9.782   0.774   5.671
 3100WAT     H1 9542   9.780   0.784   5.572
 3100WAT     H2 9543   9.758   0.680   5.696
 3101WAT      O 9544   1.878   7.689   9.247
 3101WAT     H1 9545   1.873   7.768   9.308
 3101WAT     H2 9546   1.941   7.709   9.172
 3102WAT      O 9547   2.097   1.812   3.616
 3102WAT     H1 9548   2.143   1.758   3.686
 3102WAT     H2 9549   2.091   1.907   3.646
 3103WAT      O 9550   3.439   3.067   0.486
 3103WAT     H1 9551   3.365   3.120   0.526
 3103WAT     H2 9552   3.424   2.970   0.502
 3104WAT      O 9553   3.776   6.915   2.276
 3104WAT     H1 9554   3.840   6.904   2.200
 3104WAT     H2 9555   3.741   7.009   2.277
 3105WAT      O 9556   3.840   5.919   7.748
 3105WAT     H1 9557   3.897   5.981   7.694
 3105WAT     H2 9558   3.816   5.839   7.693
 3106WAT      O 9559   2.047   5.796   4.047
 3106WAT     H1 9560   2.134   5.799   4.095
 3106WAT     H2 9561   1.986   5.867   4.082
 3107WAT      O 9562   5.867   9.741   2.687
 3107WAT     H1 9563   5.808   9.767   2.610
 3107WAT     H2 9564   5.962   9.744   2.658
 3108WAT      O 9565   6.629   5.014   8.319
 3108WAT     H1 9566   6.679   5.029   8.404
 3108WAT     H2 9567   6.550   4.956   8.337
 3109WAT      O 9568   1.577   8.260   1.977
 3109WAT     H1 9569   1.638   8.271   1.898
 3109WAT     H2 9570   1.629   8.227   2.056
 3110WAT      O 9571   7.730   0.110   7.728
 3110WAT     H1 9572   7.687   0.129   7.639
 3110WAT     H2 9573   7.775   0.192   7.762
 3111WAT      O 9574   4.053   9.107   3.379
 3111WAT     H1 9575   3.959   9.093   3.349
 3111WAT     H2 9576   4.070   9.205   3.391
 3112WAT      O 9577   9.017   7.163   3.263
 3112WAT     H1 9578   9.097   7.112   3.294
 3112WAT     H2 9579   9.029   7.191   3.168
 3113WAT      O 9580   2.153   6.067   9.232
 3113WAT     H1 9581   2.114   5.978   9.254
 3113WAT     H2 9582   2.094   6.140   9.268
 3114WAT      O 9583   8.924   5.939   1.431
 3114WAT     H1 9584   9.003   5.999   1.430
 3114WAT     H2 9585   8.865   5.962   1.508
 3115WAT      O 9586   6.734   2.360   8.381
 3115WAT     H1 9587   6.712   2.263   8.387
 3115WAT     H2 9588   6.811   2.381   8.441
 3116WAT      O 9589   5.110   8.530   6.143
 3116WAT     H1 9590   5.062   8.443   6.128
 3116WAT     H2 9591   5.097   8.589   6.063
 3117WAT      O 9592   9.058   6.236   1.667
 3117WAT     H1 9593   9.103   6.298   1.603
 3117WAT     H2 9594   9.120   6.217   1.744
 3118WAT      O 9595   7.929   4.803   6.385
 3118WAT     H1 9596   7.896   4.894   6.357
 3118WAT     H2 9597   8.027   4.796   6.369
 3119WAT      O 9598   0.420   7.889   1.057
 3119WAT     H1 9599   0.478   7.829   1.113
 3119WAT     H2 9600   0.459   7.981   1.057
 3120WAT      O 9601   2.269   9.641   6.619
 3120WAT     H1 9602   2.261   9.547   6.652
 3120WAT     H2 9603   2.343   9.647   6.552
 3121WAT      O 9604   4.437   1.812   5.517
 3121WAT     H1 9605   4.396   1.903   5.507
 3121WAT     H2 9606   4.372   1.751   5.562
 3122WAT      O 9607   6.038   8.218   6.589
 3122WAT     H1 9608   6.111   8.275   6.554
 3122WAT     H2 9609   5.956   8.229   6.532
 3123WAT      O 9610   4.103   5.139   3.230
 3123WAT     H1 9611   4.109   5.113   3.326
 3123WAT     H2 9612   4.093   5.057   3.174
 3124WAT      O 9613   7.110   9.309   2.917
 3124WAT     H1 9614   7.038   9.251   2.877
 3124WAT     H2 9615   7.181   9.326   2.848
 3125WAT      O 9616   6.524   1.403   7.752
 3125WAT     H1 9617   6.489   1.349   7.675
 3125WAT     H2 9618   6.617   1.373   7.773
 3126WAT      O 9619   1.673   2.403   5.574
 3126WAT     H1 9620   1.601   2.352   5.621
 3126WAT     H2 9621   1.702   2.480   5.632
 3127WAT      O 9622   9.162   0.436   8.546
 3127WAT     H1 9623   9.215   0.360   8.585
 3127WAT     H2 9624   9.065   0.423   8.566
 3128WAT      O 9625   0.197   8.929   5.182
 3128WAT     H1 9626   0.244   8.990   5.247
 3128WAT     H2 9627   0.100   8.924   5.205
 3129WAT      O 9628   1.479   1.514   0.793
 3129WAT     H1 9629   1.488   1.418   0.769
 3129WAT     H2 9630   1.480   1.524   0.893
 3130WAT      O 9631   4.809   4.060   2.103
 3130WAT     H1 9632   4.807   3.967   2.066
 3130WAT     H2 9633   4.731   4.073   2.164
 3131WAT      O 9634   9.575   9.266   0.064
 3131WAT     H1 9635   9.543   9.314  -0.017
 3131WAT     H2 9636   9.507   9.197   0.091
 3132WAT      O 9637   4.694   6.661   8.852
 3132WAT     H1 9638   4.652   6.674   8.942
 3132WAT     H2 9639   4.630   6.613   8.792
 3133WAT      O 9640   6.470   8.961   5.147
 3133WAT     H1 9641   6.375   8.956   5.117
 3133WAT     H2 9642   6.474   8.978   5.245
 3134WAT      O 9643   0.638   5.090   9.185
 3134WAT     H1 9644   0.590   5.020   9.238
 3134WAT     H2 9645   0.737   5.078   9.194
 3135WAT      O 9646   6.846   4.027   1.276
 3135WAT     H1 9647   6.802   4.116   1.268
 3135WAT     H2 9648   6.885   4.017   1.368
 3136WAT      O 9649   0.959   1.630   0.178
 3136WAT     H1 9650   0.991   1.721   0.154
 3136WAT     H2 9651   0.924   1.630   0.271
 3137WAT      O 9652   7.004   5.024   3.500
 3137WAT     H1 9653   6.956   5.068   3.577
 3137WAT     H2 9654   6.963   4.935   3.482
 3138WAT      O 9655   8.373   3.270   3.983
 3138WAT     H1 9656   8.386   3.175   3.956
 3138WAT     H2 9657   8.378   3.278   4.082
 3139WAT      O 9658   3.554   1.118   8.514
 3139WAT     H1 9659   3.532   1.199   8.568
 3139WAT     H2 9660   3.501   1.040   8.547
 3140WAT      O 9661   1.836   4.294   2.312
 3140WAT     H1 9662   1.810   4.307   2.408
 3140WAT     H2 9663   1.933   4.318   2.301
 3141WAT      O 9664   3.751   2.800   4.815
 3141WAT     H1 9665   3.693   2.725   4.847
 3141WAT     H2 9666   3.837   2.763   4.780
 3142WAT      O 9667   4.150   2.973   3.891
 3142WAT     H1 9668   4.146   3.047   3.824
 3142WAT     H2 9669   4.224   2.910   3.865
 3143WAT      O 9670   2.666   6.414   9.092
 3143WAT     H1 9671   2.743   6.352   9.080
 3143WAT     H2 9672   2.581   6.362   9.098
 3144WAT      O 9673   7.843   0.529   5.159
 3144WAT     H1 9674   7.768   0.480   5.114
 3144WAT     H2 9675   7.831   0.627   5.145
 3145WAT      O 9676   2.407   6.348   4.242
 3145WAT     H1 9677   2.337   6.375   4.307
 3145WAT     H2 9678   2.374   6.363   4.149
 3146WAT      O 9679   4.877   0.948   2.580
 3146WAT     H1 9680   4.794   1.005   2.575
 3146WAT     H2 9681   4.897   0.928   2.676
 3147WAT      O 9682   3.809   7.278   1.009
 3147WAT     H1 9683   3.711   7.266   1.025
 3147WAT     H2 9684   3.828   7.373   0.985
 3148WAT      O 9685   4.616   6.365   7.402
 3148WAT     H1 9686   4.598   6.267   7.409
 3148WAT     H2 9687   4.564   6.403   7.326
 3149WAT      O 9688   8.897   8.102   7.327
 3149WAT     H1 9689   8.888   8.008   7.362
 3149WAT     H2 9690   8.947   8.157   7.393
 3150WAT      O 9691   3.878   6.435   1.465
 3150WAT     H1 9692   3.906   6.434   1.369
 3150WAT     H2 9693   3.935   6.500   1.516
 3151WAT      O 9694   4.698   5.002   1.943
 3151WAT     H1 9695   4.618   4.941   1.949
 3151WAT     H2 9696   4.676   5.089   1.986
 3152WAT      O 9697   2.119   8.253   6.640
 3152WAT     H1 9698   2.182   8.204   6.580
 3152WAT     H2 9699   2.092   8.339   6.597
 3153WAT      O 9700   3.286   8.861   3.529
 3153WAT     H1 9701   3.243   8.772   3.510
 3153WAT     H2 9702   3.385   8.849   3.532
 3154WAT      O 9703   5.980   9.685   9.679
 3154WAT     H1 9704   6.043   9.614   9.649
 3154WAT     H2 9705   5.913   9.703   9.606
 3155WAT      O 9706   2.224   8.937   2.180
 3155WAT     H1 9707   2.174   9.010   2.227
 3155WAT     H2 9708   2.322   8.958   2.181
 3156WAT      O 9709   1.717   4.671   0.784
 3156WAT     H1 9710   1.776   4.630   0.853
 3156WAT     H2 9711   1.664   4.746   0.824
 3157WAT      O 9712   1.857   5.082   8.609
 3157WAT     H1 9713   1.861   4.985   8.632
 3157WAT     H2 9714   1.794   5.095   8.532
 3158WAT      O 9715   3.589   3.325   6.261
 3158WAT     H1 9716   3.567   3.322   6.163
 3158WAT     H2 9717   3.620   3.416   6.285
 3159WAT      O 9718   0.461   4.463   9.661
 3159WAT     H1 9719   0.467   4.363   9.668
 3159WAT     H2 9720   0.366   4.492   9.671
 3160WAT      O 9721   2.308   0.230   3.538
 3160WAT     H1 9722   2.371   0.154   3.523
 3160WAT     H2 9723   2.359   0.314   3.549
 3161WAT      O 9724   7.716   8.620   0.762
 3161WAT     H1 9725   7.654   8.635   0.839
 3161WAT     H2 9726   7.730   8.706   0.714
 3162WAT      O 9727   6.987   7.135   6.217
 3162WAT     H1 9728   7.004   7.188   6.300
 3162WAT     H2 9729   6.890   7.141   6.193
 3163WAT      O 9730   6.817   0.834   5.131
 3163WAT     H1 9731   6.860   0.758   5.180
 3163WAT     H2 9732   6.795   0.805   5.038
 3164WAT      O 9733   2.471   7.696   0.932
 3164WAT     H1 9734   2.563   7.687   0.894
 3164WAT     H2 9735   2.474   7.756   1.012
 3165WAT      O 9736   8.967   8.543   1.513
 3165WAT     H1 9737   9.062   8.532   1.485
 3165WAT     H2 9738   8.914   8.583   1.438
 3166WAT      O 9739   6.943   1.221   8.593
 3166WAT     H1 9740   6.908   1.133   8.559
 3166WAT     H2 9741   7.037   1.210   8.623
 3167WAT      O 9742   2.751   7.613   4.186
 3167WAT     H1 9743   2.679   7.636   4.251
 3167WAT     H2 9744   2.813   7.546   4.226
 3168WAT      O 9745   7.714   4.654   2.476
 3168WAT     H1 9746   7.766   4.735   2.450
 3168WAT     H2 9747   7.741   4.624   2.567
 3169WAT      O 9748   5.171   6.277   9.114
 3169WAT     H1 9749   5.093   6.242   9.165
 3169WAT     H2 9750   5.173   6.235   9.023
 3170WAT      O 9751   7.121   8.291   0.881
 3170WAT     H1 9752   7.124   8.193   0.863
 3170WAT     H2 9753   7.034   8.328   0.848
 3171WAT      O 9754   8.945   3.947   5.181
 3171WAT     H1 9755   8.862   3.998   5.203
 3171WAT     H2 9756   9.011   3.955   5.255
 3172WAT      O 9757   3.483   6.078   7.103
 3172WAT     H1 9758   3.467   5.979   7.098
 3172WAT     H2 9759   3.405   6.127   7.063
 3173WAT      O 9760   5.888   4.900   8.182
 3173WAT     H1 9761   5.979   4.921   8.218
 3173WAT     H2 9762   5.881   4.934   8.089
 3174WAT      O 9763   1.856   0.726   6.469
 3174WAT     H1 9764   1.784   0.728   6.539
 3174WAT     H2 9765   1.829   0.664   6.395
 3175WAT      O 9766   6.428   7.373   2.676
 3175WAT     H1 9767   6.412   7.421   2.762
 3175WAT     H2 9768   6.356   7.399   2.611
 3176WAT      O 9769   9.482   3.411   3.289
 3176WAT     H1 9770   9.554   3.481   3.290
 3176WAT     H2 9771   9.410   3.438   3.226
 3177WAT      O 9772   0.489   8.353   9.007
 3177WAT     H1 9773   0.552   8.275   9.000
 3177WAT     H2 9774   0.513   8.422   8.939
 3178WAT      O 9775   9.005   4.068   4.938
 3178WAT     H1 9776   8.986   4.017   5.022
 3178WAT     H2 9777   9.093   4.114   4.947
 3179WAT      O 9778   8.177   5.841   9.031
 3179WAT     H1 9779   8.274   5.819   9.037
 3179WAT     H2 9780   8.165   5.940   9.031
 3180WAT      O 9781   1.191   1.106   1.253
 3180WAT     H1 9782   1.195   1.011   1.283
 3180WAT     H2 9783   1.269   1.125   1.193
 3181WAT      O 9784   3.156   4.316   3.543
 3181WAT     H1 9785   3.119   4.335   3.452
 3181WAT     H2 9786   3.244   4.269   3.534
 3182WAT      O 9787   0.453   1.612   5.011
 3182WAT     H1 9788   0.498   1.538   4.960
 3182WAT     H2 9789   0.366   1.633   4.968
 3183WAT      O 9790   8.352   5.750   5.789
 3183WAT     H1 9791   8.388   5.843   5.791
 3183WAT     H2 9792   8.299   5.733   5.873
 3184WAT      O 9793   3.268   1.487   9.388
 3184WAT     H1 9794   3.236   1.399   9.352
 3184WAT     H2 9795   3.287   1.477   9.486
 3185WAT      O 9796   7.764   5.986   2.027
 3185WAT     H1 9797   7.821   5.943   1.957
 3185WAT     H2 9798   7.731   6.074   1.994
 3186WAT      O 9799   4.153   7.062   9.583
 3186WAT     H1 9800   4.252   7.048   9.579
 3186WAT     H2 9801   4.129   7.108   9.668
 3187WAT      O 9802   2.694   5.741   7.318
 3187WAT     H1 9803   2.730   5.649   7.305
 3187WAT     H2 9804   2.684   5.760   7.415
 3188WAT      O 9805   2.785   1.757   2.646
 3188WAT     H1 9806   2.829   1.717   2.566
 3188WAT     H2 9807   2.689   1.727   2.649
 3189WAT      O 9808   9.059   1.792   4.447
 3189WAT     H1 9809   9.131   1.733   4.483
 3189WAT     H2 9810   9.100   1.874   4.408
 3190WAT      O 9811   1.483   6.228   3.988
 3190WAT     H1 9812   1.540   6.303   3.953
 3190WAT     H2 9813   1.470   6.239   4.086
 3191WAT      O 9814   7.658   8.372   2.869
 3191WAT     H1 9815   7.700   8.425   2.943
 3191WAT     H2 9816   7.565   8.405   2.853
 3192WAT      O 9817   0.315   2.996   3.055
 3192WAT     H1 9818   0.251   2.955   2.990
 3192WAT     H2 9819   0.396   2.937   3.063
 3193WAT      O 9820   3.321   9.699   8.423
 3193WAT     H1 9821   3.295   9.720   8.329
 3193WAT     H2 9822   3.268   9.621   8.457
 3194WAT      O 9823   8.769   3.715   2.876
 3194WAT     H1 9824   8.757   3.790   2.811
 3194WAT     H2 9825   8.745   3.747   2.968
 3195WAT      O 9826   5.138   7.536   8.072
 3195WAT     H1 9827   5.172   7.596   8.000
 3195WAT     H2 9828   5.207   7.527   8.143
 3196WAT      O 9829   8.257   8.764   6.555
 3196WAT     H1 9830   8.199   8.748   6.635
 3196WAT     H2 9831   8.319   8.840   6.574
 3197WAT      O 9832   0.526   8.112   5.334
 3197WAT     H1 9833   0.521   8.195   5.390
 3197WAT     H2 9834   0.529   8.137   5.237
 3198WAT      O 9835   9.611   9.356   9.309
 3198WAT     H1 9836   9.671   9.337   9.232
 3198WAT     H2 9837   9.516   9.357   9.278
 3199WAT      O 9838   5.335   1.984   6.918
 3199WAT     H1 9839   5.361   2.023   6.830
 3199WAT     H2 9840   5.415   1.943   6.961
 3200WAT      O 9841   6.863   0.829   6.010
 3200WAT     H1 9842   6.933   0.784   6.066
 3200WAT     H2 9843   6.888   0.821   5.914
 3201WAT      O 9844   9.655   1.470   8.771
 3201WAT     H1 9845   9.599   1.443   8.850
 3201WAT     H2 9846   9.723   1.537   8.800
 3202WAT      O 9847   6.904   6.223   2.895
 3202WAT     H1 9848   6.898   6.178   2.806
 3202WAT     H2 9849   6.861   6.314   2.888
 3203WAT      O 9850   4.732   3.468   9.380
 3203WAT     H1 9851   4.718   3.439   9.286
 3203WAT     H2 9852   4.669   3.418   9.440
 3204WAT      O 9853   0.752   9.286   0.209
 3204WAT     H1 9854   0.735   9.354   0.137
 3204WAT     H2 9855   0.800   9.208   0.171
 3205WAT      O 9856   1.830   0.019   5.992
 3205WAT     H1 9857   1.768  -0.036   5.936
 3205WAT     H2 9858   1.894  -0.041   6.039
 3206WAT      O 9859   5.464   5.356   6.957
 3206WAT     H1 9860   5.560   5.383   6.946
 3206WAT     H2 9861   5.445   5.277   6.900
 3207WAT      O 9862   8.120   5.258   9.365
 3207WAT     H1 9863   8.067   5.342   9.376
 3207WAT     H2 9864   8.074   5.199   9.298
 3208WAT      O 9865   5.176   7.431   8.878
 3208WAT     H1 9866   5.173   7.528   8.900
 3208WAT     H2 9867   5.141   7.416   8.785
 3209WAT      O 9868   9.141   7.185   3.854
 3209WAT     H1 9869   9.237   7.162   3.844
 3209WAT     H2 9870   9.093   7.166   3.768
 3210WAT      O 9871   4.070   4.918   3.042
 3210WAT     H1 9872   3.986   4.887   2.997
 3210WAT     H2 9873   4.125   4.972   2.978
 3211WAT      O 9874   8.988   4.507   5.292
 3211WAT     H1 9875   9.021   4.578   5.231
 3211WAT     H2 9876   9.036   4.421   5.273
 3212WAT      O 9877   5.924   9.445   7.540
 3212WAT     H1 9878   5.835   9.405   7.520
 3212WAT     H2 9879   5.987   9.426   7.464
 3213WAT      O 9880   4.839   6.164   9.736
 3213WAT     H1 9881   4.769   6.094   9.748
 3213WAT     H2 9882   4.802   6.240   9.682
 3214WAT      O 9883   8.052   1.445   5.340
 3214WAT     H1 9884   8.141   1.404   5.361
 3214WAT     H2 9885   8.013   1.483   5.424
 3215WAT      O 9886   7.441   6.303   5.500
 3215WAT     H1 9887   7.414   6.398   5.487
 3215WAT     H2 9888   7.541   6.296   5.494
 3216WAT      O 9889   2.711   1.324   9.404
 3216WAT     H1 9890   2.647   1.368   9.467
 3216WAT     H2 9891   2.803   1.360   9.418
 3217WAT      O 9892   4.043   4.249   6.272
 3217WAT     H1 9893   4.083   4.170   6.317
 3217WAT     H2 9894   4.111   4.323   6.267
 3218WAT      O 9895   8.090   2.830   5.688
 3218WAT     H1 9896   8.118   2.871   5.601
 3218WAT     H2 9897   8.169   2.786   5.731
 3219WAT      O 9898   0.718   8.201   9.430
 3219WAT     H1 9899   0.807   8.167   9.461
 3219WAT     H2 9900   0.645   8.148   9.475
 3220WAT      O 9901   9.263   1.936   8.249
 3220WAT     H1 9902   9.175   1.958   8.208
 3220WAT     H2 9903   9.257   1.942   8.348
 3221WAT      O 9904   4.475   7.037   4.903
 3221WAT     H1 9905   4.453   7.123   4.856
 3221WAT     H2 9906   4.456   6.960   4.842
 3222WAT      O 9907   7.900   1.908   1.214
 3222WAT     H1 9908   7.907   1.912   1.114
 3222WAT     H2 9909   7.914   2.000   1.252
 3223WAT      O 9910   9.737   1.850   7.960
 3223WAT     H1 9911   9.810   1.782   7.949
 3223WAT     H2 9912   9.753   1.903   8.043
 3224WAT      O 9913   1.739   6.582   5.171
 3224WAT     H1 9914   1.810   6.540   5.115
 3224WAT     H2 9915   1.734   6.680   5.150
 3225WAT      O 9916   3.098   7.788   0.302
 3225WAT     H1 9917   3.035   7.765   0.227
 3225WAT     H2 9918   3.192   7.771   0.272
 3226WAT      O 9919   1.573   9.536   4.105
 3226WAT     H1 9920   1.581   9.489   4.017
 3226WAT     H2 9921   1.586   9.634   4.092
 3227WAT      O 9922   7.623   8.258   8.272
 3227WAT     H1 9923   7.697   8.305   8.223
 3227WAT     H2 9924   7.662   8.207   8.349
 3228WAT      O 9925   9.817   6.198   7.249
 3228WAT     H1 9926   9.837   6.274   7.310
 3228WAT     H2 9927   9.817   6.112   7.301
 3229WAT      O 9928   8.911   1.211   4.109
 3229WAT     H1 9929   8.934   1.133   4.167
 3229WAT     H2 9930   8.844   1.183   4.040
 3230WAT      O 9931   9.852   5.971   8.525
 3230WAT     H1 9932   9.755   5.950   8.510
 3230WAT     H2 9933   9.870   6.065   8.496
 3231WAT      O 9934   7.843   4.642   2.032
 3231WAT     H1 9935   7.869   4.553   2.070
 3231WAT     H2 9936   7.907   4.711   2.064
 3232WAT      O 9937   3.586   6.490   9.613
 3232WAT     H1 9938   3.556   6.418   9.551
 3232WAT     H2 9939   3.576   6.458   9.708
 3233WAT      O 9940   8.843   5.119   3.561
 3233WAT     H1 9941   8.781   5.096   3.636
 3233WAT     H2 9942   8.934   5.086   3.581
 3234WAT      O 9943   2.563   5.796   9.240
 3234WAT     H1 9944   2.580   5.764   9.333
 3234WAT     H2 9945   2.649   5.798   9.188
 3235WAT      O 9946   7.268   2.435   9.383
 3235WAT     H1 9947   7.246   2.530   9.360
 3235WAT     H2 9948   7.186   2.389   9.416
 3236WAT      O 9949   7.812   9.702   8.752
 3236WAT     H1 9950   7.798   9.630   8.821
 3236WAT     H2 9951   7.778   9.789   8.788
 3237WAT      O 9952   3.136   6.961   8.313
 3237WAT     H1 9953   3.089   7.048   8.325
 3237WAT     H2 9954   3.135   6.910   8.399
 3238WAT      O 9955   5.097   8.359   9.575
 3238WAT     H1 9956   5.128   8.447   9.536
 3238WAT     H2 9957   5.066   8.373   9.669
 3239WAT      O 9958   1.597   5.289   8.038
 3239WAT     H1 9959   1.682   5.237   8.032
 3239WAT     H2 9960   1.592   5.334   8.127
 3240WAT      O 9961   8.810   0.901   6.796
 3240WAT     H1 9962   8.753   0.983   6.798
 3240WAT     H2 9963   8.848   0.889   6.704
 3241WAT      O 9964   3.245   0.834   4.500
 3241WAT     H1 9965   3.223   0.856   4.405
 3241WAT     H2 9966   3.240   0.735   4.512
 3242WAT      O 9967   8.772   6.975   9.751
 3242WAT     H1 9968   8.760   7.002   9.846
 3242WAT     H2 9969   8.688   6.994   9.700
 3243WAT      O 9970   9.666   0.284   9.037
 3243WAT     H1 9971   9.659   0.193   8.997
 3243WAT     H2 9972   9.575   0.319   9.058
 3244WAT      O 9973   9.611   5.028   4.642
 3244WAT     H1 9974   9.600   4.928   4.648
 3244WAT     H2 9975   9.524   5.072   4.664
 3245WAT      O 9976   9.649   3.835   8.725
 3245WAT     H1 9977   9.702   3.770   8.670
 3245WAT     H2 9978   9.587   3.886   8.665
 3246WAT      O 9979   1.743   4.588   6.198
 3246WAT     H1 9980   1.753   4.489   6.188
 3246WAT     H2 9981   1.738   4.630   6.107
 3247WAT      O 9982   8.801   3.023   4.450
 3247WAT     H1 9983   8.882   3.016   4.392
 3247WAT     H2 9984   8.795   3.116   4.487
 3248WAT      O 9985   4.435   7.399   5.006
 3248WAT     H1 9986   4.459   7.495   5.025
 3248WAT     H2 9987   4.437   7.383   4.908
 3249WAT      O 9988   6.897   8.858   7.825
 3249WAT     H1 9989   6.867   8.827   7.735
 3249WAT     H2 9990   6.997   8.861   7.828
 3250WAT      O 9991   6.602   3.815   0.065
 3250WAT     H1 9992   6.518   3.865   0.045
 3250WAT     H2 9993   6.667   3.875   0.112
 3251WAT      O 9994   0.587   5.123   4.470
 3251WAT     H1 9995   0.555   5.029   4.457
 3251WAT     H2 9996   0.543   5.182   4.402
 3252WAT      O 9997   6.570   2.959   8.901
 3252WAT     H1 9998   6.550   2.981   8.806
 3252WAT     H2 9999   6.485   2.930   8.947
 3253WAT      O10000   1.206   0.235   0.861
 3253WAT     H110001   1.205   0.216   0.959
 3253WAT     H210002   1.201   0.334   0.846
 3254WAT      O10003   2.629   2.705   3.578
 3254WAT     H110004   2.537   2.691   3.541
 3254WAT     H210005   2.674   2.617   3.590
 3255WAT      O10006   3.209   5.101   8.957
 3255WAT     H110007   3.147   5.091   9.035
 3255WAT     H210008   3.226   5.198   8.940
 3256WAT      O10009   0.199   8.746   8.271
 3256WAT     H110010   0.285   8.726   8.318
 3256WAT     H210011   0.138   8.668   8.281
 3257WAT      O10012   1.540   1.352   8.128
 3257WAT     H110013   1.447   1.372   8.100
 3257WAT     H210014   1.595   1.435   8.127
 3258WAT      O10015   8.235   4.219   7.246
 3258WAT     H110016   8.309   4.154   7.268
 3258WAT     H210017   8.275   4.309   7.227
 3259WAT      O10018   8.223   5.890   1.309
 3259WAT     H110019   8.199   5.860   1.401
 3259WAT     H210020   8.312   5.934   1.310
 3260WAT      O10021   9.796   2.662   4.372
 3260WAT     H110022   9.865   2.590   4.363
 3260WAT     H210023   9.839   2.745   4.407
 3261WAT      O10024   2.752   2.875   3.057
 3261WAT     H110025   2.662   2.872   3.014
 3261WAT     H210026   2.743   2.861   3.156
 3262WAT      O10027   9.357   5.126   7.713
 3262WAT     H110028   9.287   5.167   7.771
 3262WAT     H210029   9.353   5.026   7.720
 3263WAT      O10030   6.399   0.220   3.194
 3263WAT     H110031   6.393   0.312   3.154
 3263WAT     H210032   6.310   0.195   3.232
 3264WAT      O10033   9.596   1.009   2.123
 3264WAT     H110034   9.566   1.059   2.204
 3264WAT     H210035   9.680   0.959   2.144
 3265WAT      O10036   6.850   8.902   1.339
 3265WAT     H110037   6.845   8.803   1.327
 3265WAT     H210038   6.881   8.922   1.432
 3266WAT      O10039   7.975   4.537   1.713
 3266WAT     H110040   7.935   4.481   1.785
 3266WAT     H210041   7.970   4.488   1.626
 3267WAT      O10042   3.332   4.902   7.195
 3267WAT     H110043   3.353   4.825   7.134
 3267WAT     H210044   3.235   4.900   7.217
 3268WAT      O10045   4.717   1.782   6.697
 3268WAT     H110046   4.653   1.850   6.732
 3268WAT     H210047   4.692   1.692   6.731
 3269WAT      O10048   1.272   3.875   5.805
 3269WAT     H110049   1.356   3.850   5.757
 3269WAT     H210050   1.262   3.974   5.805
 3270WAT      O10051   7.808   3.087   9.697
 3270WAT     H110052   7.786   3.185   9.701
 3270WAT     H210053   7.863   3.069   9.615
 3271WAT      O10054   9.266   4.637   5.082
 3271WAT     H110055   9.308   4.632   5.172
 3271WAT     H210056   9.258   4.732   5.054
 3272WAT      O10057   5.737   1.165   1.254
 3272WAT     H110058   5.665   1.135   1.191
 3272WAT     H210059   5.760   1.260   1.234
 3273WAT      O10060   0.341   5.485   2.572
 3273WAT     H110061   0.297   5.418   2.631
 3273WAT     H210062   0.373   5.440   2.488
 3274WAT      O10063   2.663   6.557   5.353
 3274WAT     H110064   2.681   6.617   5.274
 3274WAT     H210065   2.583   6.501   5.334
 3275WAT      O10066   1.590   7.359   3.615
 3275WAT     H110067   1.593   7.267   3.577
 3275WAT     H210068   1.508   7.370   3.671
 3276WAT      O10069   0.714   1.604   3.168
 3276WAT     H110070   0.813   1.591   3.175
 3276WAT     H210071   0.690   1.695   3.203
 3277WAT      O10072   4.038   3.398   5.986
 3277WAT     H110073   4.080   3.489   5.987
 3277WAT     H210074   4.108   3.329   6.006
 3278WAT      O10075   1.556   2.359   4.642
 3278WAT     H110076   1.479   2.338   4.582
 3278WAT     H210077   1.604   2.439   4.607
 3279WAT      O10078   7.109   2.234   3.010
 3279WAT     H110079   7.141   2.253   2.918
 3279WAT     H210080   7.187   2.231   3.073
 3280WAT      O10081   1.246   2.586   3.242
 3280WAT     H110082   1.337   2.551   3.222
 3280WAT     H210083   1.247   2.634   3.330
 3281WAT      O10084   5.454   5.249   1.820
 3281WAT     H110085   5.362   5.279   1.794
 3281WAT     H210086   5.454   5.149   1.832
 3282WAT      O10087   9.561   2.078   3.605
 3282WAT     H110088   9.494   2.005   3.592
 3282WAT     H210089   9.649   2.050   3.567
 3283WAT      O10090   8.147   3.515   1.165
 3283WAT     H110091   8.186   3.456   1.235
 3283WAT     H210092   8.103   3.459   1.095
 3284WAT      O10093   7.581   6.122   1.244
 3284WAT     H110094   7.549   6.045   1.300
 3284WAT     H210095   7.660   6.093   1.190
 3285WAT      O10096   4.541   9.350   0.133
 3285WAT     H110097   4.568   9.295   0.054
 3285WAT     H210098   4.479   9.297   0.191
 3286WAT      O10099   8.262   0.194   5.126
 3286WAT     H110100   8.168   0.168   5.105
 3286WAT     H210101   8.263   0.254   5.206
 3287WAT      O10102   6.263   1.344   8.358
 3287WAT     H110103   6.223   1.256   8.383
 3287WAT     H210104   6.199   1.395   8.300
 3288WAT      O10105   4.915   0.864   0.423
 3288WAT     H110106   4.898   0.772   0.460
 3288WAT     H210107   4.976   0.913   0.485
 3289WAT      O10108   4.586   5.354   6.817
 3289WAT     H110109   4.601   5.290   6.742
 3289WAT     H210110   4.569   5.304   6.902
 3290WAT      O10111   5.357   0.312   1.272
 3290WAT     H110112   5.455   0.300   1.256
 3290WAT     H210113   5.337   0.410   1.282
 3291WAT      O10114   9.502   4.281   1.644
 3291WAT     H110115   9.455   4.193   1.648
 3291WAT     H210116   9.600   4.266   1.634
 3292WAT      O10117   8.323   4.129   2.487
 3292WAT     H110118   8.398   4.185   2.451
 3292WAT     H210119   8.268   4.183   2.549
 3293WAT      O10120   5.530   4.443   2.864
 3293WAT     H110121   5.463   4.369   2.851
 3293WAT     H210122   5.486   4.531   2.846
 3294WAT      O10123   8.204   5.421   2.692
 3294WAT     H110124   8.146   5.439   2.772
 3294WAT     H210125   8.300   5.430   2.718
 3295WAT      O10126   1.756   3.385   0.918
 3295WAT     H110127   1.664   3.350   0.933
 3295WAT     H210128   1.815   3.358   0.994
 3296WAT      O10129   2.402   7.891   7.303
 3296WAT     H110130   2.425   7.962   7.370
 3296WAT     H210131   2.453   7.908   7.218
 3297WAT      O10132   3.754   3.271   3.201
 3297WAT     H110133   3.825   3.211   3.239
 3297WAT     H210134   3.666   3.225   3.205
 3298WAT      O10135   0.216   2.241   7.724
 3298WAT     H110136   0.157   2.312   7.686
 3298WAT     H210137   0.175   2.206   7.809
 3299WAT      O10138   0.383   3.069   5.057
 3299WAT     H110139   0.329   3.153   5.064
 3299WAT     H210140   0.476   3.091   5.029
 3300WAT      O10141   9.588   3.301   4.365
 3300WAT     H110142   9.664   3.261   4.314
 3300WAT     H210143   9.504   3.293   4.311
 3301WAT      O10144   6.882   1.696   8.673
 3301WAT     H110145   6.789   1.662   8.682
 3301WAT     H210146   6.886   1.765   8.601
 3302WAT      O10147   6.590   1.125   9.592
 3302WAT     H110148   6.530   1.181   9.534
 3302WAT     H210149   6.630   1.182   9.664
 3303WAT      O10150   0.073   4.574   5.656
 3303WAT     H110151   0.155   4.625   5.685
 3303WAT     H210152   0.062   4.581   5.557
 3304WAT      O10153   8.351   0.907   1.947
 3304WAT     H110154   8.266   0.910   1.999
 3304WAT     H210155   8.428   0.922   2.008
 3305WAT      O10156   2.148   3.978   0.933
 3305WAT     H110157   2.110   4.025   0.853
 3305WAT     H210158   2.119   3.882   0.932
 3306WAT      O10159   1.180   5.844   0.067
 3306WAT     H110160   1.194   5.758   0.019
 3306WAT     H210161   1.228   5.842   0.155
 3307WAT      O10162   1.710   8.437   8.955
 3307WAT     H110163   1.735   8.512   8.893
 3307WAT     H210164   1.701   8.473   9.048
 3308WAT      O10165   4.827   9.080   0.940
 3308WAT     H110166   4.851   9.163   0.890
 3308WAT     H210167   4.849   9.091   1.037
 3309WAT      O10168   6.057   8.534   2.055
 3309WAT     H110169   5.986   8.542   1.985
 3309WAT     H210170   6.021   8.482   2.133
 3310WAT      O10171   0.559   2.305   1.238
 3310WAT     H110172   0.529   2.381   1.297
 3310WAT     H210173   0.656   2.289   1.253
 3311WAT      O10174   6.134   4.087   2.785
 3311WAT     H110175   6.034   4.080   2.797
 3311WAT     H210176   6.157   4.177   2.750
 3312WAT      O10177   2.566   2.537   1.741
 3312WAT     H110178   2.657   2.496   1.733
 3312WAT     H210179   2.507   2.476   1.794
 3313WAT      O10180   1.125   5.104   0.434
 3313WAT     H110181   1.183   5.023   0.424
 3313WAT     H210182   1.182   5.186   0.425
 3314WAT      O10183   4.839   0.711   4.496
 3314WAT     H110184   4.803   0.787   4.442
 3314WAT     H210185   4.862   0.635   4.436
 3315WAT      O10186   2.417   7.390   5.782
 3315WAT     H110187   2.410   7.322   5.710
 3315WAT     H210188   2.338   7.451   5.779
 3316WAT      O10189   7.708   9.201   2.431
 3316WAT     H110190   7.675   9.276   2.488
 3316WAT     H210191   7.630   9.155   2.388
 3317WAT      O10192   1.135   4.268   1.295
 3317WAT     H110193   1.085   4.236   1.215
 3317WAT     H210194   1.196   4.195   1.328
 3318WAT      O10195   4.694   8.013   9.359
 3318WAT     H110196   4.748   8.060   9.429
 3318WAT     H210197   4.727   8.040   9.268
 3319WAT      O10198   5.396   4.869   4.573
 3319WAT     H110199   5.326   4.926   4.616
 3319WAT     H210200   5.475   4.861   4.633
 3320WAT      O10201   3.507   1.368   8.664
 3320WAT     H110202   3.413   1.385   8.634
 3320WAT     H210203   3.549   1.454   8.693
 3321WAT      O10204   7.741   5.509   0.727
 3321WAT     H110205   7.728   5.494   0.825
 3321WAT     H210206   7.802   5.439   0.691
 3322WAT      O10207   6.628   6.348   0.825
 3322WAT     H110208   6.617   6.447   0.818
 3322WAT     H210209   6.575   6.315   0.903
 3323WAT      O10210   8.334   6.367   4.583
 3323WAT     H110211   8.310   6.271   4.596
 3323WAT     H210212   8.258   6.416   4.541
 3324WAT      O10213   7.154   3.565   5.246
 3324WAT     H110214   7.058   3.565   5.273
 3324WAT     H210215   7.196   3.652   5.271
 3325WAT      O10216   0.513   1.708   1.442
 3325WAT     H110217   0.414   1.696   1.436
 3325WAT     H210218   0.558   1.647   1.376
 3326WAT      O10219   2.426   6.539   1.365
 3326WAT     H110220   2.327   6.544   1.356
 3326WAT     H210221   2.469   6.591   1.290
 3327WAT      O10222   9.165   1.638   7.523
 3327WAT     H110223   9.198   1.727   7.557
 3327WAT     H210224   9.174   1.636   7.424
 3328WAT      O10225   7.618   9.711   8.520
 3328WAT     H110226   7.538   9.652   8.527
 3328WAT     H210227   7.672   9.704   8.604
 3329WAT      O10228   7.447   3.327   3.781
 3329WAT     H110229   7.372   3.270   3.748
 3329WAT     H210230   7.487   3.377   3.704
 3330WAT      O10231   7.340   9.784   2.994
 3330WAT     H110232   7.273   9.855   3.013
 3330WAT     H210233   7.431   9.826   2.985
 3331WAT      O10234   7.979   8.495   1.651
 3331WAT     H110235   8.075   8.469   1.660
 3331WAT     H210236   7.963   8.530   1.559
 3332WAT      O10237   6.036   2.689   7.355
 3332WAT     H110238   6.006   2.601   7.320
 3332WAT     H210239   6.016   2.696   7.453
 3333WAT      O10240   7.213   8.449   8.522
 3333WAT     H110241   7.161   8.367   8.500
 3333WAT     H210242   7.308   8.438   8.491
 3334WAT      O10243   1.417   8.195   8.562
 3334WAT     H110244   1.466   8.123   8.611
 3334WAT     H210245   1.476   8.275   8.552
 3335WAT      O10246   8.687   0.208   9.091
 3335WAT     H110247   8.720   0.240   9.180
 3335WAT     H210248   8.626   0.130   9.103
 3336WAT      O10249   8.564   4.732   8.156
 3336WAT     H110250   8.608   4.665   8.096
 3336WAT     H210251   8.475   4.758   8.117
 3337WAT      O10252   2.525   7.928   1.568
 3337WAT     H110253   2.609   7.971   1.601
 3337WAT     H210254   2.466   7.906   1.646
 3338WAT      O10255   4.077   1.739   9.686
 3338WAT     H110256   4.084   1.810   9.616
 3338WAT     H210257   4.148   1.753   9.755
 3339WAT      O10258   1.001   5.116   8.647
 3339WAT     H110259   1.083   5.090   8.596
 3339WAT     H210260   1.021   5.194   8.706
 3340WAT      O10261   7.120   1.880   7.237
 3340WAT     H110262   7.186   1.903   7.166
 3340WAT     H210263   7.169   1.861   7.323
 3341WAT      O10264   7.565   1.411   3.805
 3341WAT     H110265   7.640   1.459   3.759
 3341WAT     H210266   7.550   1.451   3.895
 3342WAT      O10267   2.209   8.820   1.507
 3342WAT     H110268   2.243   8.732   1.472
 3342WAT     H210269   2.112   8.830   1.485
 3343WAT      O10270   3.789   8.632   5.959
 3343WAT     H110271   3.732   8.584   5.892
 3343WAT     H210272   3.766   8.601   6.051
 3344WAT      O10273   5.219   2.824   7.269
 3344WAT     H110274   5.310   2.837   7.308
 3344WAT     H210275   5.220   2.744   7.209
 3345WAT      O10276   5.917   7.065   0.534
 3345WAT     H110277   5.915   7.012   0.618
 3345WAT     H210278   5.847   7.031   0.471
 3346WAT      O10279   2.074   2.088   1.132
 3346WAT     H110280   2.069   2.124   1.039
 3346WAT     H210281   2.078   1.988   1.129
 3347WAT      O10282   7.741   2.414   1.834
 3347WAT     H110283   7.725   2.409   1.736
 3347WAT     H210284   7.655   2.435   1.881
 3348WAT      O10285   0.813   6.438   7.952
 3348WAT     H110286   0.786   6.442   8.048
 3348WAT     H210287   0.904   6.398   7.945
 3349WAT      O10288   1.337   4.665   9.609
 3349WAT     H110289   1.320   4.677   9.707
 3349WAT     H210290   1.289   4.736   9.558
 3350WAT      O10291   0.931   4.909   0.516
 3350WAT     H110292   0.950   4.869   0.605
 3350WAT     H210293   0.989   4.988   0.501
 3351WAT      O10294   1.668   3.627   0.231
 3351WAT     H110295   1.631   3.695   0.294
 3351WAT     H210296   1.593   3.571   0.196
 3352WAT      O10297   4.934   5.875   9.882
 3352WAT     H110298   4.967   5.893   9.975
 3352WAT     H210299   4.838   5.899   9.875
 3353WAT      O10300   7.756   0.231   0.627
 3353WAT     H110301   7.852   0.241   0.653
 3353WAT     H210302   7.739   0.281   0.542
 3354WAT      O10303   4.422   5.197   1.559
 3354WAT     H110304   4.335   5.162   1.522
 3354WAT     H210305   4.498   5.161   1.505
 3355WAT      O10306   2.650   7.317   7.091
 3355WAT     H110307   2.703   7.295   7.009
 3355WAT     H210308   2.702   7.381   7.148
 3356WAT      O10309   6.361   4.712   6.356
 3356WAT     H110310   6.270   4.695   6.393
 3356WAT     H210311   6.353   4.756   6.266
 3357WAT      O10312   1.090   3.695   4.261
 3357WAT     H110313   1.064   3.791   4.270
 3357WAT     H210314   1.079   3.649   4.350
 3358WAT      O10315   0.265   7.244   0.776
 3358WAT     H110316   0.295   7.292   0.693
 3358WAT     H210317   0.222   7.158   0.750
 3359WAT      O10318   7.949   8.124   8.699
 3359WAT     H110319   7.867   8.111   8.644
 3359WAT     H210320   7.973   8.221   8.701
 3360WAT      O10321   2.641   6.985   5.907
 3360WAT     H110322   2.676   6.989   6.001
 3360WAT     H210323   2.552   7.031   5.904
 3361WAT      O10324   4.695   2.230   7.765
 3361WAT     H110325   4.670   2.302   7.700
 3361WAT     H210326   4.747   2.159   7.718
 3362WAT      O10327   3.044   1.621   2.211
 3362WAT     H110328   3.124   1.663   2.169
 3362WAT     H210329   3.039   1.524   2.185
 3363WAT      O10330   8.277   2.056   9.499
 3363WAT     H110331   8.351   2.012   9.550
 3363WAT     H210332   8.280   2.027   9.403
 3364WAT      O10333   5.116   3.963   8.076
 3364WAT     H110334   5.115   4.056   8.040
 3364WAT     H210335   5.024   3.937   8.105
 3365WAT      O10336   2.832   6.373   1.081
 3365WAT     H110337   2.745   6.366   1.032
 3365WAT     H210338   2.821   6.433   1.161
 3366WAT      O10339   0.733   5.805   0.368
 3366WAT     H110340   0.708   5.891   0.412
 3366WAT     H210341   0.700   5.806   0.273
 3367WAT      O10342   7.533   0.721   9.145
 3367WAT     H110343   7.525   0.758   9.238
 3367WAT     H210344   7.488   0.632   9.141
 3368WAT      O10345   0.689   5.308   7.897
 3368WAT     H110346   0.646   5.241   7.957
 3368WAT     H210347   0.787   5.311   7.917
 3369WAT      O10348   6.988   9.052   2.019
 3369WAT     H110349   6.972   8.974   1.960
 3369WAT     H210350   6.910   9.064   2.081
 3370WAT      O10351   1.800   6.541   2.340
 3370WAT     H110352   1.726   6.586   2.290
 3370WAT     H210353   1.888   6.579   2.312
 3371WAT      O10354   8.165   2.461   6.398
 3371WAT     H110355   8.197   2.424   6.484
 3371WAT     H210356   8.239   2.460   6.331
 3372WAT      O10357   5.700   9.042   0.676
 3372WAT     H110358   5.603   9.025   0.691
 3372WAT     H210359   5.725   9.130   0.716
 3373WAT      O10360   5.218   0.120   0.672
 3373WAT     H110361   5.184   0.212   0.689
 3373WAT     H210362   5.166   0.055   0.727
 3374WAT      O10363   7.865   4.523   3.514
 3374WAT     H110364   7.825   4.521   3.606
 3374WAT     H210365   7.942   4.459   3.509
 3375WAT      O10366   9.722   5.095   5.566
 3375WAT     H110367   9.643   5.108   5.625
 3375WAT     H210368   9.790   5.038   5.613
 3376WAT      O10369   2.153   9.591   5.492
 3376WAT     H110370   2.191   9.678   5.459
 3376WAT     H210371   2.137   9.530   5.414
 3377WAT      O10372   2.463   2.716   2.035
 3377WAT     H110373   2.460   2.737   1.938
 3377WAT     H210374   2.472   2.801   2.087
 3378WAT      O10375   3.485   7.856   9.516
 3378WAT     H110376   3.552   7.794   9.475
 3378WAT     H210377   3.423   7.890   9.445
 3379WAT      O10378   5.159   8.473   1.559
 3379WAT     H110379   5.133   8.431   1.646
 3379WAT     H210380   5.141   8.572   1.564
 3380WAT      O10381   3.258   3.294   4.780
 3380WAT     H110382   3.206   3.283   4.696
 3380WAT     H210383   3.313   3.212   4.796
 3381WAT      O10384   7.867   2.916   4.713
 3381WAT     H110385   7.868   3.014   4.694
 3381WAT     H210386   7.775   2.888   4.741
 3382WAT      O10387   5.752   2.648   8.860
 3382WAT     H110388   5.749   2.727   8.921
 3382WAT     H210389   5.813   2.667   8.783
 3383WAT      O10390   6.786   8.435   3.398
 3383WAT     H110391   6.778   8.469   3.492
 3383WAT     H210392   6.880   8.445   3.366
 3384WAT      O10393   3.925   3.866   8.758
 3384WAT     H110394   3.957   3.894   8.668
 3384WAT     H210395   3.883   3.775   8.752
 3385WAT      O10396   7.927   7.658   6.928
 3385WAT     H110397   7.897   7.721   6.999
 3385WAT     H210398   8.022   7.676   6.905
 3386WAT      O10399   3.380   1.957   8.454
 3386WAT     H110400   3.366   1.872   8.403
 3386WAT     H210401   3.459   1.947   8.515
 3387WAT      O10402   1.325   2.784   6.763
 3387WAT     H110403   1.232   2.760   6.791
 3387WAT     H210404   1.345   2.879   6.789
 3388WAT      O10405   6.119   0.344   3.771
 3388WAT     H110406   6.188   0.396   3.822
 3388WAT     H210407   6.157   0.255   3.745
 3389WAT      O10408   3.913   8.623   0.965
 3389WAT     H110409   3.948   8.704   1.012
 3389WAT     H210410   3.984   8.552   0.963
 3390WAT      O10411   5.457   4.971   6.092
 3390WAT     H110412   5.484   5.038   6.161
 3390WAT     H210413   5.392   4.906   6.132
 3391WAT      O10414   4.672   5.659   8.809
 3391WAT     H110415   4.662   5.751   8.846
 3391WAT     H210416   4.758   5.654   8.756
 3392WAT      O10417   8.570   7.701   7.905
 3392WAT     H110418   8.486   7.652   7.881
 3392WAT     H210419   8.631   7.704   7.826
 3393WAT      O10420   8.443   1.248   5.746
 3393WAT     H110421   8.389   1.178   5.699
 3393WAT     H210422   8.407   1.261   5.838
 3394WAT      O10423   4.017   8.841   4.432
 3394WAT     H110424   4.055   8.904   4.500
 3394WAT     H210425   4.026   8.880   4.341
 3395WAT      O10426   6.558   6.624   0.727
 3395WAT     H110427   6.528   6.700   0.669
 3395WAT     H210428   6.479   6.585   0.774
 3396WAT      O10429   6.269   5.720   4.874
 3396WAT     H110430   6.361   5.756   4.861
 3396WAT     H210431   6.209   5.754   4.802
 3397WAT      O10432   9.237   2.567   2.346
 3397WAT     H110433   9.222   2.493   2.412
 3397WAT     H210434   9.315   2.545   2.287
 3398WAT      O10435   2.966   8.829   3.751
 3398WAT     H110436   2.956   8.909   3.810
 3398WAT     H210437   2.973   8.746   3.808
 3399WAT      O10438   1.109   5.471   3.705
 3399WAT     H110439   1.134   5.440   3.797
 3399WAT     H210440   1.182   5.528   3.668
 3400WAT      O10441   2.789   0.630   4.989
 3400WAT     H110442   2.706   0.613   5.042
 3400WAT     H210443   2.839   0.544   4.976
 3401WAT      O10444   7.064   4.394   1.100
 3401WAT     H110445   7.164   4.390   1.108
 3401WAT     H210446   7.024   4.408   1.191
 3402WAT      O10447   3.873   2.514   8.489
 3402WAT     H110448   3.967   2.479   8.488
 3402WAT     H210449   3.811   2.442   8.457
 3403WAT      O10450   5.645   4.350   3.973
 3403WAT     H110451   5.627   4.448   3.982
 3403WAT     H210452   5.675   4.330   3.880
 3404WAT      O10453   5.779   2.308   2.096
 3404WAT     H110454   5.869   2.350   2.086
 3404WAT     H210455   5.712   2.378   2.117
 3405WAT      O10456   8.705   5.071   5.233
 3405WAT     H110457   8.626   5.093   5.176
 3405WAT     H210458   8.771   5.146   5.230
 3406WAT      O10459   6.759   7.772   1.708
 3406WAT     H110460   6.692   7.801   1.639
 3406WAT     H210461   6.844   7.746   1.662
 3407WAT      O10462   8.822   3.490   8.384
 3407WAT     H110463   8.896   3.551   8.413
 3407WAT     H210464   8.861   3.403   8.353
 3408WAT      O10465   2.375   8.431   3.198
 3408WAT     H110466   2.346   8.375   3.276
 3408WAT     H210467   2.301   8.491   3.170
 3409WAT      O10468   8.801   6.872   4.342
 3409WAT     H110469   8.862   6.795   4.360
 3409WAT     H210470   8.848   6.958   4.362
 3410WAT      O10471   3.279   0.452   1.497
 3410WAT     H110472   3.312   0.544   1.518
 3410WAT     H210473   3.323   0.420   1.413
 3411WAT      O10474   9.601   8.064   2.568
 3411WAT     H110475   9.558   8.028   2.651
 3411WAT     H210476   9.602   8.164   2.572
 3412WAT      O10477   6.967   4.280   1.675
 3412WAT     H110478   7.048   4.243   1.630
 3412WAT     H210479   6.991   4.366   1.721
 3413WAT      O10480   9.861   8.776   4.056
 3413WAT     H110481   9.871   8.775   3.957
 3413WAT     H210482   9.927   8.712   4.096
 3414WAT      O10483   1.478   2.999   4.042
 3414WAT     H110484   1.564   2.948   4.036
 3414WAT     H210485   1.403   2.944   4.004
 3415WAT      O10486   8.038   2.043   8.118
 3415WAT     H110487   8.098   2.113   8.158
 3415WAT     H210488   8.093   1.967   8.084
 3416WAT      O10489   8.273   1.292   7.800
 3416WAT     H110490   8.351   1.354   7.802
 3416WAT     H210491   8.303   1.199   7.821
 3417WAT      O10492   5.601   5.096   5.341
 3417WAT     H110493   5.527   5.035   5.314
 3417WAT     H210494   5.688   5.047   5.337
 3418WAT      O10495   6.569   0.307   3.606
 3418WAT     H110496   6.564   0.337   3.702
 3418WAT     H210497   6.627   0.370   3.555
 3419WAT      O10498   3.022   6.247   2.048
 3419WAT     H110499   2.992   6.315   1.982
 3419WAT     H210500   2.953   6.236   2.120
 3420WAT      O10501   8.814   7.642   0.250
 3420WAT     H110502   8.907   7.606   0.236
 3420WAT     H210503   8.784   7.621   0.343
 3421WAT      O10504   8.633   5.395   9.042
 3421WAT     H110505   8.689   5.395   9.125
 3421WAT     H210506   8.637   5.485   8.999
 3422WAT      O10507   2.587   9.671   7.980
 3422WAT     H110508   2.607   9.577   8.008
 3422WAT     H210509   2.494   9.694   8.007
 3423WAT      O10510   4.085   1.683   2.053
 3423WAT     H110511   4.105   1.773   2.094
 3423WAT     H210512   4.071   1.616   2.126
 3424WAT      O10513   0.764   7.290   3.390
 3424WAT     H110514   0.763   7.388   3.410
 3424WAT     H210515   0.854   7.252   3.412
 3425WAT      O10516   0.973   3.360   0.446
 3425WAT     H110517   0.899   3.417   0.483
 3425WAT     H210518   1.045   3.352   0.514
 3426WAT      O10519   2.500   7.783   8.264
 3426WAT     H110520   2.454   7.869   8.242
 3426WAT     H210521   2.574   7.767   8.198
 3427WAT      O10522   9.402   4.752   6.404
 3427WAT     H110523   9.326   4.811   6.435
 3427WAT     H210524   9.453   4.720   6.484
 3428WAT      O10525   9.611   0.859   8.348
 3428WAT     H110526   9.592   0.948   8.306
 3428WAT     H210527   9.649   0.797   8.279
 3429WAT      O10528   5.599   6.272   4.897
 3429WAT     H110529   5.607   6.249   4.994
 3429WAT     H210530   5.580   6.370   4.888
 3430WAT      O10531   2.368   1.795   1.340
 3430WAT     H110532   2.304   1.800   1.263
 3430WAT     H210533   2.365   1.882   1.391
 3431WAT      O10534   6.111   4.686   5.776
 3431WAT     H110535   6.145   4.706   5.868
 3431WAT     H210536   6.013   4.704   5.771
 3432WAT      O10537   7.982   1.424   8.450
 3432WAT     H110538   8.006   1.388   8.540
 3432WAT     H210539   8.057   1.480   8.415
 3433WAT      O10540   0.698   2.907   9.636
 3433WAT     H110541   0.724   2.851   9.715
 3433WAT     H210542   0.741   2.868   9.554
 3434WAT      O10543   8.908   3.749   8.069
 3434WAT     H110544   8.878   3.685   7.997
 3434WAT     H210545   8.934   3.697   8.150
 3435WAT      O10546   4.492   7.593   1.708
 3435WAT     H110547   4.586   7.565   1.688
 3435WAT     H210548   4.458   7.650   1.633
 3436WAT      O10549   3.717   7.492   3.519
 3436WAT     H110550   3.713   7.568   3.583
 3436WAT     H210551   3.659   7.417   3.553
 3437WAT      O10552   5.891   6.719   5.007
 3437WAT     H110553   5.856   6.633   5.045
 3437WAT     H210554   5.978   6.741   5.051
 3438WAT      O10555   1.184   4.043   8.561
 3438WAT     H110556   1.192   4.034   8.660
 3438WAT     H210557   1.195   3.954   8.518
 3439WAT      O10558   3.832   4.833   3.985
 3439WAT     H110559   3.904   4.836   3.915
 3439WAT     H210560   3.753   4.782   3.950
 3440WAT      O10561   2.233   6.224   8.820
 3440WAT     H110562   2.210   6.224   8.722
 3440WAT     H210563   2.266   6.315   8.846
 3441WAT      O10564   0.228   7.785   4.059
 3441WAT     H110565   0.305   7.847   4.074
 3441WAT     H210566   0.238   7.738   3.971
 3442WAT      O10567   0.457   5.286   5.121
 3442WAT     H110568   0.469   5.360   5.188
 3442WAT     H210569   0.379   5.230   5.148
 3443WAT      O10570   6.050   5.110   3.372
 3443WAT     H110571   5.956   5.136   3.353
 3443WAT     H210572   6.111   5.151   3.305
 3444WAT      O10573   2.774   2.389   2.981
 3444WAT     H110574   2.821   2.373   3.067
 3444WAT     H210575   2.841   2.414   2.911
 3445WAT      O10576   0.308   9.085   0.167
 3445WAT     H110577   0.361   9.160   0.127
 3445WAT     H210578   0.307   9.094   0.267
 3446WAT      O10579   4.070   2.516   5.536
 3446WAT     H110580   4.150   2.562   5.497
 3446WAT     H210581   4.076   2.517   5.636
 3447WAT      O10582   5.896   0.844   6.942
 3447WAT     H110583   5.830   0.896   6.889
 3447WAT     H210584   5.885   0.746   6.922
 3448WAT      O10585   0.389   6.313   8.974
 3448WAT     H110586   0.393   6.219   9.007
 3448WAT     H210587   0.460   6.327   8.905
 3449WAT      O10588   1.040   6.527   4.224
 3449WAT     H110589   1.076   6.503   4.314
 3449WAT     H210590   0.960   6.587   4.234
 3450WAT      O10591   2.819   1.392   6.250
 3450WAT     H110592   2.812   1.483   6.209
 3450WAT     H210593   2.814   1.399   6.349
 3451WAT      O10594   1.216   0.365   1.703
 3451WAT     H110595   1.298   0.420   1.714
 3451WAT     H210596   1.179   0.378   1.611
 3452WAT      O10597   5.235   5.460   5.218
 3452WAT     H110598   5.177   5.541   5.208
 3452WAT     H210599   5.177   5.380   5.237
 3453WAT      O10600   3.650   2.828   4.543
 3453WAT     H110601   3.698   2.810   4.629
 3453WAT     H210602   3.555   2.854   4.562
 3454WAT      O10603   6.527   4.623   8.805
 3454WAT     H110604   6.592   4.627   8.730
 3454WAT     H210605   6.443   4.672   8.780
 3455WAT      O10606   0.300   1.210   8.427
 3455WAT     H110607   0.341   1.199   8.337
 3455WAT     H210608   0.345   1.148   8.492
 3456WAT      O10609   4.640   8.528   3.050
 3456WAT     H110610   4.659   8.605   2.989
 3456WAT     H210611   4.542   8.528   3.073
 3457WAT      O10612   6.737   3.146   6.665
 3457WAT     H110613   6.642   3.120   6.679
 3457WAT     H210614   6.783   3.149   6.754
 3458WAT      O10615   7.190   0.618   4.830
 3458WAT     H110616   7.208   0.716   4.826
 3458WAT     H210617   7.106   0.598   4.780
 3459WAT      O10618   8.120   6.084   8.716
 3459WAT     H110619   8.197   6.114   8.771
 3459WAT     H210620   8.052   6.157   8.710
 3460WAT      O10621   9.144   2.677   9.235
 3460WAT     H110622   9.239   2.653   9.213
 3460WAT     H210623   9.105   2.730   9.159
 3461WAT      O10624   2.159   1.472   1.154
 3461WAT     H110625   2.145   1.415   1.235
 3461WAT     H210626   2.240   1.441   1.105
 3462WAT      O10627   3.806   2.408   6.601
 3462WAT     H110628   3.838   2.346   6.673
 3462WAT     H210629   3.715   2.442   6.625
 3463WAT      O10630   3.395   3.653   2.496
 3463WAT     H110631   3.449   3.695   2.569
 3463WAT     H210632   3.351   3.725   2.442
 3464WAT      O10633   1.649   9.160   4.801
 3464WAT     H110634   1.611   9.244   4.839
 3464WAT     H210635   1.691   9.106   4.874
 3465WAT      O10636   7.644   8.364   0.094
 3465WAT     H110637   7.741   8.353   0.116
 3465WAT     H210638   7.589   8.336   0.173
 3466WAT      O10639   7.310   9.221   9.322
 3466WAT     H110640   7.386   9.230   9.257
 3466WAT     H210641   7.235   9.170   9.280
 3467WAT      O10642   2.358   8.589   1.377
 3467WAT     H110643   2.394   8.648   1.305
 3467WAT     H210644   2.389   8.495   1.362
 3468WAT      O10645   4.546   9.420   6.820
 3468WAT     H110646   4.614   9.445   6.888
 3468WAT     H210647   4.574   9.335   6.775
 3469WAT      O10648   3.896   2.784   1.269
 3469WAT     H110649   3.908   2.878   1.300
 3469WAT     H210650   3.976   2.756   1.216
 3470WAT      O10651   3.571   0.933   7.454
 3470WAT     H110652   3.513   0.992   7.397
 3470WAT     H210653   3.649   0.986   7.488
 3471WAT      O10654   4.031   5.183   8.522
 3471WAT     H110655   3.943   5.213   8.557
 3471WAT     H210656   4.094   5.260   8.518
 3472WAT      O10657   2.008   5.101   8.370
 3472WAT     H110658   2.039   5.196   8.360
 3472WAT     H210659   1.960   5.092   8.457
 3473WAT      O10660   5.203   5.080   3.841
 3473WAT     H110661   5.235   5.072   3.935
 3473WAT     H210662   5.223   4.995   3.792
 3474WAT      O10663   1.796   2.370   5.237
 3474WAT     H110664   1.890   2.392   5.209
 3474WAT     H210665   1.777   2.412   5.325
 3475WAT      O10666   1.464   3.569   7.082
 3475WAT     H110667   1.395   3.518   7.134
 3475WAT     H210668   1.555   3.541   7.112
 3476WAT      O10669   8.948   8.176   2.316
 3476WAT     H110670   8.988   8.113   2.250
 3476WAT     H210671   9.015   8.246   2.340
 3477WAT      O10672   9.217   6.014   7.836
 3477WAT     H110673   9.309   6.011   7.796
 3477WAT     H210674   9.192   6.109   7.855
 3478WAT      O10675   4.668   7.876   7.995
 3478WAT     H110676   4.760   7.862   8.032
 3478WAT     H210677   4.630   7.788   7.965
 3479WAT      O10678   0.027   0.471   7.467
 3479WAT     H110679   0.115   0.422   7.471
 3479WAT     H210680   0.043   0.567   7.444
 3480WAT      O10681   8.484   3.446   3.665
 3480WAT     H110682   8.436   3.359   3.656
 3480WAT     H210683   8.481   3.476   3.761
 3481WAT      O10684   3.083   9.712   5.277
 3481WAT     H110685   3.037   9.651   5.212
 3481WAT     H210686   3.015   9.752   5.338
 3482WAT      O10687   6.272   3.481   6.664
 3482WAT     H110688   6.179   3.514   6.676
 3482WAT     H210689   6.294   3.478   6.566
 3483WAT      O10690   5.403   7.962   2.142
 3483WAT     H110691   5.417   7.982   2.046
 3483WAT     H210692   5.310   7.988   2.168
 3484WAT      O10693   5.469   1.628   4.747
 3484WAT     H110694   5.403   1.659   4.816
 3484WAT     H210695   5.548   1.689   4.748
 3485WAT      O10696   0.113   3.002   3.916
 3485WAT     H110697   0.158   3.064   3.980
 3485WAT     H210698   0.125   3.036   3.822
 3486WAT      O10699   0.703   6.999   5.639
 3486WAT     H110700   0.774   7.018   5.706
 3486WAT     H210701   0.624   7.059   5.655
 3487WAT      O10702   2.893   0.700   4.612
 3487WAT     H110703   2.796   0.723   4.623
 3487WAT     H210704   2.947   0.755   4.676
 3488WAT      O10705   6.296   5.802   6.587
 3488WAT     H110706   6.227   5.874   6.585
 3488WAT     H210707   6.383   5.838   6.552
 3489WAT      O10708   2.548   7.078   7.162
 3489WAT     H110709   2.617   7.006   7.169
 3489WAT     H210710   2.592   7.167   7.176
 3490WAT      O10711   8.601   4.285   2.102
 3490WAT     H110712   8.601   4.376   2.059
 3490WAT     H210713   8.653   4.222   2.045
 3491WAT      O10714   0.572   4.047   5.440
 3491WAT     H110715   0.638   4.122   5.439
 3491WAT     H210716   0.588   3.987   5.362
 3492WAT      O10717   1.002   2.747   4.254
 3492WAT     H110718   1.012   2.657   4.296
 3492WAT     H210719   0.998   2.737   4.155
 3493WAT      O10720   1.780   1.285   5.461
 3493WAT     H110721   1.799   1.377   5.494
 3493WAT     H210722   1.863   1.229   5.467
 3494WAT      O10723   8.069   9.823   1.687
 3494WAT     H110724   8.161   9.785   1.698
 3494WAT     H210725   8.071   9.896   1.618
 3495WAT      O10726   2.742   2.571   1.280
 3495WAT     H110727   2.733   2.523   1.193
 3495WAT     H210728   2.664   2.548   1.339
 3496WAT      O10729   2.919   6.277   8.414
 3496WAT     H110730   2.879   6.185   8.404
 3496WAT     H210731   2.974   6.280   8.498
 3497WAT      O10732   4.905   0.113   6.645
 3497WAT     H110733   4.871   0.070   6.561
 3497WAT     H210734   4.845   0.188   6.671
 3498WAT      O10735   7.777   2.410   1.202
 3498WAT     H110736   7.678   2.410   1.211
 3498WAT     H210737   7.816   2.336   1.257
 3499WAT      O10738   9.812   0.623   3.925
 3499WAT     H110739   9.842   0.528   3.922
 3499WAT     H210740   9.892   0.683   3.931
 3500WAT      O10741   3.905   8.778   8.046
 3500WAT     H110742   3.974   8.714   8.081
 3500WAT     H210743   3.840   8.728   7.987
 3501WAT      O10744   4.776   7.024   7.179
 3501WAT     H110745   4.848   6.970   7.224
 3501WAT     H210746   4.792   7.025   7.081
 3502WAT      O10747   2.263   2.364   1.654
 3502WAT     H110748   2.214   2.451   1.653
 3502WAT     H210749   2.292   2.341   1.562
 3503WAT      O10750   4.455   0.808   5.326
 3503WAT     H110751   4.458   0.773   5.233
 3503WAT     H210752   4.424   0.736   5.388
 3504WAT      O10753   0.243   7.680   9.025
 3504WAT     H110754   0.198   7.747   9.083
 3504WAT     H210755   0.272   7.725   8.940
 3505WAT      O10756   9.466   7.413   8.916
 3505WAT     H110757   9.546   7.415   8.975
 3505WAT     H210758   9.393   7.468   8.956
 3506WAT      O10759   3.118   8.434   5.152
 3506WAT     H110760   3.161   8.523   5.143
 3506WAT     H210761   3.184   8.368   5.188
 3507WAT      O10762   3.198   8.648   2.415
 3507WAT     H110763   3.262   8.624   2.488
 3507WAT     H210764   3.249   8.687   2.338
 3508WAT      O10765   3.867   9.782   5.348
 3508WAT     H110766   3.858   9.869   5.395
 3508WAT     H210767   3.777   9.737   5.344
 3509WAT      O10768   4.504   3.380   3.154
 3509WAT     H110769   4.590   3.349   3.193
 3509WAT     H210770   4.483   3.471   3.187
 3510WAT      O10771   7.421   5.940   9.139
 3510WAT     H110772   7.445   5.885   9.220
 3510WAT     H210773   7.412   5.881   9.060
 3511WAT      O10774   6.491   9.032   5.417
 3511WAT     H110775   6.454   9.019   5.510
 3511WAT     H210776   6.578   9.081   5.423
 3512WAT      O10777   9.849   3.685   2.464
 3512WAT     H110778   9.865   3.784   2.470
 3512WAT     H210779   9.787   3.657   2.537
 3513WAT      O10780   7.169   4.350   0.815
 3513WAT     H110781   7.128   4.382   0.900
 3513WAT     H210782   7.267   4.340   0.826
 3514WAT      O10783   8.526   5.664   0.482
 3514WAT     H110784   8.586   5.712   0.547
 3514WAT     H210785   8.445   5.720   0.465
 3515WAT      O10786   0.609   8.265   9.756
 3515WAT     H110787   0.564   8.176   9.745
 3515WAT     H210788   0.549   8.328   9.805
 3516WAT      O10789   0.205   6.770   4.224
 3516WAT     H110790   0.149   6.793   4.145
 3516WAT     H210791   0.187   6.836   4.297
 3517WAT      O10792   3.984   7.134   3.031
 3517WAT     H110793   3.911   7.181   2.982
 3517WAT     H210794   4.059   7.113   2.967
 3518WAT      O10795   8.191   8.729   1.280
 3518WAT     H110796   8.290   8.729   1.290
 3518WAT     H210797   8.166   8.681   1.196
 3519WAT      O10798   3.061   4.890   7.238
 3519WAT     H110799   2.972   4.852   7.216
 3519WAT     H210800   3.069   4.902   7.337
 3520WAT      O10801   5.188   9.747   0.184
 3520WAT     H110802   5.206   9.662   0.134
 3520WAT     H210803   5.225   9.824   0.133
 3521WAT      O10804   3.797   7.326   7.499
 3521WAT     H110805   3.875   7.288   7.550
 3521WAT     H210806   3.829   7.395   7.435
 3522WAT      O10807   8.974   9.003   0.826
 3522WAT     H110808   9.035   8.941   0.874
 3522WAT     H210809   8.880   8.970   0.833
 3523WAT      O10810   3.397   0.329   9.317
 3523WAT     H110811   3.380   0.310   9.220
 3523WAT     H210812   3.481   0.382   9.326
 3524WAT      O10813   1.920   8.143   2.039
 3524WAT     H110814   1.976   8.069   2.078
 3524WAT     H210815   1.849   8.170   2.104
 3525WAT      O10816   7.056   4.942   0.629
 3525WAT     H110817   7.110   4.905   0.554
 3525WAT     H210818   7.025   4.867   0.688
 3526WAT      O10819   3.235   5.526   1.115
 3526WAT     H110820   3.331   5.552   1.126
 3526WAT     H210821   3.179   5.609   1.105
 3527WAT      O10822   2.849   6.691   3.925
 3527WAT     H110823   2.831   6.612   3.983
 3527WAT     H210824   2.887   6.765   3.981
 3528WAT      O10825   8.559   4.633   6.360
 3528WAT     H110826   8.583   4.619   6.264
 3528WAT     H210827   8.462   4.613   6.374
 3529WAT      O10828   5.054   1.601   0.851
 3529WAT     H110829   5.003   1.686   0.841
 3529WAT     H210830   4.998   1.524   0.820
 3530WAT      O10831   8.601   1.904   2.731
 3530WAT     H110832   8.526   1.969   2.723
 3530WAT     H210833   8.681   1.939   2.682
 3531WAT      O10834   2.431   2.267   3.580
 3531WAT     H110835   2.498   2.293   3.650
 3531WAT     H210836   2.478   2.252   3.493
 3532WAT      O10837   6.517   9.728   5.414
 3532WAT     H110838   6.430   9.732   5.365
 3532WAT     H210839   6.530   9.636   5.453
 3533WAT      O10840   8.254   0.964   3.489
 3533WAT     H110841   8.314   0.932   3.416
 3533WAT     H210842   8.246   0.893   3.559
 3534WAT      O10843   4.857   6.374   1.052
 3534WAT     H110844   4.956   6.379   1.039
 3534WAT     H210845   4.835   6.378   1.149
 3535WAT      O10846   7.413   7.340   6.646
 3535WAT     H110847   7.348   7.394   6.594
 3535WAT     H210848   7.485   7.399   6.682
 3536WAT      O10849   6.795   6.738   5.476
 3536WAT     H110850   6.858   6.673   5.518
 3536WAT     H210851   6.838   6.780   5.396
 3537WAT      O10852   7.313   7.537   9.537
 3537WAT     H110853   7.345   7.443   9.532
 3537WAT     H210854   7.227   7.545   9.485
 3538WAT      O10855   5.267   3.092   2.244
 3538WAT     H110856   5.185   3.091   2.302
 3538WAT     H210857   5.326   3.168   2.271
 3539WAT      O10858   0.666   5.106   0.607
 3539WAT     H110859   0.740   5.170   0.587
 3539WAT     H210860   0.578   5.151   0.590
 3540WAT      O10861   6.706   9.016   3.515
 3540WAT     H110862   6.772   8.969   3.573
 3540WAT     H210863   6.683   8.959   3.436
 3541WAT      O10864   6.565   6.975   9.214
 3541WAT     H110865   6.609   6.888   9.194
 3541WAT     H210866   6.545   6.980   9.312
 3542WAT      O10867   5.788   1.253   8.759
 3542WAT     H110868   5.737   1.256   8.673
 3542WAT     H210869   5.751   1.321   8.822
 3543WAT      O10870   8.458   5.486   4.624
 3543WAT     H110871   8.532   5.537   4.668
 3543WAT     H210872   8.391   5.458   4.693
 3544WAT      O10873   8.394   2.131   1.708
 3544WAT     H110874   8.295   2.127   1.693
 3544WAT     H210875   8.433   2.040   1.698
 3545WAT      O10876   9.140   8.796   0.059
 3545WAT     H110877   9.101   8.795  -0.034
 3545WAT     H210878   9.214   8.862   0.063
 3546WAT      O10879   4.011   9.422   1.500
 3546WAT     H110880   3.948   9.346   1.482
 3546WAT     H210881   4.083   9.423   1.431
 3547WAT      O10882   6.233   6.752   5.360
 3547WAT     H110883   6.171   6.793   5.294
 3547WAT     H210884   6.254   6.817   5.433
 3548WAT      O10885   7.025   1.669   6.623
 3548WAT     H110886   6.991   1.654   6.530
 3548WAT     H210887   7.051   1.765   6.634
 3549WAT      O10888   7.183   9.151   8.819
 3549WAT     H110889   7.207   9.056   8.797
 3549WAT     H210890   7.259   9.194   8.869
 3550WAT      O10891   1.502   8.234   3.490
 3550WAT     H110892   1.532   8.208   3.582
 3550WAT     H210893   1.578   8.227   3.426
 3551WAT      O10894   1.655   5.985   5.737
 3551WAT     H110895   1.664   5.973   5.835
 3551WAT     H210896   1.558   5.987   5.712
 3552WAT      O10897   9.209   2.313   3.747
 3552WAT     H110898   9.165   2.288   3.661
 3552WAT     H210899   9.152   2.285   3.823
 3553WAT      O10900   4.660   1.653   4.641
 3553WAT     H110901   4.749   1.626   4.677
 3553WAT     H210902   4.597   1.669   4.717
 3554WAT      O10903   1.710   3.541   3.010
 3554WAT     H110904   1.621   3.557   3.053
 3554WAT     H210905   1.721   3.603   2.932
 3555WAT      O10906   7.890   6.832   1.498
 3555WAT     H110907   7.950   6.889   1.554
 3555WAT     H210908   7.795   6.857   1.515
 3556WAT      O10909   5.215   6.947   7.683
 3556WAT     H110910   5.219   6.879   7.756
 3556WAT     H210911   5.306   6.960   7.644
 3557WAT      O10912   3.186   9.407   7.283
 3557WAT     H110913   3.091   9.413   7.250
 3557WAT     H210914   3.248   9.407   7.205
 3558WAT      O10915   2.988   0.280   3.940
 3558WAT     H110916   3.062   0.295   3.875
 3558WAT     H210917   3.026   0.252   4.028
 3559WAT      O10918   1.407   2.150   9.757
 3559WAT     H110919   1.491   2.175   9.710
 3559WAT     H210920   1.354   2.089   9.698
 3560WAT      O10921   8.714   0.267   2.654
 3560WAT     H110922   8.720   0.168   2.642
 3560WAT     H210923   8.805   0.306   2.655
 3561WAT      O10924   0.085   4.767   8.137
 3561WAT     H110925   0.104   4.863   8.118
 3561WAT     H210926   0.013   4.761   8.206
 3562WAT      O10927   5.183   5.775   2.936
 3562WAT     H110928   5.231   5.791   3.022
 3562WAT     H210929   5.249   5.765   2.862
 3563WAT      O10930   3.382   2.366   1.735
 3563WAT     H110931   3.375   2.410   1.825
 3563WAT     H210932   3.383   2.437   1.664
 3564WAT      O10933   0.839   1.915   1.882
 3564WAT     H110934   0.883   2.000   1.912
 3564WAT     H210935   0.827   1.918   1.782
 3565WAT      O10936   2.750   6.576   7.217
 3565WAT     H110937   2.655   6.547   7.209
 3565WAT     H210938   2.810   6.505   7.180
 3566WAT      O10939   8.681   4.354   2.566
 3566WAT     H110940   8.635   4.337   2.479
 3566WAT     H210941   8.746   4.429   2.556
 3567WAT      O10942   0.353   7.451   4.882
 3567WAT     H110943   0.434   7.400   4.909
 3567WAT     H210944   0.359   7.545   4.916
 3568WAT      O10945   7.127   5.658   3.453
 3568WAT     H110946   7.139   5.559   3.464
 3568WAT     H210947   7.082   5.695   3.534
 3569WAT      O10948   8.071   9.627   0.612
 3569WAT     H110949   7.996   9.675   0.657
 3569WAT     H210950   8.075   9.533   0.646
 3570WAT      O10951   4.101   2.743   5.730
 3570WAT     H110952   4.025   2.722   5.792
 3570WAT     H210953   4.187   2.719   5.774
 3571WAT      O10954   7.780   6.850   2.808
 3571WAT     H110955   7.778   6.803   2.897
 3571WAT     H210956   7.704   6.819   2.752
 3572WAT      O10957   2.940   5.767   7.973
 3572WAT     H110958   2.975   5.860   7.968
 3572WAT     H210959   3.016   5.702   7.966
 3573WAT      O10960   2.628   9.779   0.530
 3573WAT     H110961   2.624   9.824   0.619
 3573WAT     H210962   2.714   9.728   0.522
 3574WAT      O10963   8.783   5.689   4.349
 3574WAT     H110964   8.804   5.755   4.421
 3574WAT     H210965   8.746   5.606   4.389
 3575WAT      O10966   0.756   0.676   9.404
 3575WAT     H110967   0.809   0.749   9.448
 3575WAT     H210968   0.676   0.716   9.359
 3576WAT      O10969   1.480   9.319   1.008
 3576WAT     H110970   1.470   9.261   1.090
 3576WAT     H210971   1.563   9.293   0.959
 3577WAT      O10972   4.645   6.338   9.276
 3577WAT     H110973   4.693   6.382   9.199
 3577WAT     H210974   4.556   6.381   9.288
 3578WAT      O10975   5.812   4.857   2.842
 3578WAT     H110976   5.831   4.873   2.745
 3578WAT     H210977   5.844   4.765   2.867
 3579WAT      O10978   4.411   1.870   9.674
 3579WAT     H110979   4.385   1.829   9.587
 3579WAT     H210980   4.362   1.824   9.749
 3580WAT      O10981   3.242   2.829   8.325
 3580WAT     H110982   3.144   2.843   8.307
 3580WAT     H210983   3.262   2.731   8.327
 3581WAT      O10984   6.088   8.704   7.504
 3581WAT     H110985   6.099   8.803   7.503
 3581WAT     H210986   6.078   8.671   7.410
 3582WAT      O10987   6.235   6.386   8.071
 3582WAT     H110988   6.170   6.315   8.098
 3582WAT     H210989   6.212   6.471   8.117
 3583WAT      O10990   4.786   4.952   2.896
 3583WAT     H110991   4.835   4.880   2.846
 3583WAT     H210992   4.843   4.988   2.969
 3584WAT      O10993   0.857   6.966   3.385
 3584WAT     H110994   0.885   7.047   3.333
 3584WAT     H210995   0.765   6.938   3.357
 3585WAT      O10996   0.885   8.866   9.562
 3585WAT     H110997   0.897   8.952   9.611
 3585WAT     H210998   0.868   8.792   9.626
 3586WAT      O10999   1.435   5.380   7.604
 3586WAT     H111000   1.397   5.304   7.551
 3586WAT     H211001   1.500   5.432   7.547
 3587WAT      O11002   6.591   1.297   7.041
 3587WAT     H111003   6.645   1.302   7.126
 3587WAT     H211004   6.634   1.354   6.971
 3588WAT      O11005   5.453   8.437   1.950
 3588WAT     H111006   5.390   8.408   2.022
 3588WAT     H211007   5.409   8.504   1.891
 3589WAT      O11008   4.705   8.513   8.820
 3589WAT     H111009   4.716   8.422   8.860
 3589WAT     H211010   4.670   8.576   8.890
 3590WAT      O11011   0.521   7.462   7.867
 3590WAT     H111012   0.462   7.383   7.881
 3590WAT     H211013   0.506   7.499   7.775
 3591WAT      O11014   2.951   5.407   0.601
 3591WAT     H111015   3.021   5.360   0.548
 3591WAT     H211016   2.871   5.348   0.612
 3592WAT      O11017   1.569   5.518   7.406
 3592WAT     H111018   1.668   5.527   7.396
 3592WAT     H211019   1.522   5.585   7.349
 3593WAT      O11020   4.085   8.592   8.176
 3593WAT     H111021   4.127   8.532   8.108
 3593WAT     H211022   4.008   8.544   8.219
 3594WAT      O11023   9.667   5.965   3.624
 3594WAT     H111024   9.760   5.994   3.647
 3594WAT     H211025   9.632   6.023   3.550
 3595WAT      O11026   5.937   8.764   0.907
 3595WAT     H111027   6.017   8.718   0.944
 3595WAT     H211028   5.898   8.708   0.833
 3596WAT      O11029   4.718   9.310   6.211
 3596WAT     H111030   4.699   9.337   6.116
 3596WAT     H211031   4.805   9.262   6.215
 3597WAT      O11032   4.996   8.463   9.818
 3597WAT     H111033   5.085   8.507   9.829
 3597WAT     H211034   4.987   8.390   9.886
 3598WAT      O11035   2.322   2.154   4.066
 3598WAT     H111036   2.332   2.058   4.040
 3598WAT     H211037   2.397   2.207   4.027
 3599WAT      O11038   9.773   0.508   0.664
 3599WAT     H111039   9.742   0.527   0.757
 3599WAT     H211040   9.872   0.491   0.665
 3600WAT      O11041   0.436   7.109   5.234
 3600WAT     H111042   0.499   7.185   5.248
 3600WAT     H211043   0.350   7.128   5.282
 3601WAT      O11044   9.573   2.918   6.560
 3601WAT     H111045   9.588   3.015   6.541
 3601WAT     H211046   9.636   2.887   6.631
 3602WAT      O11047   6.789   3.053   6.372
 3602WAT     H111048   6.744   3.072   6.459
 3602WAT     H211049   6.746   2.974   6.329
 3603WAT      O11050   2.690   3.469   7.068
 3603WAT     H111051   2.756   3.496   6.997
 3603WAT     H211052   2.652   3.379   7.045
 3604WAT      O11053   8.635   8.517   1.292
 3604WAT     H111054   8.637   8.446   1.362
 3604WAT     H211055   8.727   8.555   1.280
 3605WAT      O11056   7.571   4.946   3.407
 3605WAT     H111057   7.579   5.017   3.476
 3605WAT     H211058   7.637   4.873   3.428
 3606WAT      O11059   4.463   4.928   6.346
 3606WAT     H111060   4.394   4.865   6.310
 3606WAT     H211061   4.485   4.997   6.277
 3607WAT      O11062   1.479   5.698   2.847
 3607WAT     H111063   1.434   5.617   2.809
 3607WAT     H211064   1.439   5.719   2.936
 3608WAT      O11065   8.561   2.893   1.193
 3608WAT     H111066   8.524   2.888   1.100
 3608WAT     H211067   8.547   2.985   1.230
 3609WAT      O11068   4.346   3.401   9.194
 3609WAT     H111069   4.262   3.444   9.159
 3609WAT     H211070   4.409   3.386   9.118
 3610WAT      O11071   2.650   7.796   4.613
 3610WAT     H111072   2.665   7.846   4.699
 3610WAT     H211073   2.658   7.698   4.630
 3611WAT      O11074   5.370   7.178   4.149
 3611WAT     H111075   5.379   7.110   4.076
 3611WAT     H211076   5.274   7.205   4.158
 3612WAT      O11077   2.577   9.562   4.506
 3612WAT     H111078   2.649   9.586   4.441
 3612WAT     H211079   2.511   9.637   4.511
 3613WAT      O11080   6.980   5.655   7.587
 3613WAT     H111081   7.061   5.632   7.641
 3613WAT     H211082   6.991   5.620   7.494
 3614WAT      O11083   4.525   2.783   4.138
 3614WAT     H111084   4.547   2.692   4.102
 3614WAT     H211085   4.517   2.848   4.063
 3615WAT      O11086   3.225   7.448   7.055
 3615WAT     H111087   3.165   7.453   7.135
 3615WAT     H211088   3.170   7.435   6.973
 3616WAT      O11089   7.154   9.677   0.498
 3616WAT     H111090   7.163   9.720   0.588
 3616WAT     H211091   7.238   9.628   0.476
 3617WAT      O11092   2.723   1.078   4.665
 3617WAT     H111093   2.812   1.033   4.665
 3617WAT     H211094   2.723   1.152   4.598
 3618WAT      O11095   2.709   5.013   0.811
 3618WAT     H111096   2.666   4.962   0.885
 3618WAT     H211097   2.773   4.953   0.762
 3619WAT      O11098   3.631   6.602   7.473
 3619WAT     H111099   3.562   6.654   7.425
 3619WAT     H211100   3.691   6.664   7.524
 3620WAT      O11101   2.942   0.413   4.677
 3620WAT     H111102   2.914   0.508   4.667
 3620WAT     H211103   2.862   0.353   4.670
 3621WAT      O11104   5.071   8.939   0.803
 3621WAT     H111105   5.019   8.897   0.877
 3621WAT     H211106   5.168   8.938   0.826
 3622WAT      O11107   9.711   4.669   3.356
 3622WAT     H111108   9.735   4.734   3.428
 3622WAT     H211109   9.661   4.716   3.284
 3623WAT      O11110   9.481   3.689   5.495
 3623WAT     H111111   9.425   3.621   5.448
 3623WAT     H211112   9.477   3.673   5.594
 3624WAT      O11113   9.333   8.224   3.285
 3624WAT     H111114   9.278   8.223   3.201
 3624WAT     H211115   9.414   8.168   3.273
 3625WAT      O11116   8.395   2.531   1.871
 3625WAT     H111117   8.384   2.432   1.887
 3625WAT     H211118   8.489   2.557   1.889
 3626WAT      O11119   2.972   2.710   1.577
 3626WAT     H111120   2.910   2.633   1.564
 3626WAT     H211121   3.057   2.678   1.618
 3627WAT      O11122   1.264   3.454   6.241
 3627WAT     H111123   1.184   3.409   6.201
 3627WAT     H211124   1.307   3.394   6.308
 3628WAT      O11125   7.179   6.495   1.808
 3628WAT     H111126   7.130   6.578   1.835
 3628WAT     H211127   7.113   6.426   1.780
 3629WAT      O11128   9.211   4.752   8.111
 3629WAT     H111129   9.132   4.814   8.105
 3629WAT     H211130   9.248   4.737   8.020
 3630WAT      O11131   7.225   4.956   7.895
 3630WAT     H111132   7.208   5.053   7.916
 3630WAT     H211133   7.321   4.943   7.873
 3631WAT      O11134   5.197   5.461   0.439
 3631WAT     H111135   5.242   5.379   0.402
 3631WAT     H211136   5.120   5.485   0.380
 3632WAT      O11137   3.244   2.947   3.020
 3632WAT     H111138   3.234   2.914   3.115
 3632WAT     H211139   3.299   2.881   2.968
 3633WAT      O11140   9.404   3.955   0.688
 3633WAT     H111141   9.373   3.974   0.595
 3633WAT     H211142   9.456   4.034   0.722
 3634WAT      O11143   5.244   9.672   9.763
 3634WAT     H111144   5.333   9.712   9.740
 3634WAT     H211145   5.175   9.707   9.700
 3635WAT      O11146   4.997   8.022   7.314
 3635WAT     H111147   5.096   8.039   7.309
 3635WAT     H211148   4.981   7.926   7.337
 3636WAT      O11149   4.038   0.767   0.253
 3636WAT     H111150   4.038   0.738   0.158
 3636WAT     H211151   3.982   0.705   0.307
 3637WAT      O11152   5.668   9.284   7.153
 3637WAT     H111153   5.621   9.212   7.204
 3637WAT     H211154   5.654   9.372   7.199
 3638WAT      O11155   0.202   3.704   0.823
 3638WAT     H111156   0.263   3.631   0.854
 3638WAT     H211157   0.255   3.788   0.810
 3639WAT      O11158   2.382   3.439   6.038
 3639WAT     H111159   2.427   3.523   6.067
 3639WAT     H211160   2.435   3.360   6.071
 3640WAT      O11161   3.694   7.951   8.279
 3640WAT     H111162   3.594   7.946   8.279
 3640WAT     H211163   3.725   7.994   8.194
 3641WAT      O11164   2.577   1.722   0.424
 3641WAT     H111165   2.520   1.678   0.493
 3641WAT     H211166   2.539   1.703   0.333
 3642WAT      O11167   5.364   9.022   6.990
 3642WAT     H111168   5.402   9.086   6.924
 3642WAT     H211169   5.312   8.951   6.942
 3643WAT      O11170   6.046   0.415   9.306
 3643WAT     H111171   5.990   0.425   9.388
 3643WAT     H211172   6.130   0.467   9.317
 3644WAT      O11173   5.789   8.760   8.488
 3644WAT     H111174   5.889   8.753   8.489
 3644WAT     H211175   5.750   8.671   8.464
 3645WAT      O11176   2.113   0.004   1.454
 3645WAT     H111177   2.034   0.044   1.500
 3645WAT     H211178   2.121   0.043   1.362
 3646WAT      O11179   6.910   7.961   4.979
 3646WAT     H111180   6.947   8.008   5.059
 3646WAT     H211181   6.880   8.029   4.911
 3647WAT      O11182   3.008   5.137   7.608
 3647WAT     H111183   3.062   5.221   7.598
 3647WAT     H211184   3.021   5.100   7.699
 3648WAT      O11185   0.494   1.609   6.275
 3648WAT     H111186   0.419   1.622   6.339
 3648WAT     H211187   0.568   1.673   6.297
 3649WAT      O11188   8.145   2.303   7.786
 3649WAT     H111189   8.237   2.293   7.747
 3649WAT     H211190   8.113   2.213   7.817
 3650WAT      O11191   8.042   6.858   5.300
 3650WAT     H111192   8.134   6.896   5.289
 3650WAT     H211193   8.045   6.777   5.358
 3651WAT      O11194   1.688   3.558   8.052
 3651WAT     H111195   1.783   3.583   8.076
 3651WAT     H211196   1.629   3.637   8.068
 3652WAT      O11197   2.149   8.378   0.475
 3652WAT     H111198   2.233   8.323   0.481
 3652WAT     H211199   2.172   8.475   0.485
 3653WAT      O11200   0.972   6.507   3.762
 3653WAT     H111201   0.930   6.591   3.797
 3653WAT     H211202   1.036   6.471   3.829
 3654WAT      O11203   7.820   9.639   0.056
 3654WAT     H111204   7.856   9.615  -0.033
 3654WAT     H211205   7.856   9.577   0.126
 3655WAT      O11206   9.636   3.765   6.424
 3655WAT     H111207   9.610   3.805   6.336
 3655WAT     H211208   9.684   3.679   6.409
 3656WAT      O11209   1.587   2.980   8.358
 3656WAT     H111210   1.638   2.946   8.278
 3656WAT     H211211   1.586   2.909   8.429
 3657WAT      O11212   3.948   6.684   0.215
 3657WAT     H111213   3.938   6.693   0.314
 3657WAT     H211214   3.945   6.775   0.173
 3658WAT      O11215   7.770   3.887   7.627
 3658WAT     H111216   7.741   3.800   7.588
 3658WAT     H211217   7.703   3.916   7.695
 3659WAT      O11218   2.353   7.520   2.181
 3659WAT     H111219   2.299   7.491   2.260
 3659WAT     H211220   2.306   7.492   2.097
 3660WAT      O11221   2.592   4.810   0.465
 3660WAT     H111222   2.535   4.764   0.533
 3660WAT     H211223   2.537   4.876   0.414
 3661WAT      O11224   6.587   7.709   9.736
 3661WAT     H111225   6.638   7.634   9.695
 3661WAT     H211226   6.523   7.745   9.668
 3662WAT      O11227   9.558   2.954   9.694
 3662WAT     H111228   9.645   2.906   9.690
 3662WAT     H211229   9.488   2.894   9.733
 3663WAT      O11230   1.752   6.688   0.265
 3663WAT     H111231   1.850   6.690   0.282
 3663WAT     H211232   1.723   6.593   0.249
 3664WAT      O11233   2.696   0.314   5.930
 3664WAT     H111234   2.675   0.337   6.025
 3664WAT     H211235   2.673   0.391   5.871
 3665WAT      O11236   2.836   4.326   4.084
 3665WAT     H111237   2.844   4.331   3.985
 3665WAT     H211238   2.824   4.418   4.122
 3666WAT      O11239   4.312   5.477   2.968
 3666WAT     H111240   4.301   5.381   2.994
 3666WAT     H211241   4.332   5.482   2.870
 3667WAT      O11242   6.582   3.237   0.163
 3667WAT     H111243   6.492   3.218   0.202
 3667WAT     H211244   6.624   3.151   0.132
 3668WAT      O11245   3.598   7.291   0.058
 3668WAT     H111246   3.555   7.363   0.002
 3668WAT     H211247   3.552   7.287   0.146
 3669WAT      O11248   1.437   1.406   4.211
 3669WAT     H111249   1.349   1.394   4.257
 3669WAT     H211250   1.425   1.397   4.113
 3670WAT      O11251   8.294   3.267   8.708
 3670WAT     H111252   8.200   3.235   8.718
 3670WAT     H211253   8.322   3.316   8.791
 3671WAT      O11254   0.282   5.415   9.487
 3671WAT     H111255   0.305   5.320   9.467
 3671WAT     H211256   0.363   5.472   9.474
 3672WAT      O11257   3.085   5.186   5.306
 3672WAT     H111258   3.180   5.163   5.288
 3672WAT     H211259   3.035   5.102   5.331
 3673WAT      O11260   1.448   5.320   4.719
 3673WAT     H111261   1.502   5.271   4.788
 3673WAT     H211262   1.381   5.378   4.765
 3674WAT      O11263   0.711   2.799   5.593
 3674WAT     H111264   0.744   2.842   5.677
 3674WAT     H211265   0.766   2.717   5.575
 3675WAT      O11266   4.401   9.602   7.939
 3675WAT     H111267   4.465   9.567   8.007
 3675WAT     H211268   4.395   9.538   7.862
 3676WAT      O11269   3.080   7.633   9.259
 3676WAT     H111270   3.003   7.621   9.322
 3676WAT     H211271   3.076   7.563   9.188
 3677WAT      O11272   4.488   3.986   6.717
 3677WAT     H111273   4.488   3.942   6.627
 3677WAT     H211274   4.394   4.015   6.740
 3678WAT      O11275   5.281   0.362   8.677
 3678WAT     H111276   5.188   0.383   8.648
 3678WAT     H211277   5.291   0.381   8.775
 3679WAT      O11278   0.135   8.013   4.201
 3679WAT     H111279   0.139   7.930   4.145
 3679WAT     H211280   0.165   8.092   4.147
 3680WAT      O11281   6.514   1.098   2.014
 3680WAT     H111282   6.583   1.141   1.956
 3680WAT     H211283   6.517   0.999   2.003
 3681WAT      O11284   3.767   5.843   9.036
 3681WAT     H111285   3.768   5.843   9.136
 3681WAT     H211286   3.691   5.786   9.004
 3682WAT      O11287   2.698   1.690   9.438
 3682WAT     H111288   2.617   1.671   9.383
 3682WAT     H211289   2.767   1.736   9.382
 3683WAT      O11290   9.299   6.744   1.667
 3683WAT     H111291   9.211   6.703   1.643
 3683WAT     H211292   9.297   6.774   1.763
 3684WAT      O11293   5.231   6.380   5.238
 3684WAT     H111294   5.168   6.410   5.310
 3684WAT     H211295   5.319   6.425   5.250
 3685WAT      O11296   5.622   0.301   1.210
 3685WAT     H111297   5.671   0.265   1.131
 3685WAT     H211298   5.682   0.364   1.261
 3686WAT      O11299   5.469   8.359   0.937
 3686WAT     H111300   5.409   8.332   0.861
 3686WAT     H211301   5.530   8.432   0.907
 3687WAT      O11302   6.389   3.996   4.197
 3687WAT     H111303   6.329   3.943   4.137
 3687WAT     H211304   6.438   3.934   4.258
 3688WAT      O11305   4.132   6.987   5.423
 3688WAT     H111306   4.168   6.936   5.344
 3688WAT     H211307   4.100   6.922   5.492
 3689WAT      O11308   5.028   4.396   6.661
 3689WAT     H111309   5.110   4.400   6.717
 3689WAT     H211310   4.970   4.475   6.679
 3690WAT      O11311   3.051   3.485   4.407
 3690WAT     H111312   3.018   3.505   4.315
 3690WAT     H211313   3.142   3.525   4.420
 3691WAT      O11314   6.209   6.771   4.674
 3691WAT     H111315   6.113   6.799   4.680
 3691WAT     H211316   6.218   6.698   4.606
 3692WAT      O11317   4.508   4.765   9.640
 3692WAT     H111318   4.468   4.721   9.560
 3692WAT     H211319   4.608   4.761   9.633
 3693WAT      O11320   8.123   9.771   1.318
 3693WAT     H111321   8.141   9.721   1.233
 3693WAT     H211322   8.166   9.723   1.394
 3694WAT      O11323   6.895   5.978   5.859
 3694WAT     H111324   6.837   6.058   5.841
 3694WAT     H211325   6.976   6.006   5.910
 3695WAT      O11326   5.059   7.688   8.339
 3695WAT     H111327   5.088   7.620   8.406
 3695WAT     H211328   4.999   7.755   8.383
 3696WAT      O11329   2.988   6.029   1.178
 3696WAT     H111330   3.005   6.116   1.225
 3696WAT     H211331   2.973   5.957   1.245
 3697WAT      O11332   1.284   1.364   8.043
 3697WAT     H111333   1.228   1.311   7.978
 3697WAT     H211334   1.286   1.460   8.015
 3698WAT      O11335   7.745   5.984   9.865
 3698WAT     H111336   7.818   5.998   9.798
 3698WAT     H211337   7.690   5.905   9.839
 3699WAT      O11338   9.834   6.820   0.109
 3699WAT     H111339   9.865   6.753   0.176
 3699WAT     H211340   9.835   6.780   0.018
 3700WAT      O11341   4.380   2.972   0.737
 3700WAT     H111342   4.420   2.888   0.702
 3700WAT     H211343   4.307   3.002   0.676
 3701WAT      O11344   2.203   7.898   3.181
 3701WAT     H111345   2.226   7.943   3.267
 3701WAT     H211346   2.107   7.873   3.182
 3702WAT      O11347   1.012   2.723   4.603
 3702WAT     H111348   0.951   2.786   4.555
 3702WAT     H211349   1.017   2.748   4.700
 3703WAT      O11350   3.320   8.873   1.120
 3703WAT     H111351   3.356   8.896   1.210
 3703WAT     H211352   3.337   8.777   1.101
 3704WAT      O11353   7.747   7.908   2.363
 3704WAT     H111354   7.683   7.923   2.439
 3704WAT     H211355   7.807   7.987   2.354
 3705WAT      O11356   5.831   9.065   7.351
 3705WAT     H111357   5.808   8.980   7.304
 3705WAT     H211358   5.848   9.137   7.284
 3706WAT      O11359   3.328   1.239   0.353
 3706WAT     H111360   3.243   1.207   0.395
 3706WAT     H211361   3.319   1.235   0.254
 3707WAT      O11362   3.925   2.978   8.167
 3707WAT     H111363   3.835   2.935   8.160
 3707WAT     H211364   3.995   2.911   8.143
 3708WAT      O11365   8.466   2.217   8.317
 3708WAT     H111366   8.408   2.173   8.386
 3708WAT     H211367   8.559   2.223   8.351
 3709WAT      O11368   7.442   2.162   1.242
 3709WAT     H111369   7.474   2.253   1.218
 3709WAT     H211370   7.414   2.113   1.159
 3710WAT      O11371   7.103   2.502   4.732
 3710WAT     H111372   7.203   2.508   4.734
 3710WAT     H211373   7.072   2.494   4.637
 3711WAT      O11374   9.739   2.244   0.993
 3711WAT     H111375   9.670   2.275   0.928
 3711WAT     H211376   9.750   2.313   1.065
 3712WAT      O11377   0.672   4.035   4.147
 3712WAT     H111378   0.714   4.040   4.056
 3712WAT     H211379   0.574   4.020   4.137
 3713WAT      O11380   5.275   0.922   3.528
 3713WAT     H111381   5.305   0.894   3.437
 3713WAT     H211382   5.354   0.951   3.582
 3714WAT      O11383   9.232   4.254   3.296
 3714WAT     H111384   9.316   4.305   3.311
 3714WAT     H211385   9.250   4.176   3.236
 3715WAT      O11386   1.871   4.899   6.727
 3715WAT     H111387   1.774   4.922   6.731
 3715WAT     H211388   1.883   4.810   6.683
 3716WAT      O11389   4.847   5.919   9.504
 3716WAT     H111390   4.812   5.973   9.427
 3716WAT     H211391   4.774   5.908   9.572
 3717WAT      O11392   2.628   1.457   5.266
 3717WAT     H111393   2.721   1.441   5.231
 3717WAT     H211394   2.585   1.530   5.213
 3718WAT      O11395   6.598   6.801   1.850
 3718WAT     H111396   6.639   6.718   1.810
 3718WAT     H211397   6.661   6.839   1.918
 3719WAT      O11398   5.413   3.474   4.904
 3719WAT     H111399   5.408   3.374   4.899
 3719WAT     H211400   5.372   3.505   4.990
 3720WAT      O11401   1.792   1.287   5.197
 3720WAT     H111402   1.795   1.298   5.297
 3720WAT     H211403   1.728   1.354   5.159
 3721WAT      O11404   4.019   0.596   8.222
 3721WAT     H111405   3.982   0.599   8.315
 3721WAT     H211406   4.052   0.503   8.203
 3722WAT      O11407   1.494   8.911   5.605
 3722WAT     H111408   1.418   8.922   5.540
 3722WAT     H211409   1.494   8.818   5.640
 3723WAT      O11410   1.488   8.662   2.097
 3723WAT     H111411   1.495   8.580   2.153
 3723WAT     H211412   1.428   8.728   2.141
 3724WAT      O11413   5.277   2.457   4.633
 3724WAT     H111414   5.358   2.446   4.576
 3724WAT     H211415   5.269   2.379   4.695
 3725WAT      O11416   4.533   6.413   2.669
 3725WAT     H111417   4.437   6.423   2.642
 3725WAT     H211418   4.553   6.317   2.687
 3726WAT      O11419   7.685   8.884   7.344
 3726WAT     H111420   7.629   8.935   7.409
 3726WAT     H211421   7.673   8.923   7.252
 3727WAT      O11422   3.756   7.849   8.894
 3727WAT     H111423   3.739   7.933   8.945
 3727WAT     H211424   3.805   7.784   8.952
 3728WAT      O11425   5.133   7.509   5.074
 3728WAT     H111426   5.046   7.558   5.070
 3728WAT     H211427   5.145   7.472   5.166
 3729WAT      O11428   0.474   5.412   2.313
 3729WAT     H111429   0.440   5.501   2.280
 3729WAT     H211430   0.523   5.366   2.240
 3730WAT      O11431   2.085   9.825   4.028
 3730WAT     H111432   2.046   9.733   4.026
 3730WAT     H211433   2.042   9.877   4.103
 3731WAT      O11434   3.838   7.463   5.855
 3731WAT     H111435   3.836   7.436   5.759
 3731WAT     H211436   3.802   7.556   5.864
 3732WAT      O11437   8.419   5.917   4.424
 3732WAT     H111438   8.474   5.884   4.500
 3732WAT     H211439   8.333   5.955   4.459
 3733WAT      O11440   7.919   2.863   1.122
 3733WAT     H111441   7.899   2.786   1.182
 3733WAT     H211442   7.935   2.945   1.177
 3734WAT      O11443   2.473   1.416   4.405
 3734WAT     H111444   2.376   1.393   4.417
 3734WAT     H211445   2.529   1.337   4.428
 3735WAT      O11446   0.368   0.201   5.562
 3735WAT     H111447   0.338   0.162   5.475
 3735WAT     H211448   0.456   0.248   5.548
 3736WAT      O11449   6.862   5.941   7.866
 3736WAT     H111450   6.960   5.954   7.853
 3736WAT     H211451   6.843   5.927   7.964
 3737WAT      O11452   8.843   0.322   3.286
 3737WAT     H111453   8.857   0.299   3.190
 3737WAT     H211454   8.908   0.393   3.313
 3738WAT      O11455   7.082   4.924   3.921
 3738WAT     H111456   7.041   5.013   3.940
 3738WAT     H211457   7.013   4.861   3.886
 3739WAT      O11458   8.034   4.090   3.706
 3739WAT     H111459   8.111   4.150   3.727
 3739WAT     H211460   7.952   4.122   3.754
 3740WAT      O11461   0.304   1.156   2.368
 3740WAT     H111462   0.223   1.182   2.315
 3740WAT     H211463   0.382   1.146   2.307
 3741WAT      O11464   3.785   6.489   2.941
 3741WAT     H111465   3.831   6.400   2.944
 3741WAT     H211466   3.702   6.481   2.886
 3742WAT      O11467   4.921   8.480   5.241
 3742WAT     H111468   4.876   8.510   5.157
 3742WAT     H211469   4.998   8.420   5.219
 3743WAT      O11470   1.875   1.617   0.878
 3743WAT     H111471   1.851   1.563   0.798
 3743WAT     H211472   1.822   1.584   0.957
 3744WAT      O11473   2.793   1.824   7.171
 3744WAT     H111474   2.828   1.918   7.167
 3744WAT     H211475   2.695   1.824   7.151
 3745WAT      O11476   5.659   5.741   5.335
 3745WAT     H111477   5.759   5.742   5.337
 3745WAT     H211478   5.625   5.711   5.425
 3746WAT      O11479   7.151   1.216   4.483
 3746WAT     H111480   7.172   1.142   4.547
 3746WAT     H211481   7.118   1.177   4.397
 3747WAT      O11482   0.796   7.846   0.408
 3747WAT     H111483   0.871   7.836   0.343
 3747WAT     H211484   0.827   7.816   0.499
 3748WAT      O11485   7.755   2.240   4.838
 3748WAT     H111486   7.828   2.215   4.902
 3748WAT     H211487   7.749   2.171   4.766
 3749WAT      O11488   4.710   1.312   2.304
 3749WAT     H111489   4.730   1.410   2.296
 3749WAT     H211490   4.756   1.262   2.231
 3750WAT      O11491   6.558   9.623   6.333
 3750WAT     H111492   6.477   9.624   6.392
 3750WAT     H211493   6.531   9.601   6.239
 3751WAT      O11494   6.890   3.391   6.912
 3751WAT     H111495   6.949   3.392   6.831
 3751WAT     H211496   6.808   3.445   6.893
 3752WAT      O11497   1.968   8.920   2.446
 3752WAT     H111498   1.911   8.989   2.490
 3752WAT     H211499   1.911   8.843   2.416
 3753WAT      O11500   0.069   5.968   7.745
 3753WAT     H111501   0.086   6.059   7.785
 3753WAT     H211502   0.157   5.926   7.720
 3754WAT      O11503   0.362   3.727   8.577
 3754WAT     H111504   0.341   3.701   8.483
 3754WAT     H211505   0.332   3.655   8.639
 3755WAT      O11506   8.983   2.296   0.183
 3755WAT     H111507   9.062   2.259   0.231
 3755WAT     H211508   8.901   2.286   0.239
 3756WAT      O11509   9.766   9.132   8.842
 3756WAT     H111510   9.853   9.135   8.793
 3756WAT     H211511   9.710   9.057   8.806
 3757WAT      O11512   2.952   5.348   0.062
 3757WAT     H111513   2.972   5.446   0.073
 3757WAT     H211514   2.856   5.331   0.083
 3758WAT      O11515   8.103   2.047   1.766
 3758WAT     H111516   8.043   2.127   1.774
 3758WAT     H211517   8.081   1.981   1.837
 3759WAT      O11518   0.562   0.223   0.102
 3759WAT     H111519   0.609   0.134   0.095
 3759WAT     H211520   0.476   0.212   0.151
 3760WAT      O11521   2.509   0.129   5.629
 3760WAT     H111522   2.440   0.187   5.672
 3760WAT     H211523   2.516   0.151   5.532
 3761WAT      O11524   4.382   7.772   1.145
 3761WAT     H111525   4.482   7.772   1.146
 3761WAT     H211526   4.350   7.699   1.085
 3762WAT      O11527   7.176   0.852   2.832
 3762WAT     H111528   7.143   0.946   2.823
 3762WAT     H211529   7.098   0.789   2.824
 3763WAT      O11530   2.060   7.683   0.813
 3763WAT     H111531   2.144   7.713   0.768
 3763WAT     H211532   2.064   7.707   0.910
 3764WAT      O11533   2.412   0.277   1.724
 3764WAT     H111534   2.460   0.325   1.798
 3764WAT     H211535   2.466   0.198   1.695
 3765WAT      O11536   4.637   5.400   1.386
 3765WAT     H111537   4.671   5.427   1.476
 3765WAT     H211538   4.645   5.477   1.323
 3766WAT      O11539   1.575   4.483   1.021
 3766WAT     H111540   1.502   4.507   0.956
 3766WAT     H211541   1.548   4.402   1.073
 3767WAT      O11542   1.431   0.520   0.210
 3767WAT     H111543   1.399   0.498   0.118
 3767WAT     H211544   1.489   0.446   0.244
 3768WAT      O11545   4.322   1.364   4.942
 3768WAT     H111546   4.381   1.420   4.999
 3768WAT     H211547   4.226   1.388   4.958
 3769WAT      O11548   7.356   0.560   8.744
 3769WAT     H111549   7.289   0.554   8.818
 3769WAT     H211550   7.317   0.609   8.667
 3770WAT      O11551   3.399   7.262   9.115
 3770WAT     H111552   3.466   7.222   9.052
 3770WAT     H211553   3.311   7.218   9.102
 3771WAT      O11554   9.536   9.255   5.651
 3771WAT     H111555   9.441   9.281   5.632
 3771WAT     H211556   9.570   9.197   5.577
 3772WAT      O11557   3.242   7.615   8.609
 3772WAT     H111558   3.171   7.582   8.547
 3772WAT     H211559   3.306   7.541   8.629
 3773WAT      O11560   1.638   3.424   8.525
 3773WAT     H111561   1.699   3.349   8.549
 3773WAT     H211562   1.597   3.406   8.435
 3774WAT      O11563   5.127   2.297   5.898
 3774WAT     H111564   5.169   2.214   5.933
 3774WAT     H211565   5.028   2.284   5.892
 3775WAT      O11566   4.292   1.369   0.674
 3775WAT     H111567   4.339   1.301   0.729
 3775WAT     H211568   4.202   1.335   0.648
 3776WAT      O11569   9.837   5.426   3.076
 3776WAT     H111570   9.864   5.355   3.142
 3776WAT     H211571   9.918   5.457   3.026
 3777WAT      O11572   0.812   8.871   6.415
 3777WAT     H111573   0.810   8.777   6.381
 3777WAT     H211574   0.834   8.871   6.513
 3778WAT      O11575   7.487   7.555   1.429
 3778WAT     H111576   7.474   7.503   1.513
 3778WAT     H211577   7.584   7.578   1.418
 3779WAT      O11578   7.778   7.496   2.987
 3779WAT     H111579   7.757   7.463   3.080
 3779WAT     H211580   7.874   7.521   2.981
 3780WAT      O11581   4.295   2.829   1.677
 3780WAT     H111582   4.220   2.765   1.693
 3780WAT     H211583   4.282   2.910   1.734
 3781WAT      O11584   4.540   5.882   9.221
 3781WAT     H111585   4.516   5.868   9.125
 3781WAT     H211586   4.515   5.800   9.273
 3782WAT      O11587   6.324   3.826   9.841
 3782WAT     H111588   6.241   3.854   9.889
 3782WAT     H211589   6.315   3.730   9.813
 3783WAT      O11590   6.738   0.034   0.597
 3783WAT     H111591   6.761  -0.059   0.567
 3783WAT     H211592   6.799   0.061   0.672
 3784WAT      O11593   2.629   2.365   0.766
 3784WAT     H111594   2.709   2.337   0.818
 3784WAT     H211595   2.576   2.285   0.740
 3785WAT      O11596   3.516   6.409   9.872
 3785WAT     H111597   3.599   6.420   9.926
 3785WAT     H211598   3.456   6.488   9.887
 3786WAT      O11599   7.092   9.001   1.224
 3786WAT     H111600   7.001   8.980   1.260
 3786WAT     H211601   7.135   8.916   1.193
 3787WAT      O11602   7.256   6.902   8.588
 3787WAT     H111603   7.267   6.807   8.560
 3787WAT     H211604   7.333   6.956   8.552
 3788WAT      O11605   4.921   8.157   1.772
 3788WAT     H111606   4.956   8.162   1.678
 3788WAT     H211607   4.846   8.091   1.776
 3789WAT      O11608   5.627   1.704   9.644
 3789WAT     H111609   5.670   1.793   9.632
 3789WAT     H211610   5.638   1.650   9.560
 3790WAT      O11611   2.334   9.022   6.381
 3790WAT     H111612   2.315   8.927   6.405
 3790WAT     H211613   2.312   9.038   6.285
 3791WAT      O11614   8.790   0.437   9.496
 3791WAT     H111615   8.858   0.500   9.458
 3791WAT     H211616   8.808   0.423   9.593
 3792WAT      O11617   4.418   5.949   4.346
 3792WAT     H111618   4.384   5.873   4.291
 3792WAT     H211619   4.442   5.916   4.437
 3793WAT      O11620   4.824   1.801   3.062
 3793WAT     H111621   4.770   1.775   3.142
 3793WAT     H211622   4.874   1.721   3.029
 3794WAT      O11623   7.179   0.606   3.692
 3794WAT     H111624   7.260   0.569   3.738
 3794WAT     H211625   7.205   0.687   3.639
 3795WAT      O11626   5.809   2.462   3.056
 3795WAT     H111627   5.865   2.432   2.979
 3795WAT     H211628   5.835   2.412   3.138
 3796WAT      O11629   4.521   7.634   8.590
 3796WAT     H111630   4.490   7.591   8.506
 3796WAT     H211631   4.529   7.733   8.576
 3797WAT      O11632   4.043   0.269   0.119
 3797WAT     H111633   4.052   0.211   0.038
 3797WAT     H211634   4.055   0.214   0.201
 3798WAT      O11635   9.105   3.738   3.610
 3798WAT     H111636   9.020   3.790   3.603
 3798WAT     H211637   9.112   3.697   3.701
 3799WAT      O11638   8.786   9.296   7.798
 3799WAT     H111639   8.794   9.317   7.896
 3799WAT     H211640   8.873   9.258   7.766
 3800WAT      O11641   8.500   8.987   3.871
 3800WAT     H111642   8.520   8.889   3.879
 3800WAT     H211643   8.500   9.013   3.775
 3801WAT      O11644   1.332   7.570   8.521
 3801WAT     H111645   1.292   7.607   8.604
 3801WAT     H211646   1.431   7.587   8.521
 3802WAT      O11647   2.404   0.447   6.467
 3802WAT     H111648   2.422   0.368   6.525
 3802WAT     H211649   2.307   0.449   6.443
 3803WAT      O11650   7.061   0.937   9.825
 3803WAT     H111651   7.011   0.947   9.911
 3803WAT     H211652   7.029   1.006   9.760
 3804WAT      O11653   6.519   3.819   4.363
 3804WAT     H111654   6.507   3.748   4.294
 3804WAT     H211655   6.438   3.824   4.421
 3805WAT      O11656   9.311   2.408   6.298
 3805WAT     H111657   9.311   2.319   6.253
 3805WAT     H211658   9.402   2.425   6.338
 3806WAT      O11659   9.502   1.171   2.958
 3806WAT     H111660   9.434   1.232   2.919
 3806WAT     H211661   9.481   1.154   3.054
 3807WAT      O11662   9.298   2.160   6.203
 3807WAT     H111663   9.253   2.164   6.114
 3807WAT     H211664   9.304   2.065   6.234
 3808WAT      O11665   1.412   0.941   4.263
 3808WAT     H111666   1.430   0.914   4.357
 3808WAT     H211667   1.347   1.017   4.261
 3809WAT      O11668   2.249   7.183   9.645
 3809WAT     H111669   2.305   7.131   9.581
 3809WAT     H211670   2.177   7.231   9.594
 3810WAT      O11671   3.241   0.181   0.977
 3810WAT     H111672   3.318   0.243   0.995
 3810WAT     H211673   3.166   0.232   0.935
 3811WAT      O11674   4.539   9.524   2.981
 3811WAT     H111675   4.556   9.623   2.975
 3811WAT     H211676   4.469   9.507   3.050
 3812WAT      O11677   5.859   6.288   0.761
 3812WAT     H111678   5.869   6.364   0.697
 3812WAT     H211679   5.761   6.266   0.772
 3813WAT      O11680   6.503   5.003   9.541
 3813WAT     H111681   6.565   4.967   9.610
 3813WAT     H211682   6.418   5.032   9.585
 3814WAT      O11683   6.288   8.504   6.996
 3814WAT     H111684   6.363   8.554   7.040
 3814WAT     H211685   6.324   8.447   6.923
 3815WAT      O11686   9.456   5.960   8.302
 3815WAT     H111687   9.425   6.037   8.246
 3815WAT     H211688   9.549   5.934   8.275
 3816WAT      O11689   3.063   6.431   3.155
 3816WAT     H111690   3.049   6.457   3.250
 3816WAT     H211691   3.111   6.344   3.150
 3817WAT      O11692   1.007   5.136   6.524
 3817WAT     H111693   1.051   5.121   6.612
 3817WAT     H211694   0.940   5.064   6.507
 3818WAT      O11695   2.780   6.555   1.294
 3818WAT     H111696   2.730   6.525   1.376
 3818WAT     H211697   2.801   6.652   1.303
 3819WAT      O11698   4.343   6.064   9.270
 3819WAT     H111699   4.263   6.008   9.249
 3819WAT     H211700   4.425   6.019   9.234
 3820WAT      O11701   1.006   3.869   2.439
 3820WAT     H111702   0.991   3.927   2.358
 3820WAT     H211703   1.011   3.773   2.411
 3821WAT      O11704   1.587   7.371   8.283
 3821WAT     H111705   1.546   7.298   8.337
 3821WAT     H211706   1.642   7.331   8.209
 3822WAT      O11707   3.096   0.900   4.706
 3822WAT     H111708   3.105   0.999   4.723
 3822WAT     H211709   3.146   0.877   4.623
 3823WAT      O11710   3.101   5.338   1.306
 3823WAT     H111711   3.159   5.395   1.249
 3823WAT     H211712   3.023   5.305   1.253
 3824WAT      O11713   4.407   5.674   1.571
 3824WAT     H111714   4.386   5.586   1.529
 3824WAT     H211715   4.410   5.745   1.501
 3825WAT      O11716   0.273   5.241   5.944
 3825WAT     H111717   0.298   5.170   5.879
 3825WAT     H211718   0.341   5.245   6.017
 3826WAT      O11719   7.625   5.040   1.791
 3826WAT     H111720   7.531   5.032   1.823
 3826WAT     H211721   7.687   5.022   1.867
 3827WAT      O11722   6.613   6.079   8.748
 3827WAT     H111723   6.595   6.009   8.817
 3827WAT     H211724   6.556   6.159   8.765
 3828WAT      O11725   7.589   2.520   3.363
 3828WAT     H111726   7.550   2.551   3.276
 3828WAT     H211727   7.516   2.505   3.430
 3829WAT      O11728   4.702   3.080   2.769
 3829WAT     H111729   4.749   2.993   2.781
 3829WAT     H211730   4.614   3.065   2.725
 3830WAT      O11731   3.778   1.936   1.669
 3830WAT     H111732   3.739   1.859   1.719
 3830WAT     H211733   3.712   2.011   1.668
 3831WAT      O11734   4.217   2.761   3.590
 3831WAT     H111735   4.148   2.805   3.534
 3831WAT     H211736   4.276   2.830   3.632
 3832WAT      O11737   5.052   9.124   8.350
 3832WAT     H111738   5.152   9.124   8.342
 3832WAT     H211739   5.018   9.217   8.334
 3833WAT      O11740   9.466   9.057   2.633
 3833WAT     H111741   9.485   9.155   2.628
 3833WAT     H211742   9.551   9.009   2.656
 3834WAT      O11743   2.349   3.914   5.421
 3834WAT     H111744   2.377   3.841   5.359
 3834WAT     H211745   2.409   3.914   5.501
 3835WAT      O11746   6.488   9.100   1.424
 3835WAT     H111747   6.508   9.084   1.328
 3835WAT     H211748   6.572   9.089   1.478
 3836WAT      O11749   1.397   4.136   0.109
 3836WAT     H111750   1.373   4.094   0.196
 3836WAT     H211751   1.478   4.193   0.120
 3837WAT      O11752   1.668   8.589   5.019
 3837WAT     H111753   1.710   8.500   5.000
 3837WAT     H211754   1.617   8.585   5.105
 3838WAT      O11755   0.023   7.912   0.490
 3838WAT     H111756   0.073   7.992   0.523
 3838WAT     H211757   0.023   7.911   0.390
 3839WAT      O11758   8.728   5.027   6.699
 3839WAT     H111759   8.700   4.950   6.641
 3839WAT     H211760   8.785   5.089   6.645
 3840WAT      O11761   1.994   8.651   8.653
 3840WAT     H111762   1.989   8.602   8.567
 3840WAT     H211763   2.016   8.747   8.636
 3841WAT      O11764   8.064   6.252   4.030
 3841WAT     H111765   8.005   6.330   4.010
 3841WAT     H211766   8.076   6.244   4.129
 3842WAT      O11767   2.702   2.736   8.246
 3842WAT     H111768   2.621   2.795   8.241
 3842WAT     H211769   2.680   2.653   8.297
 3843WAT      O11770   2.305   7.191   6.536
 3843WAT     H111771   2.269   7.274   6.578
 3843WAT     H211772   2.268   7.181   6.443
 3844WAT      O11773   8.183   4.822   9.487
 3844WAT     H111774   8.215   4.802   9.579
 3844WAT     H211775   8.094   4.867   9.491
 3845WAT      O11776   9.673   1.066   5.266
 3845WAT     H111777   9.628   1.031   5.184
 3845WAT     H211778   9.642   1.159   5.285
 3846WAT      O11779   9.519   2.659   0.070
 3846WAT     H111780   9.476   2.569   0.061
 3846WAT     H211781   9.531   2.700  -0.020
 3847WAT      O11782   5.458   0.317   0.939
 3847WAT     H111783   5.399   0.251   0.985
 3847WAT     H211784   5.554   0.296   0.958
 3848WAT      O11785   5.604   0.194   0.224
 3848WAT     H111786   5.561   0.116   0.269
 3848WAT     H211787   5.626   0.170   0.129
 3849WAT      O11788   0.499   5.782   7.489
 3849WAT     H111789   0.453   5.699   7.521
 3849WAT     H211790   0.586   5.792   7.538
 3850WAT      O11791   3.027   9.287   6.787
 3850WAT     H111792   3.028   9.256   6.883
 3850WAT     H211793   3.096   9.236   6.736
 3851WAT      O11794   9.804   7.047   1.752
 3851WAT     H111795   9.732   7.110   1.781
 3851WAT     H211796   9.780   6.954   1.779
 3852WAT      O11797   0.153   0.121   7.574
 3852WAT     H111798   0.116   0.085   7.489
 3852WAT     H211799   0.205   0.205   7.554
 3853WAT      O11800   6.329   7.766   6.712
 3853WAT     H111801   6.249   7.776   6.654
 3853WAT     H211802   6.335   7.671   6.744
 3854WAT      O11803   3.957   1.198   3.784
 3854WAT     H111804   4.043   1.248   3.799
 3854WAT     H211805   3.977   1.112   3.737
 3855WAT      O11806   3.789   4.219   7.321
 3855WAT     H111807   3.877   4.200   7.365
 3855WAT     H211808   3.719   4.233   7.391
 3856WAT      O11809   0.531   8.941   1.790
 3856WAT     H111810   0.431   8.936   1.787
 3856WAT     H211811   0.565   8.986   1.707
 3857WAT      O11812   6.828   5.669   7.801
 3857WAT     H111813   6.809   5.758   7.842
 3857WAT     H211814   6.878   5.682   7.716
 3858WAT      O11815   9.818   1.726   5.405
 3858WAT     H111816   9.812   1.639   5.356
 3858WAT     H211817   9.740   1.735   5.466
 3859WAT      O11818   5.171   2.968   8.566
 3859WAT     H111819   5.134   2.959   8.473
 3859WAT     H211820   5.103   2.936   8.632
 3860WAT      O11821   1.685   3.341   3.664
 3860WAT     H111822   1.695   3.241   3.668
 3860WAT     H211823   1.657   3.375   3.754
 3861WAT      O11824   3.296   4.720   7.969
 3861WAT     H111825   3.380   4.766   7.942
 3861WAT     H211826   3.309   4.621   7.963
 3862WAT      O11827   4.272   2.097   8.326
 3862WAT     H111828   4.181   2.061   8.347
 3862WAT     H211829   4.326   2.027   8.281
 3863WAT      O11830   1.965   3.176   0.573
 3863WAT     H111831   1.967   3.275   0.562
 3863WAT     H211832   1.979   3.132   0.484
 3864WAT      O11833   0.823   0.079   3.122
 3864WAT     H111834   0.829   0.149   3.193
 3864WAT     H211835   0.728   0.049   3.113
 3865WAT      O11836   8.326   2.744   5.835
 3865WAT     H111837   8.379   2.692   5.768
 3865WAT     H211838   8.304   2.686   5.914
 3866WAT      O11839   3.876   5.005   9.706
 3866WAT     H111840   3.970   4.974   9.717
 3866WAT     H211841   3.870   5.103   9.723
 3867WAT      O11842   5.081   0.050   8.971
 3867WAT     H111843   5.026  -0.022   9.013
 3867WAT     H211844   5.120   0.108   9.043
 3868WAT      O11845   8.391   4.512   7.883
 3868WAT     H111846   8.342   4.513   7.796
 3868WAT     H211847   8.332   4.474   7.954
 3869WAT      O11848   9.002   3.717   8.434
 3869WAT     H111849   8.950   3.800   8.412
 3869WAT     H211850   9.034   3.722   8.528
 3870WAT      O11851   8.697   6.136   1.998
 3870WAT     H111852   8.753   6.180   1.928
 3870WAT     H211853   8.627   6.079   1.954
 3871WAT      O11854   1.474   7.854   5.817
 3871WAT     H111855   1.463   7.835   5.914
 3871WAT     H211856   1.454   7.950   5.799
 3872WAT      O11857   4.231   5.384   9.292
 3872WAT     H111858   4.215   5.466   9.347
 3872WAT     H211859   4.211   5.303   9.347
 3873WAT      O11860   2.081   7.238   7.037
 3873WAT     H111861   2.100   7.330   7.072
 3873WAT     H211862   2.055   7.244   6.941
 3874WAT      O11863   5.427   5.087   1.388
 3874WAT     H111864   5.488   5.054   1.459
 3874WAT     H211865   5.437   5.185   1.377
 3875WAT      O11866   7.523   4.249   6.645
 3875WAT     H111867   7.581   4.200   6.710
 3875WAT     H211868   7.557   4.342   6.634
 3876WAT      O11869   3.600   7.664   4.483
 3876WAT     H111870   3.536   7.733   4.448
 3876WAT     H211871   3.684   7.710   4.513
 3877WAT      O11872   6.707   6.331   6.471
 3877WAT     H111873   6.787   6.370   6.516
 3877WAT     H211874   6.663   6.265   6.533
 3878WAT      O11875   3.279   1.850   0.264
 3878WAT     H111876   3.181   1.838   0.248
 3878WAT     H211877   3.330   1.815   0.186
 3879WAT      O11878   5.527   4.029   7.956
 3879WAT     H111879   5.525   3.939   7.912
 3879WAT     H211880   5.468   4.092   7.906
 3880WAT      O11881   7.930   5.432   1.343
 3880WAT     H111882   7.841   5.412   1.301
 3880WAT     H211883   7.931   5.397   1.437
 3881WAT      O11884   6.356   7.153   6.857
 3881WAT     H111885   6.436   7.117   6.905
 3881WAT     H211886   6.376   7.245   6.823
 3882WAT      O11887   0.368   9.478   8.379
 3882WAT     H111888   0.455   9.475   8.428
 3882WAT     H211889   0.383   9.507   8.285
 3883WAT      O11890   6.585   5.956   8.310
 3883WAT     H111891   6.541   6.046   8.311
 3883WAT     H211892   6.520   5.887   8.279
 3884WAT      O11893   6.422   6.269   1.566
 3884WAT     H111894   6.494   6.333   1.539
 3884WAT     H211895   6.337   6.320   1.582
 3885WAT      O11896   8.498   8.526   6.487
 3885WAT     H111897   8.409   8.566   6.513
 3885WAT     H211898   8.551   8.507   6.570
 3886WAT      O11899   0.617   4.262   9.455
 3886WAT     H111900   0.576   4.309   9.377
 3886WAT     H211901   0.669   4.183   9.422
 3887WAT      O11902   0.553   7.138   0.671
 3887WAT     H111903   0.508   7.092   0.747
 3887WAT     H211904   0.490   7.144   0.594
 3888WAT      O11905   5.041   4.868   8.388
 3888WAT     H111906   5.061   4.960   8.422
 3888WAT     H211907   5.122   4.810   8.401
 3889WAT      O11908   7.361   3.069   6.033
 3889WAT     H111909   7.354   2.988   6.091
 3889WAT     H211910   7.429   3.131   6.071
 3890WAT      O11911   0.760   8.883   7.385
 3890WAT     H111912   0.702   8.807   7.353
 3890WAT     H211913   0.845   8.884   7.331
 3891WAT      O11914   1.022   6.729   1.782
 3891WAT     H111915   1.097   6.783   1.745
 3891WAT     H211916   0.935   6.768   1.753
 3892WAT      O11917   0.465   7.287   6.908
 3892WAT     H111918   0.459   7.268   6.810
 3892WAT     H211919   0.373   7.296   6.946
 3893WAT      O11920   8.236   2.626   1.054
 3893WAT     H111921   8.160   2.668   1.006
 3893WAT     H211922   8.228   2.646   1.152
 3894WAT      O11923   2.066   1.530   8.598
 3894WAT     H111924   1.983   1.518   8.652
 3894WAT     H211925   2.100   1.624   8.609
 3895WAT      O11926   3.477   3.785   1.642
 3895WAT     H111927   3.551   3.814   1.703
 3895WAT     H211928   3.397   3.843   1.658
 3896WAT      O11929   3.882   5.205   9.081
 3896WAT     H111930   3.950   5.277   9.095
 3896WAT     H211931   3.891   5.168   8.988
 3897WAT      O11932   1.495   8.569   8.311
 3897WAT     H111933   1.545   8.628   8.374
 3897WAT     H211934   1.549   8.486   8.294
 3898WAT      O11935   1.207   1.871   1.271
 3898WAT     H111936   1.155   1.944   1.227
 3898WAT     H211937   1.281   1.911   1.326
 3899WAT      O11938   2.340   8.873   8.905
 3899WAT     H111939   2.313   8.810   8.978
 3899WAT     H211940   2.412   8.934   8.939
 3900WAT      O11941   6.233   9.352   2.930
 3900WAT     H111942   6.144   9.372   2.972
 3900WAT     H211943   6.285   9.292   2.991
 3901WAT      O11944   1.500   1.444   2.964
 3901WAT     H111945   1.477   1.532   2.922
 3901WAT     H211946   1.502   1.454   3.063
 3902WAT      O11947   3.985   9.817   0.934
 3902WAT     H111948   3.989   9.912   0.966
 3902WAT     H211949   4.053   9.804   0.862
 3903WAT      O11950   8.207   7.003   9.503
 3903WAT     H111951   8.182   7.079   9.563
 3903WAT     H211952   8.245   7.039   9.418
 3904WAT      O11953   9.635   1.771   2.211
 3904WAT     H111954   9.655   1.869   2.212
 3904WAT     H211955   9.624   1.741   2.116
 3905WAT      O11956   0.306   2.987   9.226
 3905WAT     H111957   0.240   3.062   9.226
 3905WAT     H211958   0.274   2.915   9.288
 3906WAT      O11959   8.336   4.500   8.196
 3906WAT     H111960   8.249   4.489   8.243
 3906WAT     H211961   8.332   4.580   8.136
 3907WAT      O11962   9.474   3.072   5.232
 3907WAT     H111963   9.397   3.009   5.234
 3907WAT     H211964   9.475   3.127   5.316
 3908WAT      O11965   1.496   2.118   2.564
 3908WAT     H111966   1.490   2.176   2.482
 3908WAT     H211967   1.507   2.023   2.537
 3909WAT      O11968   1.763   8.643   6.154
 3909WAT     H111969   1.705   8.593   6.219
 3909WAT     H211970   1.771   8.590   6.070
 3910WAT      O11971   4.837   1.227   7.824
 3910WAT     H111972   4.866   1.140   7.785
 3910WAT     H211973   4.913   1.291   7.823
 3911WAT      O11974   1.457   9.291   0.396
 3911WAT     H111975   1.555   9.273   0.383
 3911WAT     H211976   1.423   9.238   0.473
 3912WAT      O11977   9.540   2.006   1.251
 3912WAT     H111978   9.486   2.063   1.313
 3912WAT     H211979   9.496   2.002   1.162
 3913WAT      O11980   7.387   2.877   8.444
 3913WAT     H111981   7.391   2.777   8.451
 3913WAT     H211982   7.443   2.917   8.517
 3914WAT      O11983   2.278   0.251   5.767
 3914WAT     H111984   2.215   0.179   5.736
 3914WAT     H211985   2.233   0.305   5.838
 3915WAT      O11986   9.400   3.317   3.824
 3915WAT     H111987   9.330   3.252   3.856
 3915WAT     H211988   9.360   3.376   3.754
 3916WAT      O11989   2.117   8.842   1.776
 3916WAT     H111990   2.197   8.860   1.833
 3916WAT     H211991   2.147   8.822   1.683
 3917WAT      O11992   5.293   0.187   5.752
 3917WAT     H111993   5.305   0.269   5.695
 3917WAT     H211994   5.210   0.197   5.806
 3918WAT      O11995   0.068   0.320   8.673
 3918WAT     H111996   0.165   0.331   8.652
 3918WAT     H211997   0.055   0.323   8.772
 3919WAT      O11998   5.426   5.895   0.577
 3919WAT     H111999   5.412   5.812   0.522
 3919WAT     H212000   5.352   5.960   0.558
 3920WAT      O12001   7.411   4.262   8.897
 3920WAT     H112002   7.322   4.250   8.942
 3920WAT     H212003   7.472   4.187   8.922
 3921WAT      O12004   4.585   7.546   9.071
 3921WAT     H112005   4.665   7.491   9.045
 3921WAT     H212006   4.615   7.633   9.110
 3922WAT      O12007   3.432   1.317   8.278
 3922WAT     H112008   3.529   1.321   8.254
 3922WAT     H212009   3.396   1.410   8.288
 3923WAT      O12010   4.614   9.669   8.738
 3923WAT     H112011   4.546   9.656   8.665
 3923WAT     H212012   4.625   9.584   8.788
 3924WAT      O12013   8.102   8.806   4.663
 3924WAT     H112014   8.016   8.855   4.678
 3924WAT     H212015   8.176   8.872   4.651
 3925WAT      O12016   8.296   4.792   8.811
 3925WAT     H112017   8.260   4.791   8.905
 3925WAT     H212018   8.395   4.786   8.814
 3926WAT      O12019   1.300   8.603   4.766
 3926WAT     H112020   1.299   8.533   4.695
 3926WAT     H212021   1.382   8.659   4.756
 3927WAT      O12022   7.216   8.746   8.257
 3927WAT     H112023   7.285   8.810   8.223
 3927WAT     H212024   7.259   8.658   8.276
 3928WAT      O12025   7.805   6.007   1.144
 3928WAT     H112026   7.835   5.988   1.050
 3928WAT     H212027   7.774   5.922   1.187
 3929WAT      O12028   9.886   1.437   4.852
 3929WAT     H112029   9.903   1.379   4.931
 3929WAT     H212030   9.832   1.516   4.880
 3930WAT      O12031   9.808   2.768   6.574
 3930WAT     H112032   9.888   2.816   6.608
 3930WAT     H212033   9.830   2.724   6.487
 3931WAT      O12034   5.688   1.785   8.456
 3931WAT     H112035   5.749   1.844   8.402
 3931WAT     H212036   5.639   1.840   8.523
 3932WAT      O12037   3.397   3.907   3.450
 3932WAT     H112038   3.453   3.827   3.474
 3932WAT     H212039   3.317   3.877   3.399
 3933WAT      O12040   0.418   5.424   0.169
 3933WAT     H112041   0.417   5.489   0.093
 3933WAT     H212042   0.424   5.331   0.133
 3934WAT      O12043   8.420   5.007   5.514
 3934WAT     H112044   8.333   4.969   5.484
 3934WAT     H212045   8.404   5.089   5.569
 3935WAT      O12046   6.863   6.843   3.536
 3935WAT     H112047   6.956   6.841   3.573
 3935WAT     H212048   6.797   6.847   3.611
 3936WAT      O12049   6.288   5.997   1.679
 3936WAT     H112050   6.334   6.082   1.653
 3936WAT     H212051   6.270   5.942   1.598
 3937WAT      O12052   1.866   5.742   7.004
 3937WAT     H112053   1.821   5.654   6.989
 3937WAT     H212054   1.831   5.809   6.939
 3938WAT      O12055   2.226   1.973   5.480
 3938WAT     H112056   2.217   2.002   5.385
 3938WAT     H212057   2.162   1.898   5.498
 3939WAT      O12058   3.860   6.381   2.398
 3939WAT     H112059   3.889   6.426   2.314
 3939WAT     H212060   3.901   6.428   2.476
 3940WAT      O12061   0.433   6.148   3.880
 3940WAT     H112062   0.411   6.232   3.830
 3940WAT     H212063   0.468   6.080   3.816
 3941WAT      O12064   1.209   1.478   0.320
 3941WAT     H112065   1.249   1.473   0.411
 3941WAT     H212066   1.113   1.453   0.324
 3942WAT      O12067   8.357   5.495   5.465
 3942WAT     H112068   8.437   5.517   5.409
 3942WAT     H212069   8.350   5.396   5.475
 3943WAT      O12070   7.880   3.691   7.831
 3943WAT     H112071   7.820   3.680   7.751
 3943WAT     H212072   7.925   3.780   7.827
 3944WAT      O12073   8.544   1.338   9.851
 3944WAT     H112074   8.511   1.295   9.767
 3944WAT     H212075   8.633   1.381   9.833
 3945WAT      O12076   7.610   2.909   4.778
 3945WAT     H112077   7.536   2.903   4.711
 3945WAT     H212078   7.586   2.972   4.851
 3946WAT      O12079   9.043   5.590   6.787
 3946WAT     H112080   9.120   5.604   6.850
 3946WAT     H212081   9.020   5.493   6.784
 3947WAT      O12082   5.321   1.806   6.449
 3947WAT     H112083   5.257   1.862   6.396
 3947WAT     H212084   5.297   1.810   6.546
 3948WAT      O12085   6.007   4.483   3.520
 3948WAT     H112086   6.087   4.423   3.516
 3948WAT     H212087   6.036   4.578   3.524
 3949WAT      O12088   2.819   6.069   2.483
 3949WAT     H112089   2.745   6.008   2.513
 3949WAT     H212090   2.898   6.014   2.455
 3950WAT      O12091   3.021   3.775   2.318
 3950WAT     H112092   3.024   3.714   2.238
 3950WAT     H212093   3.112   3.780   2.359
 3951WAT      O12094   6.978   4.976   2.515
 3951WAT     H112095   7.042   4.968   2.592
 3951WAT     H212096   6.914   5.051   2.532
 3952WAT      O12097   3.807   3.681   3.914
 3952WAT     H112098   3.876   3.734   3.964
 3952WAT     H212099   3.820   3.692   3.816
 3953WAT      O12100   7.212   8.541   1.873
 3953WAT     H112101   7.128   8.497   1.841
 3953WAT     H212102   7.231   8.621   1.817
 3954WAT      O12103   7.795   0.641   0.921
 3954WAT     H112104   7.848   0.710   0.872
 3954WAT     H212105   7.732   0.596   0.857
 3955WAT      O12106   5.372   3.035   0.930
 3955WAT     H112107   5.349   3.132   0.939
 3955WAT     H212108   5.335   3.001   0.843
 3956WAT      O12109   0.301   8.349   2.705
 3956WAT     H112110   0.302   8.364   2.804
 3956WAT     H212111   0.370   8.408   2.662
 3957WAT      O12112   8.041   7.536   1.099
 3957WAT     H112113   8.074   7.596   1.171
 3957WAT     H212114   8.084   7.560   1.012
 3958WAT      O12115   4.033   9.442   0.243
 3958WAT     H112116   4.102   9.392   0.190
 3958WAT     H212117   4.068   9.458   0.336
 3959WAT      O12118   9.739   0.129   7.959
 3959WAT     H112119   9.785   0.177   7.884
 3959WAT     H212120   9.693   0.196   8.017
 3960WAT      O12121   3.434   5.943   6.772
 3960WAT     H112122   3.507   6.012   6.770
 3960WAT     H212123   3.474   5.852   6.760
 3961WAT      O12124   7.061   2.099   0.372
 3961WAT     H112125   7.098   2.011   0.403
 3961WAT     H212126   7.109   2.127   0.289
 3962WAT      O12127   1.608   7.844   6.848
 3962WAT     H112128   1.518   7.802   6.861
 3962WAT     H212129   1.597   7.931   6.801
 3963WAT      O12130   3.996   8.232   1.424
 3963WAT     H112131   3.983   8.138   1.392
 3963WAT     H212132   3.908   8.279   1.426
 3964WAT      O12133   2.943   3.287   5.856
 3964WAT     H112134   2.879   3.256   5.926
 3964WAT     H212135   2.937   3.387   5.847
 3965WAT      O12136   6.681   4.075   5.578
 3965WAT     H112137   6.764   4.054   5.629
 3965WAT     H212138   6.668   4.006   5.507
 3966WAT      O12139   7.482   6.297   4.057
 3966WAT     H112140   7.406   6.340   4.106
 3966WAT     H212141   7.466   6.199   4.049
 3967WAT      O12142   4.585   6.145   2.645
 3967WAT     H112143   4.649   6.097   2.586
 3967WAT     H212144   4.493   6.140   2.607
 3968WAT      O12145   5.735   4.287   7.361
 3968WAT     H112146   5.680   4.371   7.356
 3968WAT     H212147   5.762   4.259   7.269
 3969WAT      O12148   1.911   5.121   0.959
 3969WAT     H112149   1.923   5.022   0.965
 3969WAT     H212150   1.816   5.141   0.935
 3970WAT      O12151   2.049   6.761   2.880
 3970WAT     H112152   2.023   6.829   2.812
 3970WAT     H212153   1.972   6.744   2.942
 3971WAT      O12154   3.672   0.171   9.679
 3971WAT     H112155   3.748   0.112   9.706
 3971WAT     H212156   3.586   0.121   9.686
 3972WAT      O12157   2.464   0.256   8.055
 3972WAT     H112158   2.499   0.304   8.137
 3972WAT     H212159   2.539   0.244   7.990
 3973WAT      O12160   1.112   2.788   0.813
 3973WAT     H112161   1.176   2.721   0.850
 3973WAT     H212162   1.038   2.804   0.878
 3974WAT      O12163   6.109   4.747   4.336
 3974WAT     H112164   6.061   4.673   4.288
 3974WAT     H212165   6.053   4.829   4.336
 3975WAT      O12166   3.952   0.047   9.205
 3975WAT     H112167   4.051   0.042   9.195
 3975WAT     H212168   3.917   0.124   9.152
 3976WAT      O12169   5.864   6.154   3.729
 3976WAT     H112170   5.840   6.239   3.682
 3976WAT     H212171   5.961   6.153   3.750
 3977WAT      O12172   6.226   0.017   2.410
 3977WAT     H112173   6.213  -0.027   2.499
 3977WAT     H212174   6.137   0.033   2.367
 3978WAT      O12175   1.268   4.421   2.448
 3978WAT     H112176   1.312   4.491   2.392
 3978WAT     H212177   1.324   4.339   2.449
 3979WAT      O12178   6.261   1.814   8.759
 3979WAT     H112179   6.274   1.723   8.797
 3979WAT     H212180   6.294   1.816   8.665
 3980WAT      O12181   1.464   4.156   8.604
 3980WAT     H112182   1.494   4.158   8.699
 3980WAT     H212183   1.367   4.132   8.600
 3981WAT      O12184   3.289   7.558   9.423
 3981WAT     H112185   3.213   7.582   9.363
 3981WAT     H212186   3.358   7.631   9.419
 3982WAT      O12187   1.713   2.548   4.531
 3982WAT     H112188   1.668   2.618   4.476
 3982WAT     H212189   1.803   2.529   4.492
 3983WAT      O12190   7.972   6.560   1.440
 3983WAT     H112191   7.950   6.648   1.483
 3983WAT     H212192   8.055   6.523   1.481
 3984WAT      O12193   0.123   4.237   6.492
 3984WAT     H112194   0.206   4.182   6.481
 3984WAT     H212195   0.050   4.180   6.528
 3985WAT      O12196   3.119   6.500   4.807
 3985WAT     H112197   3.171   6.581   4.781
 3985WAT     H212198   3.098   6.446   4.725
 3986WAT      O12199   7.659   4.235   3.293
 3986WAT     H112200   7.577   4.260   3.344
 3986WAT     H212201   7.634   4.203   3.202
 3987WAT      O12202   2.037   3.281   6.378
 3987WAT     H112203   2.033   3.340   6.298
 3987WAT     H212204   2.036   3.337   6.461
 3988WAT      O12205   8.519   7.706   5.104
 3988WAT     H112206   8.464   7.696   5.187
 3988WAT     H212207   8.595   7.641   5.106
 3989WAT      O12208   1.629   0.053   7.735
 3989WAT     H112209   1.592  -0.040   7.726
 3989WAT     H212210   1.554   0.117   7.750
 3990WAT      O12211   3.000   9.299   4.177
 3990WAT     H112212   3.029   9.382   4.129
 3990WAT     H212213   2.981   9.227   4.110
 3991WAT      O12214   9.729   5.314   5.110
 3991WAT     H112215   9.803   5.266   5.064
 3991WAT     H212216   9.692   5.257   5.183
 3992WAT      O12217   1.000   0.255   6.336
 3992WAT     H112218   1.086   0.218   6.371
 3992WAT     H212219   0.975   0.206   6.252
 3993WAT      O12220   0.350   8.910   2.230
 3993WAT     H112221   0.292   8.829   2.218
 3993WAT     H212222   0.418   8.913   2.157
 3994WAT      O12223   7.673   9.359   7.890
 3994WAT     H112224   7.582   9.353   7.848
 3994WAT     H212225   7.703   9.454   7.891
 3995WAT      O12226   0.323   0.134   5.325
 3995WAT     H112227   0.347   0.207   5.261
 3995WAT     H212228   0.281   0.059   5.274
 3996WAT      O12229   3.838   0.900   5.290
 3996WAT     H112230   3.825   0.807   5.257
 3996WAT     H212231   3.887   0.899   5.377
 3997WAT      O12232   4.501   1.541   7.166
 3997WAT     H112233   4.595   1.520   7.142
 3997WAT     H212234   4.498   1.630   7.212
 3998WAT      O12235   1.983   4.738   3.357
 3998WAT     H112236   2.012   4.764   3.449
 3998WAT     H212237   2.061   4.702   3.306
 3999WAT      O12238   9.383   1.011   6.421
 3999WAT     H112239   9.431   0.934   6.464
 3999WAT     H212240   9.446   1.088   6.411
 4000WAT      O12241   7.522   6.795   5.065
 4000WAT     H112242   7.599   6.843   5.023
 4000WAT     H212243   7.474   6.741   4.996
 4001WAT      O12244   0.496   1.389   9.189
 4001WAT     H112245   0.592   1.403   9.165
 4001WAT     H212246   0.449   1.478   9.193
 4002WAT      O12247   9.799   7.168   0.404
 4002WAT     H112248   9.717   7.198   0.354
 4002WAT     H212249   9.822   7.236   0.473
 4003WAT      O12250   7.303   8.549   7.537
 4003WAT     H112251   7.361   8.517   7.612
 4003WAT     H212252   7.217   8.499   7.537
 4004WAT      O12253   3.068   7.190   7.002
 4004WAT     H112254   3.110   7.128   6.936
 4004WAT     H212255   2.976   7.215   6.971
 4005WAT      O12256   1.326   1.640   8.011
 4005WAT     H112257   1.285   1.727   8.039
 4005WAT     H212258   1.413   1.658   7.967
 4006WAT      O12259   3.631   2.701   1.546
 4006WAT     H112260   3.658   2.796   1.528
 4006WAT     H212261   3.712   2.642   1.542
 4007WAT      O12262   1.701   5.951   6.031
 4007WAT     H112263   1.665   6.010   6.103
 4007WAT     H212264   1.651   5.864   6.031
 4008WAT      O12265   7.915   5.873   1.835
 4008WAT     H112266   7.986   5.942   1.826
 4008WAT     H212267   7.955   5.782   1.825
 4009WAT      O12268   1.429   6.093   5.956
 4009WAT     H112269   1.345   6.147   5.953
 4009WAT     H212270   1.483   6.120   6.035
 4010WAT      O12271   0.189   1.481   2.711
 4010WAT     H112272   0.271   1.482   2.653
 4010WAT     H212273   0.177   1.390   2.750
 4011WAT      O12274   3.893   9.368   3.783
 4011WAT     H112275   3.992   9.350   3.786
 4011WAT     H212276   3.876   9.463   3.809
 4012WAT      O12277   2.638   3.496   0.621
 4012WAT     H112278   2.645   3.594   0.602
 4012WAT     H212279   2.612   3.483   0.717
 4013WAT      O12280   1.122   1.820   3.696
 4013WAT     H112281   1.164   1.760   3.628
 4013WAT     H212282   1.033   1.782   3.724
 4014WAT      O12283   0.965   4.644   5.357
 4014WAT     H112284   0.989   4.737   5.328
 4014WAT     H212285   0.950   4.587   5.276
 4015WAT      O12286   2.260   8.029   3.406
 4015WAT     H112287   2.247   8.010   3.504
 4015WAT     H212288   2.246   8.126   3.389
 4016WAT      O12289   2.439   7.865   1.830
 4016WAT     H112290   2.450   7.775   1.874
 4016WAT     H212291   2.401   7.929   1.896
 4017WAT      O12292   5.094   6.799   4.868
 4017WAT     H112293   5.159   6.751   4.809
 4017WAT     H212294   5.087   6.752   4.956
 4018WAT      O12295   7.017   4.936   2.819
 4018WAT     H112296   6.967   5.023   2.819
 4018WAT     H212297   6.951   4.861   2.812
 4019WAT      O12298   7.273   8.478   4.393
 4019WAT     H112299   7.176   8.463   4.412
 4019WAT     H212300   7.311   8.398   4.347
 4020WAT      O12301   5.485   9.655   7.924
 4020WAT     H112302   5.433   9.626   7.843
 4020WAT     H212303   5.496   9.577   7.986
 4021WAT      O12304   1.717   0.367   6.553
 4021WAT     H112305   1.633   0.411   6.585
 4021WAT     H212306   1.710   0.349   6.455
 4022WAT      O12307   8.911   5.263   6.599
 4022WAT     H112308   8.933   5.280   6.695
 4022WAT     H212309   8.822   5.304   6.577
 4023WAT      O12310   3.647   9.691   5.569
 4023WAT     H112311   3.725   9.646   5.613
 4023WAT     H212312   3.635   9.654   5.477
 4024WAT      O12313   9.833   1.529   5.201
 4024WAT     H112314   9.784   1.590   5.140
 4024WAT     H212315   9.928   1.558   5.209
 4025WAT      O12316   4.963   0.081   8.718
 4025WAT     H112317   4.939   0.000   8.663
 4025WAT     H212318   5.001   0.052   8.806
 4026WAT      O12319   0.177   5.390   5.243
 4026WAT     H112320   0.123   5.391   5.159
 4026WAT     H212321   0.203   5.296   5.265
 4027WAT      O12322   7.160   4.372   3.655
 4027WAT     H112323   7.126   4.298   3.596
 4027WAT     H212324   7.213   4.437   3.600
 4028WAT      O12325   3.911   2.031   9.774
 4028WAT     H112326   3.873   1.963   9.712
 4028WAT     H212327   3.988   1.991   9.824
 4029WAT      O12328   0.521   1.903   1.643
 4029WAT     H112329   0.546   1.987   1.596
 4029WAT     H212330   0.505   1.830   1.576
 4030WAT      O12331   1.529   6.723   2.508
 4030WAT     H112332   1.467   6.741   2.432
 4030WAT     H212333   1.511   6.633   2.546
 4031WAT      O12334   8.299   9.044   4.725
 4031WAT     H112335   8.257   9.091   4.802
 4031WAT     H212336   8.397   9.031   4.742
 4032WAT      O12337   7.314   2.265   0.302
 4032WAT     H112338   7.397   2.304   0.262
 4032WAT     H212339   7.263   2.337   0.350
 4033WAT      O12340   8.432   2.598   5.606
 4033WAT     H112341   8.390   2.639   5.525
 4033WAT     H212342   8.532   2.602   5.598
 4034WAT      O12343   1.611   2.348   0.989
 4034WAT     H112344   1.550   2.415   1.031
 4034WAT     H212345   1.696   2.392   0.962
 4035WAT      O12346   9.261   9.300   6.315
 4035WAT     H112347   9.196   9.277   6.387
 4035WAT     H212348   9.345   9.246   6.327
 4036WAT      O12349   0.876   8.826   1.287
 4036WAT     H112350   0.876   8.756   1.215
 4036WAT     H212351   0.873   8.781   1.376
 4037WAT      O12352   9.345   1.453   5.661
 4037WAT     H112353   9.278   1.389   5.699
 4037WAT     H212354   9.302   1.541   5.644
 4038WAT      O12355   1.143   4.837   5.880
 4038WAT     H112356   1.195   4.794   5.806
 4038WAT     H212357   1.171   4.933   5.888
 4039WAT      O12358   8.295   7.815   2.272
 4039WAT     H112359   8.370   7.765   2.229
 4039WAT     H212360   8.331   7.894   2.321
 4040WAT      O12361   3.454   9.164   4.221
 4040WAT     H112362   3.510   9.241   4.253
 4040WAT     H212363   3.363   9.170   4.262
 4041WAT      O12364   0.613   2.819   8.488
 4041WAT     H112365   0.565   2.752   8.431
 4041WAT     H212366   0.617   2.786   8.582
 4042WAT      O12367   2.732   2.845   3.329
 4042WAT     H112368   2.676   2.792   3.393
 4042WAT     H212369   2.799   2.898   3.381
 4043WAT      O12370   3.560   3.413   4.625
 4043WAT     H112371   3.520   3.360   4.550
 4043WAT     H212372   3.499   3.489   4.649
 4044WAT      O12373   8.711   5.250   4.065
 4044WAT     H112374   8.796   5.245   4.119
 4044WAT     H212375   8.634   5.222   4.122
 4045WAT      O12376   0.264   6.498   6.888
 4045WAT     H112377   0.359   6.492   6.857
 4045WAT     H212378   0.216   6.414   6.862
 4046WAT      O12379   9.519   6.746   3.557
 4046WAT     H112380   9.442   6.683   3.542
 4046WAT     H212381   9.578   6.710   3.629
 4047WAT      O12382   8.495   5.160   4.766
 4047WAT     H112383   8.502   5.063   4.788
 4047WAT     H212384   8.559   5.212   4.824
 4048WAT      O12385   7.064   8.663   1.466
 4048WAT     H112386   7.129   8.605   1.515
 4048WAT     H212387   7.111   8.745   1.432
 4049WAT      O12388   4.778   4.699   0.953
 4049WAT     H112389   4.782   4.601   0.969
 4049WAT     H212390   4.760   4.716   0.856
 4050WAT      O12391   4.432   5.676   2.014
 4050WAT     H112392   4.436   5.661   2.113
 4050WAT     H212393   4.433   5.588   1.967
 4051WAT      O12394   8.943   7.685   5.025
 4051WAT     H112395   9.009   7.681   5.100
 4051WAT     H212396   8.876   7.611   5.036
 4052WAT      O12397   9.517   7.668   9.350
 4052WAT     H112398   9.473   7.655   9.261
 4052WAT     H212399   9.603   7.717   9.339
 4053WAT      O12400   1.474   5.225   9.610
 4053WAT     H112401   1.510   5.272   9.530
 4053WAT     H212402   1.376   5.244   9.619
 4054WAT      O12403   4.831   4.685   4.326
 4054WAT     H112404   4.878   4.597   4.330
 4054WAT     H212405   4.898   4.759   4.333
 4055WAT      O12406   1.234   5.212   3.584
 4055WAT     H112407   1.216   5.248   3.493
 4055WAT     H212408   1.222   5.285   3.651
 4056WAT      O12409   5.183   5.517   2.257
 4056WAT     H112410   5.227   5.538   2.344
 4056WAT     H212411   5.232   5.563   2.183
 4057WAT      O12412   6.642   2.917   8.553
 4057WAT     H112413   6.688   2.859   8.486
 4057WAT     H212414   6.546   2.889   8.560
 4058WAT      O12415   9.338   3.252   9.218
 4058WAT     H112416   9.300   3.342   9.238
 4058WAT     H212417   9.373   3.211   9.301
 4059WAT      O12418   3.829   4.974   5.206
 4059WAT     H112419   3.790   4.928   5.126
 4059WAT     H212420   3.898   4.915   5.248
 4060WAT      O12421   6.151   4.894   2.005
 4060WAT     H112422   6.068   4.948   2.022
 4060WAT     H212423   6.138   4.801   2.040
 4061WAT      O12424   9.618   6.086   4.787
 4061WAT     H112425   9.601   5.995   4.749
 4061WAT     H212426   9.571   6.154   4.731
 4062WAT      O12427   3.104   3.175   2.991
 4062WAT     H112428   3.176   3.107   3.008
 4062WAT     H212429   3.022   3.129   2.957
 4063WAT      O12430   1.470   9.145   8.677
 4063WAT     H112431   1.419   9.184   8.600
 4063WAT     H212432   1.552   9.201   8.693
 4064WAT      O12433   8.931   3.431   7.750
 4064WAT     H112434   8.961   3.483   7.670
 4064WAT     H212435   8.865   3.486   7.802
 4065WAT      O12436   0.531   8.839   8.121
 4065WAT     H112437   0.459   8.772   8.137
 4065WAT     H212438   0.562   8.876   8.209
 4066WAT      O12439   4.141   0.249   5.217
 4066WAT     H112440   4.214   0.184   5.239
 4066WAT     H212441   4.102   0.285   5.302
 4067WAT      O12442   3.953   4.933   2.682
 4067WAT     H112443   3.980   4.842   2.712
 4067WAT     H212444   3.926   4.988   2.761
 4068WAT      O12445   5.620   9.230   4.479
 4068WAT     H112446   5.592   9.310   4.426
 4068WAT     H212447   5.547   9.204   4.542
 4069WAT      O12448   0.084   4.897   8.483
 4069WAT     H112449   0.073   4.800   8.461
 4069WAT     H212450   0.090   4.950   8.398
 4070WAT      O12451   0.235   3.515   9.575
 4070WAT     H112452   0.275   3.518   9.484
 4070WAT     H212453   0.135   3.511   9.568
 4071WAT      O12454   5.219   3.690   4.494
 4071WAT     H112455   5.131   3.725   4.526
 4071WAT     H212456   5.288   3.761   4.502
 4072WAT      O12457   5.781   3.300   3.728
 4072WAT     H112458   5.733   3.214   3.743
 4072WAT     H212459   5.720   3.376   3.749
 4073WAT      O12460   2.053   8.396   6.332
 4073WAT     H112461   1.990   8.319   6.329
 4073WAT     H212462   2.042   8.445   6.418
 4074WAT      O12463   0.913   4.932   3.810
 4074WAT     H112464   0.900   5.028   3.785
 4074WAT     H212465   0.979   4.926   3.884
 4075WAT      O12466   0.953   1.626   4.653
 4075WAT     H112467   0.948   1.535   4.613
 4075WAT     H212468   0.922   1.623   4.748
 4076WAT      O12469   9.731   2.158   9.146
 4076WAT     H112470   9.796   2.180   9.218
 4076WAT     H212471   9.662   2.094   9.181
 4077WAT      O12472   5.637   8.813   5.577
 4077WAT     H112473   5.704   8.825   5.503
 4077WAT     H212474   5.546   8.802   5.538
 4078WAT      O12475   4.879   0.664   1.391
 4078WAT     H112476   4.824   0.653   1.474
 4078WAT     H212477   4.944   0.588   1.383
 4079WAT      O12478   3.657   3.210   0.539
 4079WAT     H112479   3.730   3.142   0.537
 4079WAT     H212480   3.568   3.165   0.532
 4080WAT      O12481   9.789   1.757   0.976
 4080WAT     H112482   9.695   1.749   0.945
 4080WAT     H212483   9.791   1.775   1.074
 4081WAT      O12484   9.590   9.299   1.984
 4081WAT     H112485   9.503   9.252   2.001
 4081WAT     H212486   9.617   9.349   2.067
 4082WAT      O12487   2.678   4.877   2.132
 4082WAT     H112488   2.604   4.878   2.065
 4082WAT     H212489   2.745   4.807   2.106
 4083WAT      O12490   7.442   2.611   4.484
 4083WAT     H112491   7.352   2.623   4.441
 4083WAT     H212492   7.509   2.582   4.416
 4084WAT      O12493   1.822   7.790   0.753
 4084WAT     H112494   1.918   7.763   0.754
 4084WAT     H212495   1.803   7.841   0.669
 4085WAT      O12496   7.336   0.931   6.157
 4085WAT     H112497   7.293   1.002   6.213
 4085WAT     H212498   7.436   0.938   6.166
 4086WAT      O12499   0.238   2.697   7.053
 4086WAT     H112500   0.289   2.706   7.139
 4086WAT     H212501   0.236   2.600   7.026
 4087WAT      O12502   1.231   2.977   6.589
 4087WAT     H112503   1.210   3.005   6.495
 4087WAT     H212504   1.238   2.878   6.593
 4088WAT      O12505   5.774   1.527   8.898
 4088WAT     H112506   5.825   1.510   8.982
 4088WAT     H212507   5.677   1.540   8.920
 4089WAT      O12508   6.716   3.164   7.967
 4089WAT     H112509   6.716   3.202   7.875
 4089WAT     H212510   6.806   3.177   8.009
 4090WAT      O12511   5.951   2.061   6.957
 4090WAT     H112512   6.034   2.006   6.947
 4090WAT     H212513   5.913   2.048   7.049
 4091WAT      O12514   8.872   0.514   5.522
 4091WAT     H112515   8.858   0.607   5.489
 4091WAT     H212516   8.968   0.489   5.510
 4092WAT      O12517   8.509   0.738   6.148
 4092WAT     H112518   8.493   0.744   6.050
 4092WAT     H212519   8.452   0.805   6.196
 4093WAT      O12520   0.415   0.241   1.338
 4093WAT     H112521   0.398   0.209   1.431
 4093WAT     H212522   0.469   0.325   1.341
 4094WAT      O12523   5.576   8.676   5.786
 4094WAT     H112524   5.613   8.742   5.852
 4094WAT     H212525   5.595   8.707   5.693
 4095WAT      O12526   9.698   4.165   4.953
 4095WAT     H112527   9.654   4.139   5.040
 4095WAT     H212528   9.793   4.188   4.970
 4096WAT      O12529   7.917   9.203   6.344
 4096WAT     H112530   7.912   9.153   6.257
 4096WAT     H212531   7.952   9.295   6.327
 4097WAT      O12532   3.989   0.304   6.612
 4097WAT     H112533   4.012   0.398   6.636
 4097WAT     H212534   3.893   0.300   6.584
 4098WAT      O12535   7.705   9.069   6.845
 4098WAT     H112536   7.637   9.028   6.784
 4098WAT     H212537   7.796   9.038   6.818
 4099WAT      O12538   6.249   0.916   8.017
 4099WAT     H112539   6.294   0.970   7.946
 4099WAT     H212540   6.314   0.893   8.089
 4100WAT      O12541   9.193   2.048   4.615
 4100WAT     H112542   9.211   2.106   4.695
 4100WAT     H212543   9.245   1.962   4.624
 4101WAT      O12544   8.133   7.876   7.205
 4101WAT     H112545   8.124   7.914   7.297
 4101WAT     H212546   8.229   7.859   7.184
 4102WAT      O12547   4.719   9.250   7.175
 4102WAT     H112548   4.735   9.157   7.206
 4102WAT     H212549   4.625   9.277   7.194
 4103WAT      O12550   1.497   4.135   8.886
 4103WAT     H112551   1.479   4.036   8.885
 4103WAT     H212552   1.495   4.168   8.981
 4104WAT      O12553   3.943   2.186   2.845
 4104WAT     H112554   3.919   2.283   2.845
 4104WAT     H212555   3.899   2.141   2.923
 4105WAT      O12556   0.828   1.750   8.477
 4105WAT     H112557   0.832   1.817   8.551
 4105WAT     H212558   0.921   1.730   8.446
 4106WAT      O12559   8.758   3.162   5.281
 4106WAT     H112560   8.797   3.096   5.345
 4106WAT     H212561   8.665   3.185   5.309
 4107WAT      O12562   0.651   5.429   6.607
 4107WAT     H112563   0.656   5.355   6.541
 4107WAT     H212564   0.600   5.506   6.568
 4108WAT      O12565   6.796   7.213   5.455
 4108WAT     H112566   6.735   7.225   5.533
 4108WAT     H212567   6.743   7.200   5.372
 4109WAT      O12568   5.488   1.534   7.438
 4109WAT     H112569   5.503   1.524   7.537
 4109WAT     H212570   5.396   1.503   7.415
 4110WAT      O12571   2.528   2.331   4.838
 4110WAT     H112572   2.599   2.392   4.802
 4110WAT     H212573   2.503   2.264   4.768
 4111WAT      O12574   6.278   1.838   5.271
 4111WAT     H112575   6.329   1.872   5.192
 4111WAT     H212576   6.207   1.775   5.241
 4112WAT      O12577   9.480   1.319   7.769
 4112WAT     H112578   9.534   1.397   7.737
 4112WAT     H212579   9.387   1.349   7.790
 4113WAT      O12580   6.832   3.644   0.644
 4113WAT     H112581   6.840   3.624   0.546
 4113WAT     H212582   6.818   3.742   0.658
 4114WAT      O12583   1.875   5.642   5.897
 4114WAT     H112584   1.901   5.730   5.938
 4114WAT     H212585   1.828   5.659   5.810
 4115WAT      O12586   8.271   9.511   5.885
 4115WAT     H112587   8.198   9.573   5.914
 4115WAT     H212588   8.238   9.455   5.809
 4116WAT      O12589   9.469   2.722   2.651
 4116WAT     H112590   9.470   2.759   2.744
 4116WAT     H212591   9.539   2.651   2.643
 4117WAT      O12592   4.170   7.648   5.768
 4117WAT     H112593   4.150   7.550   5.778
 4117WAT     H212594   4.217   7.663   5.681
 4118WAT      O12595   8.819   5.445   4.694
 4118WAT     H112596   8.908   5.487   4.709
 4118WAT     H212597   8.792   5.393   4.776
 4119WAT      O12598   2.670   2.575   2.113
 4119WAT     H112599   2.757   2.585   2.065
 4119WAT     H212600   2.599   2.624   2.063
 4120WAT      O12601   2.352   9.010   4.658
 4120WAT     H112602   2.385   9.079   4.593
 4120WAT     H212603   2.429   8.959   4.695
 4121WAT      O12604   7.958   5.858   7.421
 4121WAT     H112605   7.870   5.860   7.468
 4121WAT     H212606   7.974   5.767   7.385
 4122WAT      O12607   5.107   2.528   0.333
 4122WAT     H112608   5.168   2.454   0.360
 4122WAT     H212609   5.156   2.616   0.341
 4123WAT      O12610   6.505   3.587   7.032
 4123WAT     H112611   6.525   3.658   7.099
 4123WAT     H212612   6.512   3.497   7.075
 4124WAT      O12613   3.079   8.870   8.318
 4124WAT     H112614   3.167   8.824   8.303
 4124WAT     H212615   3.019   8.853   8.240
 4125WAT      O12616   6.024   6.240   6.850
 4125WAT     H112617   6.056   6.335   6.853
 4125WAT     H212618   6.070   6.187   6.921
 4126WAT      O12619   2.002   8.925   0.583
 4126WAT     H112620   1.993   8.988   0.505
 4126WAT     H212621   2.010   8.978   0.668
 4127WAT      O12622   0.867   5.219   3.031
 4127WAT     H112623   0.845   5.223   2.934
 4127WAT     H212624   0.837   5.131   3.068
 4128WAT      O12625   6.616   2.316   8.126
 4128WAT     H112626   6.633   2.358   8.215
 4128WAT     H212627   6.575   2.226   8.139
 4129WAT      O12628   9.177   9.053   1.177
 4129WAT     H112629   9.245   9.074   1.107
 4129WAT     H212630   9.223   9.022   1.260
 4130WAT      O12631   6.106   9.826   1.651
 4130WAT     H112632   6.073   9.737   1.619
 4130WAT     H212633   6.085   9.837   1.748
 4131WAT      O12634   7.913   5.993   5.858
 4131WAT     H112635   7.956   6.065   5.804
 4131WAT     H212636   7.910   6.022   5.954
 4132WAT      O12637   4.448   7.473   5.906
 4132WAT     H112638   4.389   7.397   5.934
 4132WAT     H212639   4.475   7.461   5.811
 4133WAT      O12640   7.777   7.861   1.345
 4133WAT     H112641   7.809   7.778   1.300
 4133WAT     H212642   7.774   7.936   1.278
 4134WAT      O12643   4.337   7.517   1.443
 4134WAT     H112644   4.414   7.457   1.465
 4134WAT     H212645   4.342   7.600   1.498
 4135WAT      O12646   5.559   0.479   6.007
 4135WAT     H112647   5.548   0.400   5.947
 4135WAT     H212648   5.642   0.468   6.061
 4136WAT      O12649   9.500   3.874   8.137
 4136WAT     H112650   9.439   3.824   8.198
 4136WAT     H212651   9.581   3.903   8.187
 4137WAT      O12652   8.862   0.917   2.224
 4137WAT     H112653   8.926   0.842   2.242
 4137WAT     H212654   8.867   0.943   2.128
 4138WAT      O12655   6.758   6.369   4.800
 4138WAT     H112656   6.672   6.350   4.847
 4138WAT     H212657   6.829   6.305   4.831
 4139WAT      O12658   4.980   5.535   7.337
 4139WAT     H112659   4.998   5.445   7.297
 4139WAT     H212660   4.931   5.591   7.271
 4140WAT      O12661   1.611   6.282   7.856
 4140WAT     H112662   1.590   6.342   7.934
 4140WAT     H212663   1.698   6.309   7.816
 4141WAT      O12664   7.897   1.714   3.163
 4141WAT     H112665   7.926   1.724   3.068
 4141WAT     H212666   7.801   1.741   3.171
 4142WAT      O12667   2.030   9.277   7.554
 4142WAT     H112668   2.095   9.210   7.518
 4142WAT     H212669   2.070   9.324   7.632
 4143WAT      O12670   2.867   4.140   3.047
 4143WAT     H112671   2.826   4.208   2.987
 4143WAT     H212672   2.912   4.070   2.991
 4144WAT      O12673   6.910   1.976   5.458
 4144WAT     H112674   6.967   1.959   5.377
 4144WAT     H212675   6.864   2.064   5.448
 4145WAT      O12676   6.623   0.519   4.263
 4145WAT     H112677   6.663   0.433   4.230
 4145WAT     H212678   6.525   0.507   4.277
 4146WAT      O12679   9.420   3.814   2.133
 4146WAT     H112680   9.499   3.759   2.107
 4146WAT     H212681   9.353   3.814   2.059
 4147WAT      O12682   8.491   4.808   9.783
 4147WAT     H112683   8.479   4.890   9.728
 4147WAT     H212684   8.445   4.731   9.738
 4148WAT      O12685   7.371   3.850   0.276
 4148WAT     H112686   7.293   3.836   0.215
 4148WAT     H212687   7.451   3.800   0.241
 4149WAT      O12688   9.084   1.178   3.010
 4149WAT     H112689   9.115   1.091   3.049
 4149WAT     H212690   9.071   1.245   3.084
 4150WAT      O12691   8.702   1.189   0.150
 4150WAT     H112692   8.648   1.136   0.216
 4150WAT     H212693   8.643   1.255   0.105
 4151WAT      O12694   5.388   2.742   1.061
 4151WAT     H112695   5.361   2.782   1.148
 4151WAT     H212696   5.384   2.812   0.989
 4152WAT      O12697   2.849   2.448   4.311
 4152WAT     H112698   2.948   2.451   4.303
 4152WAT     H212699   2.824   2.433   4.407
 4153WAT      O12700   3.276   3.532   4.934
 4153WAT     H112701   3.359   3.578   4.965
 4153WAT     H212702   3.301   3.446   4.887
 4154WAT      O12703   2.007   0.186   9.008
 4154WAT     H112704   2.041   0.113   8.948
 4154WAT     H212705   2.084   0.243   9.038
 4155WAT      O12706   2.430   8.582   8.229
 4155WAT     H112707   2.496   8.588   8.154
 4155WAT     H212708   2.474   8.608   8.315
 4156WAT      O12709   5.703   3.231   0.368
 4156WAT     H112710   5.646   3.196   0.442
 4156WAT     H212711   5.677   3.325   0.346
 4157WAT      O12712   3.781   8.159   7.054
 4157WAT     H112713   3.757   8.237   6.997
 4157WAT     H212714   3.746   8.075   7.012
 4158WAT      O12715   4.472   8.609   9.877
 4158WAT     H112716   4.475   8.657   9.789
 4158WAT     H212717   4.399   8.647   9.933
 4159WAT      O12718   1.732   1.517   4.006
 4159WAT     H112719   1.718   1.558   4.096
 4159WAT     H212720   1.775   1.427   4.016
 4160WAT      O12721   8.545   9.552   2.668
 4160WAT     H112722   8.496   9.530   2.584
 4160WAT     H212723   8.495   9.516   2.747
 4161WAT      O12724   4.135   5.041   3.938
 4161WAT     H112725   4.139   5.079   4.030
 4161WAT     H212726   4.210   5.078   3.883
 4162WAT      O12727   8.065   0.297   0.998
 4162WAT     H112728   8.029   0.380   1.041
 4162WAT     H212729   8.054   0.220   1.060
 4163WAT      O12730   7.362   0.074   1.349
 4163WAT     H112731   7.313   0.154   1.383
 4163WAT     H212732   7.297  -0.000   1.331
 4164WAT      O12733   5.545   4.258   3.478
 4164WAT     H112734   5.551   4.324   3.403
 4164WAT     H212735   5.459   4.272   3.527
 4165WAT      O12736   1.304   8.397   9.629
 4165WAT     H112737   1.331   8.327   9.562
 4165WAT     H212738   1.205   8.399   9.637
 4166WAT      O12739   9.115   9.036   4.104
 4166WAT     H112740   9.040   9.050   4.039
 4166WAT     H212741   9.180   8.970   4.066
 4167WAT      O12742   4.184   4.168   7.469
 4167WAT     H112743   4.092   4.191   7.500
 4167WAT     H212744   4.186   4.072   7.439
 4168WAT      O12745   7.674   6.853   2.356
 4168WAT     H112746   7.611   6.901   2.296
 4168WAT     H212747   7.746   6.915   2.387
 4169WAT      O12748   5.456   6.951   7.911
 4169WAT     H112749   5.433   7.048   7.918
 4169WAT     H212750   5.419   6.903   7.991
 4170WAT      O12751   6.009   0.345   9.049
 4170WAT     H112752   6.031   0.387   9.137
 4170WAT     H212753   5.974   0.253   9.064
 4171WAT      O12754   8.730   3.968   9.438
 4171WAT     H112755   8.721   3.986   9.536
 4171WAT     H212756   8.734   3.870   9.422
 4172WAT      O12757   4.654   6.537   0.606
 4172WAT     H112758   4.657   6.555   0.705
 4172WAT     H212759   4.598   6.456   0.589
 4173WAT      O12760   5.183   3.495   1.341
 4173WAT     H112761   5.108   3.434   1.316
 4173WAT     H212762   5.165   3.535   1.431
 4174WAT      O12763   3.546   0.896   3.942
 4174WAT     H112764   3.583   0.812   3.983
 4174WAT     H212765   3.479   0.936   4.004
 4175WAT      O12766   2.752   5.239   0.593
 4175WAT     H112767   2.798   5.150   0.596
 4175WAT     H212768   2.694   5.249   0.673
 4176WAT      O12769   6.334   9.232   1.684
 4176WAT     H112770   6.422   9.184   1.694
 4176WAT     H212771   6.338   9.292   1.605
 4177WAT      O12772   4.209   7.923   8.713
 4177WAT     H112773   4.139   7.880   8.769
 4177WAT     H212774   4.220   7.871   8.628
 4178WAT      O12775   4.644   7.269   3.621
 4178WAT     H112776   4.709   7.325   3.570
 4178WAT     H212777   4.649   7.174   3.590
 4179WAT      O12778   7.531   7.177   1.764
 4179WAT     H112779   7.468   7.109   1.803
 4179WAT     H212780   7.591   7.212   1.835
 4180WAT      O12781   7.634   3.577   1.148
 4180WAT     H112782   7.719   3.620   1.118
 4180WAT     H212783   7.617   3.599   1.244
 4181WAT      O12784   4.635   6.032   6.208
 4181WAT     H112785   4.701   5.961   6.185
 4181WAT     H212786   4.632   6.100   6.135
 4182WAT      O12787   8.429   5.420   0.509
 4182WAT     H112788   8.464   5.514   0.511
 4182WAT     H212789   8.330   5.421   0.519
 4183WAT      O12790   8.088   9.644   3.203
 4183WAT     H112791   8.027   9.699   3.261
 4183WAT     H212792   8.047   9.554   3.187
 4184WAT      O12793   2.336   2.730   0.664
 4184WAT     H112794   2.267   2.728   0.736
 4184WAT     H212795   2.423   2.693   0.699
 4185WAT      O12796   1.458   1.554   2.156
 4185WAT     H112797   1.451   1.558   2.056
 4185WAT     H212798   1.469   1.647   2.192
 4186WAT      O12799   6.525   7.866   9.002
 4186WAT     H112800   6.600   7.825   9.054
 4186WAT     H212801   6.442   7.866   9.057
 4187WAT      O12802   1.366   1.219   6.520
 4187WAT     H112803   1.450   1.266   6.493
 4187WAT     H212804   1.288   1.261   6.473
 4188WAT      O12805   5.716   8.269   2.524
 4188WAT     H112806   5.733   8.362   2.557
 4188WAT     H212807   5.788   8.243   2.460
 4189WAT      O12808   1.129   1.218   0.713
 4189WAT     H112809   1.109   1.273   0.795
 4189WAT     H212810   1.211   1.253   0.669
 4190WAT      O12811   3.922   4.356   4.150
 4190WAT     H112812   3.849   4.328   4.087
 4190WAT     H212813   4.002   4.382   4.097
 4191WAT      O12814   0.341   2.202   0.575
 4191WAT     H112815   0.311   2.238   0.664
 4191WAT     H212816   0.281   2.237   0.503
 4192WAT      O12817   0.535   8.344   5.423
 4192WAT     H112818   0.563   8.423   5.369
 4192WAT     H212819   0.558   8.359   5.519
 4193WAT      O12820   1.622   0.812   0.178
 4193WAT     H112821   1.534   0.812   0.130
 4193WAT     H212822   1.669   0.726   0.159
 4194WAT      O12823   0.729   1.273   5.857
 4194WAT     H112824   0.788   1.300   5.934
 4194WAT     H212825   0.638   1.312   5.870
 4195WAT      O12826   5.981   3.553   8.948
 4195WAT     H112827   5.904   3.555   9.013
 4195WAT     H212828   6.019   3.460   8.944
 4196WAT      O12829   5.427   8.192   6.245
 4196WAT     H112830   5.437   8.219   6.340
 4196WAT     H212831   5.333   8.161   6.228
 4197WAT      O12832   6.220   1.016   2.322
 4197WAT     H112833   6.196   1.091   2.385
 4197WAT     H212834   6.286   0.955   2.367
 4198WAT      O12835   3.317   5.329   7.855
 4198WAT     H112836   3.235   5.386   7.865
 4198WAT     H212837   3.362   5.352   7.769
 4199WAT      O12838   9.050   4.443   6.855
 4199WAT     H112839   9.146   4.415   6.854
 4199WAT     H212840   9.040   4.532   6.811
 4200WAT      O12841   4.924   2.297   9.203
 4200WAT     H112842   4.910   2.305   9.105
 4200WAT     H212843   4.896   2.382   9.248
 4201WAT      O12844   3.979   2.783   2.290
 4201WAT     H112845   4.031   2.707   2.252
 4201WAT     H212846   3.935   2.833   2.215
 4202WAT      O12847   7.987   3.483   3.121
 4202WAT     H112848   8.048   3.437   3.055
 4202WAT     H212849   8.021   3.468   3.214
 4203WAT      O12850   6.014   7.874   3.246
 4203WAT     H112851   6.102   7.913   3.275
 4203WAT     H212852   6.026   7.826   3.159
 4204WAT      O12853   0.250   6.643   1.212
 4204WAT     H112854   0.251   6.585   1.293
 4204WAT     H212855   0.156   6.672   1.192
 4205WAT      O12856   6.688   5.430   4.940
 4205WAT     H112857   6.728   5.352   4.989
 4205WAT     H212858   6.742   5.449   4.859
 4206WAT      O12859   0.831   1.103   0.726
 4206WAT     H112860   0.788   1.067   0.643
 4206WAT     H212861   0.889   1.181   0.702
 4207WAT      O12862   4.110   3.287   8.654
 4207WAT     H112863   4.028   3.231   8.642
 4207WAT     H212864   4.087   3.371   8.702
 4208WAT      O12865   7.936   8.055   0.114
 4208WAT     H112866   7.854   8.053   0.171
 4208WAT     H212867   7.986   7.969   0.124
 4209WAT      O12868   5.433   8.544   3.298
 4209WAT     H112869   5.406   8.465   3.244
 4209WAT     H212870   5.432   8.626   3.241
 4210WAT      O12871   3.961   1.455   9.178
 4210WAT     H112872   4.047   1.492   9.144
 4210WAT     H212873   3.981   1.382   9.244
 4211WAT      O12874   6.079   2.531   8.493
 4211WAT     H112875   6.037   2.507   8.406
 4211WAT     H212876   6.171   2.566   8.477
 4212WAT      O12877   0.745   2.396   8.162
 4212WAT     H112878   0.703   2.334   8.228
 4212WAT     H212879   0.680   2.468   8.139
 4213WAT      O12880   3.331   4.050   9.517
 4213WAT     H112881   3.293   4.096   9.597
 4213WAT     H212882   3.428   4.034   9.531
 4214WAT      O12883   2.856   1.545   9.763
 4214WAT     H112884   2.803   1.504   9.689
 4214WAT     H212885   2.869   1.642   9.745
 4215WAT      O12886   1.791   4.527   1.348
 4215WAT     H112887   1.843   4.556   1.429
 4215WAT     H212888   1.847   4.463   1.295
 4216WAT      O12889   3.050   0.370   0.894
 4216WAT     H112890   2.952   0.384   0.906
 4216WAT     H212891   3.099   0.453   0.920
 4217WAT      O12892   7.392   3.757   1.089
 4217WAT     H112893   7.387   3.761   0.989
 4217WAT     H212894   7.457   3.685   1.116
 4218WAT      O12895   0.457   5.174   2.684
 4218WAT     H112896   0.444   5.174   2.585
 4218WAT     H212897   0.378   5.215   2.729
 4219WAT      O12898   1.448   6.362   9.299
 4219WAT     H112899   1.349   6.348   9.295
 4219WAT     H212900   1.489   6.334   9.212
 4220WAT      O12901   6.520   6.071   0.516
 4220WAT     H112902   6.517   5.976   0.484
 4220WAT     H212903   6.573   6.126   0.451
 4221WAT      O12904   5.123   5.290   4.343
 4221WAT     H112905   5.141   5.354   4.417
 4221WAT     H212906   5.033   5.249   4.356
 4222WAT      O12907   9.295   0.723   6.056
 4222WAT     H112908   9.391   0.702   6.077
 4222WAT     H212909   9.284   0.821   6.045
 4223WAT      O12910   1.025   6.283   3.166
 4223WAT     H112911   0.981   6.220   3.231
 4223WAT     H212912   1.123   6.266   3.165
 4224WAT      O12913   7.103   5.692   1.378
 4224WAT     H112914   7.057   5.617   1.330
 4224WAT     H212915   7.035   5.751   1.420
 4225WAT      O12916   3.337   9.306   8.762
 4225WAT     H112917   3.262   9.315   8.827
 4225WAT     H212918   3.423   9.294   8.812
 4226WAT      O12919   3.081   1.937   2.517
 4226WAT     H112920   3.063   1.998   2.593
 4226WAT     H212921   3.009   1.868   2.512
 4227WAT      O12922   3.484   7.888   3.799
 4227WAT     H112923   3.459   7.972   3.750
 4227WAT     H212924   3.406   7.824   3.797
 4228WAT      O12925   3.760   0.745   9.868
 4228WAT     H112926   3.860   0.745   9.873
 4228WAT     H212927   3.728   0.658   9.829
 4229WAT      O12928   2.582   3.237   6.965
 4229WAT     H112929   2.578   3.160   6.902
 4229WAT     H212930   2.529   3.216   7.047
 4230WAT      O12931   9.683   5.861   4.238
 4230WAT     H112932   9.766   5.915   4.247
 4230WAT     H212933   9.605   5.923   4.225
 4231WAT      O12934   8.574   8.086   3.204
 4231WAT     H112935   8.562   8.022   3.280
 4231WAT     H212936   8.500   8.154   3.205
 4232WAT      O12937   7.860   6.353   6.025
 4232WAT     H112938   7.845   6.344   5.926
 4232WAT     H212939   7.881   6.263   6.063
 4233WAT      O12940   9.020   6.525   4.951
 4233WAT     H112941   9.020   6.472   5.036
 4233WAT     H212942   8.935   6.508   4.901
 4234WAT      O12943   6.023   7.623   1.404
 4234WAT     H112944   6.052   7.678   1.482
 4234WAT     H212945   5.923   7.618   1.402
 4235WAT      O12946   4.554   3.874   7.765
 4235WAT     H112947   4.465   3.829   7.770
 4235WAT     H212948   4.543   3.964   7.724
 4236WAT      O12949   4.125   8.385   0.624
 4236WAT     H112950   4.135   8.474   0.578
 4236WAT     H212951   4.092   8.317   0.559
 4237WAT      O12952   0.203   2.734   6.381
 4237WAT     H112953   0.233   2.774   6.468
 4237WAT     H212954   0.250   2.780   6.306
 4238WAT      O12955   3.014   6.907   0.319
 4238WAT     H112956   3.000   6.844   0.242
 4238WAT     H212957   3.002   6.857   0.405
 4239WAT      O12958   2.919   1.784   0.677
 4239WAT     H112959   2.912   1.755   0.582
 4239WAT     H212960   2.854   1.732   0.732
 4240WAT      O12961   9.487   1.802   0.246
 4240WAT     H112962   9.389   1.784   0.235
 4240WAT     H212963   9.539   1.736   0.192
 4241WAT      O12964   1.980   8.814   6.145
 4241WAT     H112965   1.910   8.747   6.169
 4241WAT     H212966   1.938   8.903   6.130
 4242WAT      O12967   3.847   0.785   9.122
 4242WAT     H112968   3.790   0.705   9.100
 4242WAT     H212969   3.827   0.814   9.216
 4243WAT      O12970   4.593   9.709   7.132
 4243WAT     H112971   4.643   9.640   7.079
 4243WAT     H212972   4.499   9.715   7.098
 4244WAT      O12973   1.776   8.462   4.676
 4244WAT     H112974   1.796   8.560   4.682
 4244WAT     H212975   1.795   8.419   4.764
 4245WAT      O12976   2.638   8.495   2.258
 4245WAT     H112977   2.589   8.463   2.340
 4245WAT     H212978   2.614   8.590   2.240
 4246WAT      O12979   4.368   0.573   7.661
 4246WAT     H112980   4.421   0.492   7.634
 4246WAT     H212981   4.284   0.544   7.707
 4247WAT      O12982   9.425   4.754   5.836
 4247WAT     H112983   9.375   4.795   5.911
 4247WAT     H212984   9.521   4.785   5.838
 4248WAT      O12985   7.438   8.774   2.790
 4248WAT     H112986   7.484   8.856   2.756
 4248WAT     H212987   7.339   8.784   2.779
 4249WAT      O12988   9.820   1.093   5.622
 4249WAT     H112989   9.884   1.170   5.628
 4249WAT     H212990   9.757   1.109   5.545
 4250WAT      O12991   7.944   6.674   8.771
 4250WAT     H112992   7.869   6.663   8.836
 4250WAT     H212993   8.031   6.674   8.820
 4251WAT      O12994   7.780   8.832   4.259
 4251WAT     H112995   7.834   8.914   4.275
 4251WAT     H212996   7.753   8.827   4.163
 4252WAT      O12997   3.352   3.412   7.684
 4252WAT     H112998   3.386   3.461   7.764
 4252WAT     H212999   3.255   3.388   7.699
 4253WAT      O13000   5.051   4.920   5.809
 4253WAT     H113001   4.952   4.935   5.804
 4253WAT     H213002   5.080   4.923   5.905
 4254WAT      O13003   3.065   3.200   6.167
 4254WAT     H113004   3.149   3.243   6.135
 4254WAT     H213005   3.074   3.101   6.162
 4255WAT      O13006   6.813   3.165   5.968
 4255WAT     H113007   6.879   3.147   6.041
 4255WAT     H213008   6.831   3.104   5.891
 4256WAT      O13009   8.386   0.270   1.035
 4256WAT     H113010   8.302   0.323   1.050
 4256WAT     H213011   8.448   0.322   0.976
 4257WAT      O13012   0.156   7.496   0.404
 4257WAT     H113013   0.165   7.462   0.310
 4257WAT     H213014   0.106   7.583   0.403
 4258WAT      O13015   5.262   5.863   2.304
 4258WAT     H113016   5.287   5.818   2.218
 4258WAT     H213017   5.170   5.833   2.331
 4259WAT      O13018   0.136   2.318   4.799
 4259WAT     H113019   0.233   2.338   4.813
 4259WAT     H213020   0.081   2.378   4.858
 4260WAT      O13021   1.714   3.488   7.201
 4260WAT     H113022   1.779   3.469   7.128
 4260WAT     H213023   1.759   3.479   7.289
 4261WAT      O13024   6.971   6.288   1.456
 4261WAT     H113025   7.063   6.255   1.434
 4261WAT     H213026   6.904   6.234   1.404
 4262WAT      O13027   6.029   6.535   0.610
 4262WAT     H113028   6.080   6.601   0.555
 4262WAT     H213029   6.059   6.443   0.589
 4263WAT      O13030   8.116   3.867   4.821
 4263WAT     H113031   8.173   3.794   4.782
 4263WAT     H213032   8.164   3.910   4.897
 4264WAT      O13033   5.084   6.545   3.087
 4264WAT     H113034   5.022   6.550   3.008
 4264WAT     H213035   5.070   6.459   3.134
 4265WAT      O13036   8.550   0.334   2.883
 4265WAT     H113037   8.610   0.404   2.921
 4265WAT     H213038   8.578   0.311   2.790
 4266WAT      O13039   2.282   0.750   1.348
 4266WAT     H113040   2.243   0.659   1.366
 4266WAT     H213041   2.357   0.767   1.412
 4267WAT      O13042   5.615   8.837   6.755
 4267WAT     H113043   5.617   8.780   6.838
 4267WAT     H213044   5.649   8.929   6.778
 4268WAT      O13045   0.066   6.728   8.507
 4268WAT     H113046   0.138   6.673   8.548
 4268WAT     H213047  -0.015   6.727   8.566
 4269WAT      O13048   0.791   3.263   7.184
 4269WAT     H113049   0.840   3.226   7.264
 4269WAT     H213050   0.846   3.247   7.102
 4270WAT      O13051   7.538   0.851   1.699
 4270WAT     H113052   7.588   0.772   1.736
 4270WAT     H213053   7.505   0.907   1.775
 4271WAT      O13054   3.019   2.130   5.035
 4271WAT     H113055   3.087   2.183   4.985
 4271WAT     H213056   3.041   2.131   5.133
 4272WAT      O13057   9.146   7.558   0.703
 4272WAT     H113058   9.142   7.503   0.620
 4272WAT     H213059   9.099   7.510   0.777
 4273WAT      O13060   3.478   5.665   3.287
 4273WAT     H113061   3.490   5.738   3.220
 4273WAT     H213062   3.392   5.679   3.336
 4274WAT      O13063   5.181   8.896   4.008
 4274WAT     H113064   5.171   8.968   4.076
 4274WAT     H213065   5.091   8.858   3.987
 4275WAT      O13066   0.283   1.572   8.733
 4275WAT     H113067   0.213   1.507   8.762
 4275WAT     H213068   0.373   1.532   8.747
 4276WAT      O13069   4.819   3.238   6.740
 4276WAT     H113070   4.777   3.305   6.680
 4276WAT     H213071   4.806   3.146   6.703
 4277WAT      O13072   9.572   1.172   7.971
 4277WAT     H113073   9.656   1.226   7.971
 4277WAT     H213074   9.502   1.220   7.918
 4278WAT      O13075   6.771   3.631   6.578
 4278WAT     H113076   6.723   3.551   6.543
 4278WAT     H213077   6.790   3.694   6.502
 4279WAT      O13078   0.526   4.284   9.186
 4279WAT     H113079   0.437   4.257   9.223
 4279WAT     H213080   0.528   4.268   9.087
 4280WAT      O13081   2.962   3.589   4.155
 4280WAT     H113082   2.988   3.506   4.105
 4280WAT     H213083   2.943   3.663   4.089
 4281WAT      O13084   2.731   7.729   1.689
 4281WAT     H113085   2.739   7.637   1.727
 4281WAT     H213086   2.660   7.779   1.738
 4282WAT      O13087   7.923   8.977   2.213
 4282WAT     H113088   7.880   9.067   2.204
 4282WAT     H213089   7.978   8.958   2.131
 4283WAT      O13090   3.696   1.839   4.310
 4283WAT     H113091   3.653   1.896   4.240
 4283WAT     H213092   3.649   1.851   4.397
 4284WAT      O13093   2.005   3.077   0.814
 4284WAT     H113094   1.961   3.121   0.892
 4284WAT     H213095   1.984   3.127   0.731
 4285WAT      O13096   8.026   1.416   9.836
 4285WAT     H113097   8.061   1.331   9.875
 4285WAT     H213098   8.086   1.492   9.863
 4286WAT      O13099   5.362   1.980   8.882
 4286WAT     H113100   5.400   2.070   8.902
 4286WAT     H213101   5.265   1.990   8.859
 4287WAT      O13102   0.241   9.347   6.888
 4287WAT     H113103   0.248   9.273   6.954
 4287WAT     H213104   0.285   9.429   6.925
 4288WAT      O13105   3.531   0.376   3.105
 4288WAT     H113106   3.580   0.455   3.068
 4288WAT     H213107   3.596   0.307   3.137
 4289WAT      O13108   4.671   8.847   5.354
 4289WAT     H113109   4.678   8.892   5.443
 4289WAT     H213110   4.632   8.911   5.287
 4290WAT      O13111   2.724   6.780   2.765
 4290WAT     H113112   2.732   6.835   2.682
 4290WAT     H213113   2.686   6.835   2.839
 4291WAT      O13114   2.606   3.107   7.756
 4291WAT     H113115   2.634   3.202   7.768
 4291WAT     H213116   2.682   3.054   7.721
 4292WAT      O13117   8.631   4.307   6.661
 4292WAT     H113118   8.630   4.222   6.609
 4292WAT     H213119   8.624   4.286   6.759
 4293WAT      O13120   8.043   3.980   7.095
 4293WAT     H113121   8.119   4.034   7.134
 4293WAT     H213122   7.987   4.039   7.037
 4294WAT      O13123   8.502   2.883   0.923
 4294WAT     H113124   8.464   2.910   0.834
 4294WAT     H213125   8.535   2.789   0.919
 4295WAT      O13126   4.288   4.391   5.111
 4295WAT     H113127   4.217   4.461   5.120
 4295WAT     H213128   4.369   4.431   5.068
 4296WAT      O13129   4.525   2.050   0.713
 4296WAT     H113130   4.501   2.112   0.638
 4296WAT     H213131   4.592   1.983   0.680
 4297WAT      O13132   5.832   5.133   9.052
 4297WAT     H113133   5.786   5.215   9.017
 4297WAT     H213134   5.928   5.134   9.023
 4298WAT      O13135   0.364   6.970   1.829
 4298WAT     H113136   0.457   6.990   1.798
 4298WAT     H213137   0.368   6.915   1.912
 4299WAT      O13138   6.656   6.633   0.335
 4299WAT     H113139   6.577   6.602   0.282
 4299WAT     H213140   6.670   6.571   0.412
 4300WAT      O13141   8.921   1.863   9.183
 4300WAT     H113142   8.914   1.958   9.153
 4300WAT     H213143   8.867   1.805   9.122
 4301WAT      O13144   0.078   4.318   3.418
 4301WAT     H113145   0.132   4.246   3.377
 4301WAT     H213146   0.138   4.383   3.464
 4302WAT      O13147   2.335   7.369   2.670
 4302WAT     H113148   2.370   7.278   2.693
 4302WAT     H213149   2.297   7.369   2.578
 4303WAT      O13150   8.514   0.471   5.946
 4303WAT     H113151   8.523   0.440   5.851
 4303WAT     H213152   8.605   0.480   5.986
 4304WAT      O13153   0.389   1.569   6.901
 4304WAT     H113154   0.434   1.583   6.989
 4304WAT     H213155   0.421   1.638   6.835
 4305WAT      O13156   9.677   7.523   7.462
 4305WAT     H113157   9.704   7.516   7.558
 4305WAT     H213158   9.578   7.518   7.455
 4306WAT      O13159   3.569   8.040   7.679
 4306WAT     H113160   3.603   8.133   7.670
 4306WAT     H213161   3.486   8.029   7.625
 4307WAT      O13162   2.475   2.028   1.524
 4307WAT     H113163   2.573   2.030   1.504
 4307WAT     H213164   2.427   2.083   1.455
 4308WAT      O13165   4.067   2.590   5.154
 4308WAT     H113166   4.115   2.514   5.198
 4308WAT     H213167   4.125   2.627   5.081
 4309WAT      O13168   6.437   7.177   2.867
 4309WAT     H113169   6.520   7.121   2.859
 4309WAT     H213170   6.427   7.233   2.784
 4310WAT      O13171   6.742   6.934   4.986
 4310WAT     H113172   6.727   6.862   4.919
 4310WAT     H213173   6.712   7.022   4.948
 4311WAT      O13174   2.607   9.553   8.989
 4311WAT     H113175   2.529   9.535   8.929
 4311WAT     H213176   2.578   9.610   9.065
 4312WAT      O13177   9.480   8.368   3.836
 4312WAT     H113178   9.432   8.373   3.924
 4312WAT     H213179   9.442   8.293   3.782
 4313WAT      O13180   3.840   3.632   1.270
 4313WAT     H113181   3.855   3.588   1.358
 4313WAT     H213182   3.846   3.732   1.280
 4314WAT      O13183   6.712   3.382   9.213
 4314WAT     H113184   6.706   3.347   9.307
 4314WAT     H213185   6.778   3.328   9.161
 4315WAT      O13186   1.093   5.699   2.404
 4315WAT     H113187   1.017   5.758   2.433
 4315WAT     H213188   1.175   5.755   2.392
 4316WAT      O13189   8.217   2.809   8.926
 4316WAT     H113190   8.243   2.863   8.846
 4316WAT     H213191   8.121   2.827   8.949
 4317WAT      O13192   0.575   7.111   3.989
 4317WAT     H113193   0.499   7.147   4.043
 4317WAT     H213194   0.640   7.184   3.970
 4318WAT      O13195   3.519   8.230   5.792
 4318WAT     H113196   3.431   8.183   5.790
 4318WAT     H213197   3.593   8.162   5.793
 4319WAT      O13198   5.480   8.085   0.507
 4319WAT     H113199   5.404   8.067   0.570
 4319WAT     H213200   5.487   8.011   0.441
 4320WAT      O13201   7.700   5.782   1.221
 4320WAT     H113202   7.604   5.757   1.207
 4320WAT     H213203   7.753   5.699   1.238
 4321WAT      O13204   1.143   7.296   4.815
 4321WAT     H113205   1.222   7.240   4.788
 4321WAT     H213206   1.112   7.268   4.906
 4322WAT      O13207   9.673   7.753   8.174
 4322WAT     H113208   9.576   7.732   8.182
 4322WAT     H213209   9.698   7.760   8.077
 4323WAT      O13210   8.080   8.097   3.103
 4323WAT     H113211   8.117   8.188   3.088
 4323WAT     H213212   8.069   8.050   3.015
 4324WAT      O13213   1.260   4.817   1.419
 4324WAT     H113214   1.256   4.787   1.515
 4324WAT     H213215   1.313   4.751   1.366
 4325WAT      O13216   8.451   2.533   8.715
 4325WAT     H113217   8.452   2.624   8.673
 4325WAT     H213218   8.367   2.521   8.767
 4326WAT      O13219   9.558   1.913   1.726
 4326WAT     H113220   9.462   1.894   1.743
 4326WAT     H213221   9.569   2.008   1.697
 4327WAT      O13222   8.974   5.983   6.150
 4327WAT     H113223   8.904   5.924   6.112
 4327WAT     H213224   9.014   6.039   6.077
 4328WAT      O13225   8.922   7.126   5.001
 4328WAT     H113226   8.866   7.103   5.081
 4328WAT     H213227   8.863   7.165   4.929
 4329WAT      O13228   9.007   5.662   3.595
 4329WAT     H113229   8.975   5.749   3.557
 4329WAT     H213230   8.942   5.631   3.665
 4330WAT      O13231   8.273   4.026   1.667
 4330WAT     H113232   8.257   3.927   1.662
 4330WAT     H213233   8.332   4.047   1.744
 4331WAT      O13234   3.855   8.580   9.126
 4331WAT     H113235   3.825   8.659   9.073
 4331WAT     H213236   3.784   8.509   9.123
 4332WAT      O13237   5.120   9.634   4.975
 4332WAT     H113238   5.164   9.546   4.960
 4332WAT     H213239   5.113   9.683   4.887
 4333WAT      O13240   8.608   5.937   9.256
 4333WAT     H113241   8.609   6.026   9.210
 4333WAT     H213242   8.616   5.951   9.355
 4334WAT      O13243   3.919   8.670   0.603
 4334WAT     H113244   3.996   8.613   0.632
 4334WAT     H213245   3.952   8.762   0.582
 4335WAT      O13246   0.854   5.446   8.205
 4335WAT     H113247   0.897   5.439   8.115
 4335WAT     H213248   0.808   5.360   8.227
 4336WAT      O13249   7.690   1.266   9.049
 4336WAT     H113250   7.681   1.168   9.030
 4336WAT     H213251   7.750   1.308   8.981
 4337WAT      O13252   2.029   3.774   1.409
 4337WAT     H113253   2.036   3.718   1.491
 4337WAT     H213254   2.092   3.852   1.417
 4338WAT      O13255   0.957   3.569   6.013
 4338WAT     H113256   0.991   3.628   6.086
 4338WAT     H213257   0.948   3.622   5.929
 4339WAT      O13258   7.550   6.850   0.310
 4339WAT     H113259   7.525   6.757   0.283
 4339WAT     H213260   7.602   6.893   0.237
 4340WAT      O13261   5.510   3.549   3.498
 4340WAT     H113262   5.436   3.546   3.431
 4340WAT     H213263   5.595   3.577   3.453
 4341WAT      O13264   3.890   6.489   0.917
 4341WAT     H113265   3.910   6.560   0.850
 4341WAT     H213266   3.829   6.421   0.876
 4342WAT      O13267   7.064   8.868   3.380
 4342WAT     H113268   7.116   8.946   3.415
 4342WAT     H213269   6.971   8.871   3.419
 4343WAT      O13270   6.921   5.423   2.916
 4343WAT     H113271   7.016   5.435   2.942
 4343WAT     H213272   6.912   5.340   2.860
 4344WAT      O13273   1.576   0.634   1.380
 4344WAT     H113274   1.566   0.694   1.300
 4344WAT     H213275   1.657   0.661   1.431
 4345WAT      O13276   6.267   6.597   8.416
 4345WAT     H113277   6.356   6.563   8.385
 4345WAT     H213278   6.282   6.672   8.480
 4346WAT      O13279   4.766   8.507   7.666
 4346WAT     H113280   4.846   8.530   7.721
 4346WAT     H213281   4.735   8.414   7.689
 4347WAT      O13282   1.247   1.649   9.422
 4347WAT     H113283   1.285   1.590   9.493
 4347WAT     H213284   1.171   1.702   9.460
 4348WAT      O13285   2.410   1.387   1.880
 4348WAT     H113286   2.316   1.403   1.851
 4348WAT     H213287   2.410   1.349   1.973
 4349WAT      O13288   3.795   4.545   1.730
 4349WAT     H113289   3.741   4.628   1.741
 4349WAT     H213290   3.889   4.562   1.760
 4350WAT      O13291   9.689   8.810   9.818
 4350WAT     H113292   9.622   8.824   9.745
 4350WAT     H213293   9.643   8.800   9.905
 4351WAT      O13294   9.538   5.032   8.695
 4351WAT     H113295   9.528   5.115   8.750
 4351WAT     H213296   9.634   5.015   8.676
 4352WAT      O13297   8.482   0.064   6.024
 4352WAT     H113298   8.487  -0.036   6.013
 4352WAT     H213299   8.463   0.105   5.935
 4353WAT      O13300   8.635   5.199   8.753
 4353WAT     H113301   8.719   5.148   8.771
 4353WAT     H213302   8.568   5.180   8.825
 4354WAT      O13303   2.546   5.513   3.916
 4354WAT     H113304   2.551   5.563   4.002
 4354WAT     H213305   2.459   5.532   3.871
 4355WAT      O13306   9.656   6.554   0.090
 4355WAT     H113307   9.706   6.479   0.132
 4355WAT     H213308   9.558   6.543   0.107
 4356WAT      O13309   0.049   2.714   8.370
 4356WAT     H113310  -0.024   2.782   8.375
 4356WAT     H213311   0.125   2.750   8.315
 4357WAT      O13312   0.551   6.674   1.822
 4357WAT     H113313   0.516   6.648   1.733
 4357WAT     H213314   0.476   6.683   1.887
 4358WAT      O13315   7.792   2.835   9.359
 4358WAT     H113316   7.700   2.857   9.391
 4358WAT     H213317   7.790   2.750   9.306
 4359WAT      O13318   8.021   7.005   0.617
 4359WAT     H113319   8.063   7.095   0.609
 4359WAT     H213320   7.931   7.012   0.659
 4360WAT      O13321   4.225   4.849   7.912
 4360WAT     H113322   4.147   4.839   7.974
 4360WAT     H213323   4.252   4.758   7.880
 4361WAT      O13324   8.939   8.435   3.425
 4361WAT     H113325   8.989   8.434   3.338
 4361WAT     H213326   9.004   8.426   3.501
 4362WAT      O13327   6.942   9.504   2.820
 4362WAT     H113328   7.013   9.463   2.878
 4362WAT     H213329   6.851   9.479   2.857
 4363WAT      O13330   3.047   6.170   0.277
 4363WAT     H113331   3.062   6.153   0.375
 4363WAT     H213332   3.024   6.266   0.263
 4364WAT      O13333   8.612   9.452   3.911
 4364WAT     H113334   8.636   9.522   3.844
 4364WAT     H213335   8.513   9.452   3.926
 4365WAT      O13336   1.209   4.547   7.240
 4365WAT     H113337   1.278   4.477   7.220
 4365WAT     H213338   1.255   4.630   7.272
 4366WAT      O13339   8.920   9.119   8.521
 4366WAT     H113340   9.001   9.161   8.561
 4366WAT     H213341   8.924   9.020   8.533
 4367WAT      O13342   0.531   7.247   5.887
 4367WAT     H113343   0.579   7.199   5.960
 4367WAT     H213344   0.517   7.342   5.913
 4368WAT      O13345   2.810   0.451   4.134
 4368WAT     H113346   2.859   0.392   4.069
 4368WAT     H213347   2.862   0.457   4.219
 4369WAT      O13348   7.235   3.825   8.939
 4369WAT     H113349   7.331   3.852   8.943
 4369WAT     H213350   7.214   3.767   9.018
 4370WAT      O13351   1.093   4.450   7.858
 4370WAT     H113352   1.137   4.399   7.933
 4370WAT     H213353   1.067   4.386   7.786
 4371WAT      O13354   3.615   5.961   5.638
 4371WAT     H113355   3.551   6.037   5.657
 4371WAT     H213356   3.614   5.940   5.541
 4372WAT      O13357   1.894   7.210   9.846
 4372WAT     H113358   1.880   7.128   9.790
 4372WAT     H213359   1.828   7.210   9.922
 4373WAT      O13360   5.112   2.084   9.531
 4373WAT     H113361   5.069   2.026   9.462
 4373WAT     H213362   5.077   2.177   9.525
 4374WAT      O13363   9.253   8.276   7.342
 4374WAT     H113364   9.205   8.335   7.278
 4374WAT     H213365   9.331   8.234   7.296
 4375WAT      O13366   7.351   4.474   0.292
 4375WAT     H113367   7.393   4.535   0.360
 4375WAT     H213368   7.299   4.402   0.339
 4376WAT      O13369   4.903   4.129   6.210
 4376WAT     H113370   4.904   4.208   6.271
 4376WAT     H213371   4.908   4.045   6.264
 4377WAT      O13372   6.916   6.583   9.753
 4377WAT     H113373   6.931   6.484   9.745
 4377WAT     H213374   6.863   6.602   9.835
 4378WAT      O13375   9.887   4.129   7.499
 4378WAT     H113376   9.902   4.104   7.404
 4378WAT     H213377   9.855   4.224   7.503
 4379WAT      O13378   6.811   3.449   2.796
 4379WAT     H113379   6.770   3.460   2.887
 4379WAT     H213380   6.754   3.388   2.741
 4380WAT      O13381   8.594   5.943   9.732
 4380WAT     H113382   8.535   6.004   9.784
 4380WAT     H213383   8.597   5.853   9.777
 4381WAT      O13384   2.995   9.676   6.775
 4381WAT     H113385   2.925   9.654   6.843
 4381WAT     H213386   3.080   9.702   6.820
 4382WAT      O13387   3.343   6.805   4.881
 4382WAT     H113388   3.299   6.890   4.910
 4382WAT     H213389   3.297   6.769   4.800
 4383WAT      O13390   4.912   9.073   9.874
 4383WAT     H113391   4.906   8.974   9.891
 4383WAT     H213392   4.938   9.088   9.779
 4384WAT      O13393   8.727   3.613   3.889
 4384WAT     H113394   8.691   3.702   3.860
 4384WAT     H213395   8.655   3.544   3.884
 4385WAT      O13396   8.782   4.607   1.081
 4385WAT     H113397   8.774   4.706   1.086
 4385WAT     H213398   8.865   4.577   1.127
 4386WAT      O13399   6.053   1.946   8.837
 4386WAT     H113400   5.981   1.898   8.787
 4386WAT     H213401   6.137   1.891   8.837
 4387WAT      O13402   6.988   8.083   9.446
 4387WAT     H113403   6.895   8.074   9.410
 4387WAT     H213404   7.031   7.992   9.450
 4388WAT      O13405   6.333   4.227   4.812
 4388WAT     H113406   6.242   4.267   4.798
 4388WAT     H213407   6.371   4.261   4.898
 4389WAT      O13408   7.750   1.979   8.892
 4389WAT     H113409   7.782   2.062   8.937
 4389WAT     H213410   7.660   1.995   8.851
 4390WAT      O13411   6.268   7.909   6.036
 4390WAT     H113412   6.206   7.887   6.111
 4390WAT     H213413   6.328   7.831   6.018
 4391WAT      O13414   9.599   3.563   6.657
 4391WAT     H113415   9.577   3.632   6.588
 4391WAT     H213416   9.518   3.544   6.713
 4392WAT      O13417   6.719   6.324   5.644
 4392WAT     H113418   6.674   6.405   5.680
 4392WAT     H213419   6.818   6.332   5.656
 4393WAT      O13420   0.265   0.108   5.796
 4393WAT     H113421   0.297   0.129   5.888
 4393WAT     H213422   0.327   0.149   5.729
 4394WAT      O13423   2.588   5.917   4.001
 4394WAT     H113424   2.672   5.882   3.960
 4394WAT     H213425   2.600   5.925   4.100
 4395WAT      O13426   0.652   7.677   9.809
 4395WAT     H113427   0.678   7.699   9.715
 4395WAT     H213428   0.691   7.746   9.871
 4396WAT      O13429   0.254   3.082   8.701
 4396WAT     H113430   0.338   3.133   8.717
 4396WAT     H213431   0.255   2.998   8.754
 4397WAT      O13432   0.680   5.626   6.165
 4397WAT     H113433   0.698   5.724   6.169
 4397WAT     H213434   0.765   5.577   6.145
 4398WAT      O13435   2.688   8.143   2.425
 4398WAT     H113436   2.651   8.236   2.425
 4398WAT     H213437   2.656   8.095   2.506
 4399WAT      O13438   0.579   4.068   2.059
 4399WAT     H113439   0.613   4.029   2.144
 4399WAT     H213440   0.481   4.087   2.066
 4400WAT      O13441   5.216   1.195   4.835
 4400WAT     H113442   5.234   1.231   4.926
 4400WAT     H213443   5.266   1.249   4.767
 4401WAT      O13444   5.975   3.297   9.243
 4401WAT     H113445   5.913   3.363   9.284
 4401WAT     H213446   6.069   3.316   9.274
 4402WAT      O13447   8.775   2.579   9.042
 4402WAT     H113448   8.768   2.580   9.142
 4402WAT     H213449   8.784   2.673   9.008
 4403WAT      O13450   4.512   3.236   0.877
 4403WAT     H113451   4.469   3.204   0.792
 4403WAT     H213452   4.590   3.177   0.900
 4404WAT      O13453   6.523   7.027   0.222
 4404WAT     H113454   6.561   7.092   0.287
 4404WAT     H213455   6.428   7.006   0.247
 4405WAT      O13456   7.679   0.968   0.474
 4405WAT     H113457   7.642   0.894   0.531
 4405WAT     H213458   7.606   1.003   0.415
 4406WAT      O13459   5.275   0.449   5.622
 4406WAT     H113460   5.286   0.531   5.679
 4406WAT     H213461   5.192   0.458   5.567
 4407WAT      O13462   2.209   6.657   1.221
 4407WAT     H113463   2.252   6.739   1.184
 4407WAT     H213464   2.113   6.654   1.194
 4408WAT      O13465   4.965   8.423   5.776
 4408WAT     H113466   4.906   8.362   5.722
 4408WAT     H213467   4.965   8.393   5.871
 4409WAT      O13468   7.988   5.503   9.330
 4409WAT     H113469   7.949   5.594   9.338
 4409WAT     H213470   8.002   5.480   9.234
 4410WAT      O13471   3.764   9.146   1.671
 4410WAT     H113472   3.707   9.179   1.747
 4410WAT     H213473   3.849   9.109   1.707
 4411WAT      O13474   6.249   3.262   2.099
 4411WAT     H113475   6.290   3.326   2.164
 4411WAT     H213476   6.291   3.273   2.009
 4412WAT      O13477   9.014   8.584   4.523
 4412WAT     H113478   8.973   8.579   4.614
 4412WAT     H213479   8.944   8.566   4.454
 4413WAT      O13480   9.787   5.044   8.653
 4413WAT     H113481   9.830   5.130   8.626
 4413WAT     H213482   9.832   4.968   8.606
 4414WAT      O13483   9.241   9.118   5.561
 4414WAT     H113484   9.213   9.142   5.467
 4414WAT     H213485   9.181   9.047   5.597
 4415WAT      O13486   5.906   7.293   3.260
 4415WAT     H113487   5.866   7.249   3.340
 4415WAT     H213488   6.005   7.304   3.274
 4416WAT      O13489   6.371   1.499   0.065
 4416WAT     H113490   6.463   1.488   0.102
 4416WAT     H213491   6.370   1.573  -0.002
 4417WAT      O13492   8.391   9.551   3.563
 4417WAT     H113493   8.491   9.552   3.559
 4417WAT     H213494   8.355   9.633   3.519
 4418WAT      O13495   0.181   9.375   0.295
 4418WAT     H113496   0.249   9.304   0.314
 4418WAT     H213497   0.089   9.339   0.309
 4419WAT      O13498   1.152   1.995   7.099
 4419WAT     H113499   1.067   1.960   7.140
 4419WAT     H213500   1.159   1.963   7.005
 4420WAT      O13501   3.036   0.736   8.584
 4420WAT     H113502   3.062   0.658   8.641
 4420WAT     H213503   3.028   0.706   8.489
 4421WAT      O13504   9.490   9.016   5.914
 4421WAT     H113505   9.492   9.001   6.013
 4421WAT     H213506   9.465   9.110   5.894
 4422WAT      O13507   8.262   8.170   4.277
 4422WAT     H113508   8.286   8.163   4.181
 4422WAT     H213509   8.169   8.136   4.292
 4423WAT      O13510   5.484   3.346   3.256
 4423WAT     H113511   5.493   3.363   3.157
 4423WAT     H213512   5.404   3.395   3.291
 4424WAT      O13513   1.099   0.928   5.770
 4424WAT     H113514   1.186   0.906   5.726
 4424WAT     H213515   1.055   0.843   5.801
 4425WAT      O13516   4.931   6.375   8.563
 4425WAT     H113517   5.011   6.362   8.504
 4425WAT     H213518   4.930   6.303   8.633
 4426WAT      O13519   5.433   8.082   2.810
 4426WAT     H113520   5.383   8.113   2.891
 4426WAT     H213521   5.527   8.117   2.814
 4427WAT      O13522   1.973   1.153   1.990
 4427WAT     H113523   1.883   1.196   2.004
 4427WAT     H213524   1.967   1.086   1.917
 4428WAT      O13525   2.296   7.994   5.378
 4428WAT     H113526   2.223   7.933   5.346
 4428WAT     H213527   2.333   7.959   5.464
 4429WAT      O13528   9.837   6.312   4.773
 4429WAT     H113529   9.913   6.263   4.732
 4429WAT     H213530   9.750   6.269   4.746
 4430WAT      O13531   6.406   8.650   5.785
 4430WAT     H113532   6.469   8.663   5.863
 4430WAT     H213533   6.357   8.564   5.796
 4431WAT      O13534   5.887   1.726   8.734
 4431WAT     H113535   5.959   1.713   8.665
 4431WAT     H213536   5.880   1.644   8.790
 4432WAT      O13537   2.044   8.992   3.599
 4432WAT     H113538   2.100   9.060   3.553
 4432WAT     H213539   1.947   9.014   3.585
 4433WAT      O13540   7.330   9.066   2.730
 4433WAT     H113541   7.239   9.090   2.697
 4433WAT     H213542   7.394   9.059   2.653
 4434WAT      O13543   9.240   6.045   6.432
 4434WAT     H113544   9.169   5.989   6.390
 4434WAT     H213545   9.280   6.107   6.364
 4435WAT      O13546   6.233   5.422   8.120
 4435WAT     H113547   6.305   5.473   8.167
 4435WAT     H213548   6.145   5.465   8.139
 4436WAT      O13549   2.291   9.539   5.899
 4436WAT     H113550   2.318   9.539   5.995
 4436WAT     H213551   2.309   9.630   5.860
 4437WAT      O13552   6.937   2.713   8.170
 4437WAT     H113553   7.008   2.648   8.196
 4437WAT     H213554   6.866   2.715   8.240
 4438WAT      O13555   0.557   1.548   4.327
 4438WAT     H113556   0.573   1.450   4.326
 4438WAT     H213557   0.514   1.575   4.240
 4439WAT      O13558   0.087   6.366   8.011
 4439WAT     H113559   0.164   6.427   7.989
 4439WAT     H213560   0.012   6.420   8.050
 4440WAT      O13561   5.755   1.015   6.772
 4440WAT     H113562   5.725   0.996   6.678
 4440WAT     H213563   5.836   1.073   6.770
 4441WAT      O13564   0.967   4.144   9.432
 4441WAT     H113565   1.031   4.098   9.370
 4441WAT     H213566   0.875   4.108   9.418
 4442WAT      O13567   6.332   3.250   3.315
 4442WAT     H113568   6.239   3.242   3.279
 4442WAT     H213569   6.390   3.180   3.273
 4443WAT      O13570   5.351   9.490   2.473
 4443WAT     H113571   5.413   9.430   2.423
 4443WAT     H213572   5.265   9.499   2.423
 4444WAT      O13573   5.429   7.708   9.097
 4444WAT     H113574   5.482   7.658   9.166
 4444WAT     H213575   5.490   7.761   9.039
 4445WAT      O13576   6.048   0.096   5.212
 4445WAT     H113577   5.961   0.131   5.248
 4445WAT     H213578   6.031   0.047   5.126
 4446WAT      O13579   7.656   4.830   7.284
 4446WAT     H113580   7.643   4.816   7.186
 4446WAT     H213581   7.580   4.788   7.334
 4447WAT      O13582   3.087   2.063   5.880
 4447WAT     H113583   3.011   2.047   5.943
 4447WAT     H213584   3.155   2.122   5.923
 4448WAT      O13585   5.078   1.815   4.512
 4448WAT     H113586   5.085   1.729   4.462
 4448WAT     H213587   4.985   1.850   4.506
 4449WAT      O13588   0.332   1.410   3.622
 4449WAT     H113589   0.378   1.321   3.619
 4449WAT     H213590   0.267   1.416   3.546
 4450WAT      O13591   4.813   7.383   4.864
 4450WAT     H113592   4.741   7.395   4.796
 4450WAT     H213593   4.868   7.466   4.870
 4451WAT      O13594   9.191   2.688   2.716
 4451WAT     H113595   9.152   2.606   2.675
 4451WAT     H213596   9.290   2.690   2.698
 4452WAT      O13597   5.149   3.307   7.794
 4452WAT     H113598   5.141   3.323   7.696
 4452WAT     H213599   5.126   3.212   7.814
 4453WAT      O13600   1.070   0.807   5.392
 4453WAT     H113601   1.035   0.901   5.391
 4453WAT     H213602   1.138   0.797   5.464
 4454WAT      O13603   3.564   3.833   4.728
 4454WAT     H113604   3.600   3.800   4.815
 4454WAT     H213605   3.636   3.880   4.677
 4455WAT      O13606   3.148   8.735   5.150
 4455WAT     H113607   3.155   8.752   5.052
 4455WAT     H213608   3.119   8.818   5.197
 4456WAT      O13609   7.447   6.096   3.295
 4456WAT     H113610   7.477   6.172   3.353
 4456WAT     H213611   7.348   6.091   3.295
 4457WAT      O13612   8.539   1.660   2.790
 4457WAT     H113613   8.563   1.756   2.781
 4457WAT     H213614   8.439   1.651   2.790
 4458WAT      O13615   6.787   1.834   3.102
 4458WAT     H113616   6.740   1.771   3.039
 4458WAT     H213617   6.863   1.878   3.054
 4459WAT      O13618   2.167   3.821   6.113
 4459WAT     H113619   2.160   3.865   6.023
 4459WAT     H213620   2.081   3.775   6.134
 4460WAT      O13621   9.628   7.290   2.453
 4460WAT     H113622   9.560   7.274   2.525
 4460WAT     H213623   9.669   7.380   2.465
 4461WAT      O13624   8.051   5.199   1.956
 4461WAT     H113625   8.134   5.183   2.008
 4461WAT     H213626   8.071   5.194   1.858
 4462WAT      O13627   0.438   9.172   5.904
 4462WAT     H113628   0.354   9.215   5.938
 4462WAT     H213629   0.450   9.083   5.947
 4463WAT      O13630   4.958   9.450   9.823
 4463WAT     H113631   5.058   9.443   9.815
 4463WAT     H213632   4.917   9.440   9.732
 4464WAT      O13633   0.573   3.102   3.167
 4464WAT     H113634   0.564   3.199   3.149
 4464WAT     H213635   0.670   3.078   3.170
 4465WAT      O13636   7.155   3.671   5.995
 4465WAT     H113637   7.247   3.648   5.964
 4465WAT     H213638   7.124   3.602   6.060
 4466WAT      O13639   3.703   8.542   8.228
 4466WAT     H113640   3.770   8.480   8.187
 4466WAT     H213641   3.632   8.563   8.162
 4467WAT      O13642   5.825   0.403   8.218
 4467WAT     H113643   5.849   0.498   8.202
 4467WAT     H213644   5.760   0.372   8.149
 4468WAT      O13645   8.853   2.606   5.299
 4468WAT     H113646   8.801   2.619   5.384
 4468WAT     H213647   8.822   2.673   5.231
 4469WAT      O13648   9.423   3.802   2.785
 4469WAT     H113649   9.442   3.874   2.851
 4469WAT     H213650   9.324   3.788   2.779
 4470WAT      O13651   4.268   9.073   1.330
 4470WAT     H113652   4.214   9.025   1.399
 4470WAT     H213653   4.315   9.007   1.272
 4471WAT      O13654   7.193   6.646   8.544
 4471WAT     H113655   7.255   6.599   8.481
 4471WAT     H213656   7.161   6.581   8.614
 4472WAT      O13657   5.014   1.668   8.921
 4472WAT     H113658   4.970   1.758   8.922
 4472WAT     H213659   4.963   1.607   8.861
 4473WAT      O13660   5.546   9.299   3.133
 4473WAT     H113661   5.478   9.280   3.062
 4473WAT     H213662   5.503   9.299   3.223
 4474WAT      O13663   7.519   1.608   0.020
 4474WAT     H113664   7.606   1.657   0.026
 4474WAT     H213665   7.443   1.672   0.037
 4475WAT      O13666   7.082   7.446   1.061
 4475WAT     H113667   7.134   7.487   0.986
 4475WAT     H213668   7.126   7.469   1.148
 4476WAT      O13669   6.667   2.783   6.493
 4476WAT     H113670   6.642   2.687   6.482
 4476WAT     H213671   6.755   2.790   6.540
 4477WAT      O13672   8.238   7.096   3.975
 4477WAT     H113673   8.311   7.089   3.907
 4477WAT     H213674   8.150   7.079   3.932
 4478WAT      O13675   7.666   7.852   0.062
 4478WAT     H113676   7.684   7.881   0.156
 4478WAT     H213677   7.591   7.907   0.025
 4479WAT      O13678   4.698   6.572   0.889
 4479WAT     H113679   4.665   6.661   0.920
 4479WAT     H213680   4.779   6.546   0.942
 4480WAT      O13681   7.682   3.264   5.728
 4480WAT     H113682   7.748   3.298   5.795
 4480WAT     H213683   7.611   3.333   5.713
 4481WAT      O13684   3.788   1.620   5.859
 4481WAT     H113685   3.839   1.566   5.926
 4481WAT     H213686   3.851   1.680   5.811
 4482WAT      O13687   2.676   4.737   1.466
 4482WAT     H113688   2.720   4.804   1.526
 4482WAT     H213689   2.652   4.782   1.379
 4483WAT      O13690   4.105   0.681   3.228
 4483WAT     H113691   4.165   0.601   3.228
 4483WAT     H213692   4.011   0.653   3.208
 4484WAT      O13693   4.952   3.019   6.252
 4484WAT     H113694   4.994   3.021   6.342
 4484WAT     H213695   4.987   3.095   6.197
 4485WAT      O13696   2.756   5.489   6.202
 4485WAT     H113697   2.844   5.533   6.184
 4485WAT     H213698   2.682   5.554   6.184
 4486WAT      O13699   0.414   1.999   4.912
 4486WAT     H113700   0.399   1.973   4.816
 4486WAT     H213701   0.359   1.940   4.971
 4487WAT      O13702   2.587   9.657   0.948
 4487WAT     H113703   2.525   9.733   0.932
 4487WAT     H213704   2.681   9.690   0.947
 4488WAT      O13705   8.325   7.395   4.996
 4488WAT     H113706   8.250   7.332   4.978
 4488WAT     H213707   8.293   7.471   5.052
 4489WAT      O13708   0.340   7.057   0.184
 4489WAT     H113709   0.381   7.043   0.094
 4489WAT     H213710   0.243   7.082   0.173
 4490WAT      O13711   4.973   9.500   3.275
 4490WAT     H113712   4.992   9.562   3.351
 4490WAT     H213713   4.966   9.552   3.190
 4491WAT      O13714   3.172   0.982   2.928
 4491WAT     H113715   3.252   0.970   2.988
 4491WAT     H213716   3.107   1.044   2.971
 4492WAT      O13717   9.389   8.893   0.300
 4492WAT     H113718   9.364   8.951   0.378
 4492WAT     H213719   9.368   8.941   0.215
 4493WAT      O13720   0.011   1.467   1.657
 4493WAT     H113721   0.102   1.488   1.692
 4493WAT     H213722  -0.038   1.552   1.639
 4494WAT      O13723   8.334   4.737   1.019
 4494WAT     H113724   8.345   4.639   1.033
 4494WAT     H213725   8.337   4.785   1.107
 4495WAT      O13726   5.615   7.243   1.861
 4495WAT     H113727   5.595   7.149   1.889
 4495WAT     H213728   5.694   7.244   1.800
 4496WAT      O13729   9.262   8.005   8.826
 4496WAT     H113730   9.359   7.998   8.849
 4496WAT     H213731   9.248   8.084   8.766
 4497WAT      O13732   8.386   8.191   4.027
 4497WAT     H113733   8.377   8.286   3.999
 4497WAT     H213734   8.411   8.135   3.947
 4498WAT      O13735   0.958   6.583   8.279
 4498WAT     H113736   0.879   6.525   8.264
 4498WAT     H213737   0.975   6.639   8.198
 4499WAT      O13738   7.005   0.023   3.999
 4499WAT     H113739   7.011  -0.014   3.906
 4499WAT     H213740   6.937   0.096   4.001
 4500WAT      O13741   3.546   9.745   6.164
 4500WAT     H113742   3.530   9.676   6.234
 4500WAT     H213743   3.499   9.719   6.079
 4501WAT      O13744   0.569   4.597   7.116
 4501WAT     H113745   0.634   4.574   7.044
 4501WAT     H213746   0.618   4.628   7.197
 4502WAT      O13747   2.922   1.756   6.228
 4502WAT     H113748   2.929   1.730   6.324
 4502WAT     H213749   2.865   1.690   6.179
 4503WAT      O13750   0.207   8.418   0.675
 4503WAT     H113751   0.273   8.489   0.696
 4503WAT     H213752   0.126   8.458   0.633
 4504WAT      O13753   8.149   5.517   3.792
 4504WAT     H113754   8.090   5.570   3.730
 4504WAT     H213755   8.163   5.426   3.754
 4505WAT      O13756   8.717   7.495   1.269
 4505WAT     H113757   8.779   7.423   1.301
 4505WAT     H213758   8.763   7.550   1.199
 4506WAT      O13759   3.226   6.126   6.762
 4506WAT     H113760   3.151   6.062   6.744
 4506WAT     H213761   3.314   6.079   6.749
 4507WAT      O13762   1.377   9.793   0.783
 4507WAT     H113763   1.342   9.759   0.870
 4507WAT     H213764   1.300   9.826   0.727
 4508WAT      O13765   7.817   1.653   6.617
 4508WAT     H113766   7.794   1.628   6.523
 4508WAT     H213767   7.914   1.634   6.634
 4509WAT      O13768   6.183   4.566   7.749
 4509WAT     H113769   6.180   4.495   7.820
 4509WAT     H213770   6.162   4.655   7.789
 4510WAT      O13771   5.112   1.507   2.210
 4510WAT     H113772   5.052   1.480   2.285
 4510WAT     H213773   5.094   1.603   2.185
 4511WAT      O13774   8.443   9.065   5.831
 4511WAT     H113775   8.382   8.988   5.812
 4511WAT     H213776   8.452   9.121   5.749
 4512WAT      O13777   3.998   8.799   6.015
 4512WAT     H113778   4.004   8.862   5.937
 4512WAT     H213779   3.944   8.719   5.989
 4513WAT      O13780   0.157   9.646   3.122
 4513WAT     H113781   0.223   9.648   3.198
 4513WAT     H213782   0.206   9.632   3.036
 4514WAT      O13783   0.139   9.104   1.643
 4514WAT     H113784   0.166   9.199   1.658
 4514WAT     H213785   0.172   9.073   1.554
 4515WAT      O13786   5.469   7.519   5.204
 4515WAT     H113787   5.381   7.564   5.193
 4515WAT     H213788   5.516   7.516   5.115
 4516WAT      O13789   8.928   2.419   0.887
 4516WAT     H113790   8.844   2.372   0.912
 4516WAT     H213791   8.907   2.500   0.833
 4517WAT      O13792   0.512   2.313   8.358
 4517WAT     H113793   0.532   2.263   8.442
 4517WAT     H213794   0.453   2.391   8.380
 4518WAT      O13795   9.595   3.736   1.648
 4518WAT     H113796   9.677   3.680   1.635
 4518WAT     H213797   9.517   3.676   1.667
 4519WAT      O13798   6.726   1.965   9.292
 4519WAT     H113799   6.805   1.996   9.345
 4519WAT     H213800   6.691   2.040   9.236
 4520WAT      O13801   1.551   0.688   3.701
 4520WAT     H113802   1.610   0.633   3.761
 4520WAT     H213803   1.468   0.713   3.751
 4521WAT      O13804   3.531   4.835   1.212
 4521WAT     H113805   3.609   4.842   1.273
 4521WAT     H213806   3.485   4.923   1.205
 4522WAT      O13807   2.878   5.934   3.210
 4522WAT     H113808   2.866   5.920   3.112
 4522WAT     H213809   2.950   6.000   3.226
 4523WAT      O13810   6.569   6.345   6.128
 4523WAT     H113811   6.540   6.284   6.055
 4523WAT     H213812   6.497   6.412   6.147
 4524WAT      O13813   2.179   5.167   4.757
 4524WAT     H113814   2.201   5.070   4.755
 4524WAT     H213815   2.209   5.211   4.672
 4525WAT      O13816   7.791   9.764   4.340
 4525WAT     H113817   7.708   9.771   4.395
 4525WAT     H213818   7.786   9.830   4.265
 4526WAT      O13819   2.898   9.305   5.957
 4526WAT     H113820   2.889   9.313   6.057
 4526WAT     H213821   2.995   9.299   5.933
 4527WAT      O13822   7.314   8.891   2.501
 4527WAT     H113823   7.252   8.915   2.426
 4527WAT     H213824   7.261   8.853   2.577
 4528WAT      O13825   6.939   2.017   0.736
 4528WAT     H113826   6.888   2.100   0.712
 4528WAT     H213827   6.906   1.940   0.682
 4529WAT      O13828   2.345   4.844   2.800
 4529WAT     H113829   2.281   4.850   2.723
 4529WAT     H213830   2.301   4.877   2.883
 4530WAT      O13831   3.843   1.842   3.039
 4530WAT     H113832   3.830   1.825   2.941
 4530WAT     H213833   3.859   1.939   3.054
 4531WAT      O13834   8.099   7.107   7.829
 4531WAT     H113835   8.071   7.122   7.924
 4531WAT     H213836   8.131   7.013   7.817
 4532WAT      O13837   4.834   1.034   8.050
 4532WAT     H113838   4.872   1.036   8.142
 4532WAT     H213839   4.793   1.122   8.028
 4533WAT      O13840   7.598   5.236   8.247
 4533WAT     H113841   7.574   5.165   8.181
 4533WAT     H213842   7.687   5.215   8.287
 4534WAT      O13843   1.923   9.427   6.136
 4534WAT     H113844   1.916   9.387   6.227
 4534WAT     H213845   1.980   9.368   6.078
 4535WAT      O13846   8.975   6.152   9.576
 4535WAT     H113847   9.013   6.216   9.642
 4535WAT     H213848   9.023   6.064   9.584
 4536WAT      O13849   5.945   0.731   3.166
 4536WAT     H113850   5.870   0.792   3.140
 4536WAT     H213851   5.910   0.657   3.223
 4537WAT      O13852   6.725   3.041   5.384
 4537WAT     H113853   6.781   3.076   5.459
 4537WAT     H213854   6.642   3.095   5.376
 4538WAT      O13855   3.700   4.293   5.007
 4538WAT     H113856   3.787   4.330   5.040
 4538WAT     H213857   3.710   4.262   4.913
 4539WAT      O13858   9.453   1.878   5.473
 4539WAT     H113859   9.484   1.869   5.379
 4539WAT     H213860   9.510   1.821   5.533
 4540WAT      O13861   6.653   8.136   1.206
 4540WAT     H113862   6.687   8.165   1.295
 4540WAT     H213863   6.708   8.060   1.173
 4541WAT      O13864   3.455   8.742   4.228
 4541WAT     H113865   3.357   8.746   4.248
 4541WAT     H213866   3.487   8.648   4.240
 4542WAT      O13867   1.517   8.086   4.361
 4542WAT     H113868   1.615   8.107   4.354
 4542WAT     H213869   1.477   8.140   4.435
 4543WAT      O13870   6.564   3.354   7.127
 4543WAT     H113871   6.587   3.269   7.080
 4543WAT     H213872   6.628   3.369   7.203
 4544WAT      O13873   7.166   5.528   2.970
 4544WAT     H113874   7.246   5.525   3.030
 4544WAT     H213875   7.191   5.573   2.884
 4545WAT      O13876   9.180   8.901   4.835
 4545WAT     H113877   9.206   8.937   4.745
 4545WAT     H213878   9.122   8.968   4.882
 4546WAT      O13879   6.327   3.303   2.555
 4546WAT     H113880   6.288   3.254   2.477
 4546WAT     H213881   6.350   3.396   2.527
 4547WAT      O13882   1.785   8.228   1.794
 4547WAT     H113883   1.863   8.197   1.848
 4547WAT     H213884   1.809   8.310   1.743
 4548WAT      O13885   0.339   4.948   0.660
 4548WAT     H113886   0.352   4.952   0.561
 4548WAT     H213887   0.264   5.007   0.687
 4549WAT      O13888   0.139   3.133   3.673
 4549WAT     H113889   0.191   3.218   3.672
 4549WAT     H213890   0.041   3.154   3.681
 4550WAT      O13891   3.386   4.221   9.301
 4550WAT     H113892   3.350   4.183   9.386
 4550WAT     H213893   3.326   4.294   9.269
 4551WAT      O13894   0.163   3.406   5.304
 4551WAT     H113895   0.184   3.504   5.303
 4551WAT     H213896   0.120   3.382   5.391
 4552WAT      O13897   1.645   7.015   8.051
 4552WAT     H113898   1.554   7.046   8.022
 4552WAT     H213899   1.698   7.094   8.084
 4553WAT      O13900   4.654   8.900   4.283
 4553WAT     H113901   4.600   8.978   4.252
 4553WAT     H213902   4.616   8.863   4.367
 4554WAT      O13903   8.598   3.796   7.586
 4554WAT     H113904   8.637   3.753   7.505
 4554WAT     H213905   8.519   3.851   7.560
 4555WAT      O13906   5.642   0.197   1.587
 4555WAT     H113907   5.658   0.125   1.655
 4555WAT     H213908   5.565   0.171   1.528
 4556WAT      O13909   6.260   3.394   3.856
 4556WAT     H113910   6.312   3.379   3.772
 4556WAT     H213911   6.165   3.416   3.833
 4557WAT      O13912   6.875   3.051   8.246
 4557WAT     H113913   6.889   3.117   8.173
 4557WAT     H213914   6.961   3.037   8.296
 4558WAT      O13915   5.099   5.392   0.709
 4558WAT     H113916   5.113   5.439   0.621
 4558WAT     H213917   5.006   5.358   0.714
 4559WAT      O13918   5.855   7.039   1.739
 4559WAT     H113919   5.807   7.080   1.661
 4559WAT     H213920   5.953   7.057   1.731
 4560WAT      O13921   5.939   9.198   1.256
 4560WAT     H113922   5.876   9.178   1.332
 4560WAT     H213923   5.914   9.142   1.177
 4561WAT      O13924   8.207   2.906   5.415
 4561WAT     H113925   8.249   2.970   5.478
 4561WAT     H213926   8.126   2.948   5.373
 4562WAT      O13927   0.304   7.464   0.609
 4562WAT     H113928   0.257   7.451   0.522
 4562WAT     H213929   0.243   7.509   0.674
 4563WAT      O13930   0.482   9.531   5.883
 4563WAT     H113931   0.407   9.590   5.913
 4563WAT     H213932   0.450   9.437   5.874
 4564WAT      O13933   9.499   9.540   6.961
 4564WAT     H113934   9.495   9.609   7.034
 4564WAT     H213935   9.525   9.452   6.999
 4565WAT      O13936   9.257   9.265   7.159
 4565WAT     H113937   9.355   9.280   7.175
 4565WAT     H213938   9.245   9.218   7.072
 4566WAT      O13939   8.236   8.251   8.029
 4566WAT     H113940   8.139   8.236   8.044
 4566WAT     H213941   8.285   8.242   8.116
 4567WAT      O13942   7.390   4.335   5.265
 4567WAT     H113943   7.473   4.298   5.307
 4567WAT     H213944   7.321   4.263   5.259
 4568WAT      O13945   9.634   0.616   8.518
 4568WAT     H113946   9.663   0.649   8.608
 4568WAT     H213947   9.607   0.693   8.461
 4569WAT      O13948   4.576   3.592   6.614
 4569WAT     H113949   4.502   3.587   6.548
 4569WAT     H213950   4.545   3.556   6.702
 4570WAT      O13951   4.888   9.496   6.581
 4570WAT     H113952   4.842   9.535   6.501
 4570WAT     H213953   4.967   9.444   6.551
 4571WAT      O13954   1.481   1.619   1.055
 4571WAT     H113955   1.457   1.589   1.147
 4571WAT     H213956   1.422   1.695   1.028
 4572WAT      O13957   3.080   7.894   5.851
 4572WAT     H113958   3.153   7.826   5.837
 4572WAT     H213959   2.995   7.860   5.810
 4573WAT      O13960   7.132   1.962   8.955
 4573WAT     H113961   7.115   1.885   8.894
 4573WAT     H213962   7.084   1.948   9.042
 4574WAT      O13963   5.822   2.633   6.121
 4574WAT     H113964   5.917   2.626   6.091
 4574WAT     H213965   5.780   2.542   6.118
 4575WAT      O13966   9.370   3.263   4.126
 4575WAT     H113967   9.357   3.165   4.139
 4575WAT     H213968   9.394   3.281   4.030
 4576WAT      O13969   2.339   9.127   6.096
 4576WAT     H113970   2.403   9.201   6.113
 4576WAT     H213971   2.387   9.050   6.053
 4577WAT      O13972   4.590   3.010   1.396
 4577WAT     H113973   4.666   2.946   1.405
 4577WAT     H213974   4.574   3.056   1.483
 4578WAT      O13975   9.741   1.141   4.594
 4578WAT     H113976   9.720   1.080   4.518
 4578WAT     H213977   9.666   1.206   4.608
 4579WAT      O13978   4.203   0.327   1.593
 4579WAT     H113979   4.281   0.264   1.588
 4579WAT     H213980   4.204   0.373   1.682
 4580WAT      O13981   2.187   4.896   3.059
 4580WAT     H113982   2.154   4.940   3.142
 4580WAT     H213983   2.113   4.891   2.992
 4581WAT      O13984   4.164   9.493   8.583
 4581WAT     H113985   4.142   9.535   8.671
 4581WAT     H213986   4.135   9.553   8.508
 4582WAT      O13987   9.846   0.462   0.400
 4582WAT     H113988   9.842   0.362   0.404
 4582WAT     H213989   9.799   0.500   0.479
 4583WAT      O13990   1.056   9.060   0.718
 4583WAT     H113991   1.135   9.057   0.778
 4583WAT     H213992   1.000   9.141   0.740
 4584WAT      O13993   9.446   5.214   4.277
 4584WAT     H113994   9.449   5.204   4.177
 4584WAT     H213995   9.352   5.209   4.308
 4585WAT      O13996   2.976   8.858   1.066
 4585WAT     H113997   3.056   8.896   1.020
 4585WAT     H213998   2.946   8.921   1.138
 4586WAT      O13999   3.058   8.580   5.941
 4586WAT     H114000   3.092   8.632   6.020
 4586WAT     H214001   3.061   8.482   5.962
 4587WAT      O14002   1.938   2.670   9.732
 4587WAT     H114003   1.873   2.698   9.661
 4587WAT     H214004   1.901   2.591   9.781
 4588WAT      O14005   7.835   3.634   8.262
 4588WAT     H114006   7.932   3.648   8.240
 4588WAT     H214007   7.805   3.704   8.328
 4589WAT      O14008   5.099   1.694   7.228
 4589WAT     H114009   5.144   1.762   7.169
 4589WAT     H214010   5.000   1.702   7.218
 4590WAT      O14011   8.409   6.709   7.196
 4590WAT     H114012   8.447   6.760   7.273
 4590WAT     H214013   8.315   6.682   7.216
 4591WAT      O14014   7.430   6.313   3.773
 4591WAT     H114015   7.446   6.321   3.872
 4591WAT     H214016   7.448   6.401   3.729
 4592WAT      O14017   1.577   5.436   0.727
 4592WAT     H114018   1.581   5.471   0.633
 4592WAT     H214019   1.481   5.420   0.752
 4593WAT      O14020   5.817   1.858   3.184
 4593WAT     H114021   5.734   1.802   3.196
 4593WAT     H214022   5.877   1.815   3.117
 4594WAT      O14023   3.286   2.250   6.035
 4594WAT     H114024   3.250   2.287   6.121
 4594WAT     H214025   3.367   2.195   6.054
 4595WAT      O14026   2.591   4.685   7.275
 4595WAT     H114027   2.548   4.614   7.330
 4595WAT     H214028   2.539   4.697   7.190
 4596WAT      O14029   4.593   2.969   3.937
 4596WAT     H114030   4.664   2.899   3.939
 4596WAT     H214031   4.612   3.038   4.007
 4597WAT      O14032   2.095   3.081   7.958
 4597WAT     H114033   2.127   3.102   8.050
 4597WAT     H214034   2.032   3.152   7.928
 4598WAT      O14035   1.349   8.197   9.438
 4598WAT     H114036   1.437   8.165   9.402
 4598WAT     H214037   1.277   8.133   9.411
 4599WAT      O14038   7.210   6.954   1.038
 4599WAT     H114039   7.295   6.954   0.985
 4599WAT     H214040   7.145   7.019   0.997
 4600WAT      O14041   7.906   8.671   9.697
 4600WAT     H114042   7.947   8.647   9.785
 4600WAT     H214043   7.976   8.669   9.626
 4601WAT      O14044   8.450   4.600   5.177
 4601WAT     H114045   8.423   4.633   5.268
 4601WAT     H214046   8.541   4.559   5.182
 4602WAT      O14047   4.201   9.350   7.149
 4602WAT     H114048   4.289   9.302   7.148
 4602WAT     H214049   4.207   9.428   7.212
 4603WAT      O14050   8.529   0.466   0.910
 4603WAT     H114051   8.517   0.547   0.967
 4603WAT     H214052   8.496   0.485   0.817
 4604WAT      O14053   7.669   1.860   6.369
 4604WAT     H114054   7.709   1.942   6.412
 4604WAT     H214055   7.667   1.872   6.270
 4605WAT      O14056   7.923   5.303   8.070
 4605WAT     H114057   7.845   5.350   8.113
 4605WAT     H214058   7.984   5.269   8.142
 4606WAT      O14059   4.852   8.042   9.115
 4606WAT     H114060   4.947   8.045   9.146
 4606WAT     H214061   4.823   8.134   9.090
 4607WAT      O14062   9.865   2.138   2.878
 4607WAT     H114063   9.887   2.069   2.809
 4607WAT     H214064   9.902   2.227   2.850
 4608WAT      O14065   8.909   0.561   2.405
 4608WAT     H114066   9.000   0.596   2.381
 4608WAT     H214067   8.918   0.484   2.467
 4609WAT      O14068   7.019   0.921   7.572
 4609WAT     H114069   6.951   0.849   7.558
 4609WAT     H214070   7.063   0.943   7.484
 4610WAT      O14071   3.463   4.702   1.507
 4610WAT     H114072   3.523   4.624   1.523
 4610WAT     H214073   3.500   4.759   1.434
 4611WAT      O14074   9.491   7.662   1.560
 4611WAT     H114075   9.494   7.742   1.621
 4611WAT     H214076   9.547   7.589   1.599
 4612WAT      O14077   3.648   3.901   7.613
 4612WAT     H114078   3.619   3.996   7.602
 4612WAT     H214079   3.686   3.888   7.705
 4613WAT      O14080   3.346   9.165   1.623
 4613WAT     H114081   3.334   9.066   1.613
 4613WAT     H214082   3.371   9.186   1.718
 4614WAT      O14083   3.052   2.740   7.027
 4614WAT     H114084   2.960   2.764   6.996
 4614WAT     H214085   3.053   2.647   7.063
 4615WAT      O14086   5.270   3.169   1.891
 4615WAT     H114087   5.232   3.225   1.964
 4615WAT     H214088   5.342   3.219   1.844
 4616WAT      O14089   1.873   5.405   7.216
 4616WAT     H114090   1.945   5.359   7.163
 4616WAT     H214091   1.836   5.342   7.283
 4617WAT      O14092   1.506   0.352   5.491
 4617WAT     H114093   1.442   0.329   5.565
 4617WAT     H214094   1.461   0.335   5.403
 4618WAT      O14095   6.436   2.945   9.879
 4618WAT     H114096   6.418   2.987   9.790
 4618WAT     H214097   6.535   2.936   9.892
 4619WAT      O14098   2.544   9.471   6.445
 4619WAT     H114099   2.619   9.406   6.431
 4619WAT     H214100   2.457   9.422   6.443
 4620WAT      O14101   9.726   2.529   1.837
 4620WAT     H114102   9.758   2.514   1.743
 4620WAT     H214103   9.804   2.523   1.900
 4621WAT      O14104   7.186   5.562   9.330
 4621WAT     H114105   7.150   5.651   9.300
 4621WAT     H214106   7.269   5.541   9.279
 4622WAT      O14107   7.196   2.431   5.164
 4622WAT     H114108   7.239   2.428   5.254
 4622WAT     H214109   7.204   2.342   5.120
 4623WAT      O14110   5.993   0.328   8.588
 4623WAT     H114111   5.894   0.330   8.573
 4623WAT     H214112   6.040   0.341   8.501
 4624WAT      O14113   3.807   7.274   3.875
 4624WAT     H114114   3.862   7.229   3.947
 4624WAT     H214115   3.821   7.373   3.880
 4625WAT      O14116   8.903   5.001   9.068
 4625WAT     H114117   8.854   5.015   9.154
 4625WAT     H214118   8.996   5.035   9.077
 4626WAT      O14119   2.324   7.015   5.993
 4626WAT     H114120   2.295   6.993   5.899
 4626WAT     H214121   2.249   6.996   6.056
 4627WAT      O14122   6.030   1.340   6.662
 4627WAT     H114123   6.043   1.241   6.670
 4627WAT     H214124   6.005   1.364   6.568
 4628WAT      O14125   8.863   4.928   2.831
 4628WAT     H114126   8.926   4.992   2.788
 4628WAT     H214127   8.781   4.976   2.860
 4629WAT      O14128   7.849   3.326   1.258
 4629WAT     H114129   7.890   3.351   1.171
 4629WAT     H214130   7.761   3.281   1.242
 4630WAT      O14131   6.661   3.892   9.261
 4630WAT     H114132   6.677   3.802   9.220
 4630WAT     H214133   6.683   3.963   9.195
 4631WAT      O14134   6.476   9.135   7.973
 4631WAT     H114135   6.411   9.060   7.966
 4631WAT     H214136   6.512   9.139   8.066
 4632WAT      O14137   4.999   8.638   0.932
 4632WAT     H114138   5.027   8.682   1.017
 4632WAT     H214139   5.078   8.630   0.871
 4633WAT      O14140   0.633   1.340   1.786
 4633WAT     H114141   0.585   1.338   1.698
 4633WAT     H214142   0.679   1.428   1.798
 4634WAT      O14143   7.569   5.501   9.449
 4634WAT     H114144   7.641   5.459   9.504
 4634WAT     H214145   7.482   5.497   9.499
 4635WAT      O14146   8.715   0.426   6.926
 4635WAT     H114147   8.655   0.407   6.848
 4635WAT     H214148   8.777   0.350   6.940
 4636WAT      O14149   7.600   1.954   0.504
 4636WAT     H114150   7.691   1.993   0.488
 4636WAT     H214151   7.533   1.998   0.444
 4637WAT      O14152   9.833   6.774   0.895
 4637WAT     H114153   9.918   6.808   0.856
 4637WAT     H214154   9.757   6.832   0.866
 4638WAT      O14155   0.980   6.104   3.376
 4638WAT     H114156   0.988   6.153   3.463
 4638WAT     H214157   0.883   6.095   3.353
 4639WAT      O14158   5.702   7.461   3.723
 4639WAT     H114159   5.791   7.420   3.747
 4639WAT     H214160   5.631   7.421   3.780
 4640WAT      O14161   9.669   5.847   9.626
 4640WAT     H114162   9.595   5.914   9.619
 4640WAT     H214163   9.748   5.879   9.572
 4641WAT      O14164   1.120   4.368   8.772
 4641WAT     H114165   1.122   4.465   8.796
 4641WAT     H214166   1.054   4.320   8.830
 4642WAT      O14167   2.609   8.072   0.980
 4642WAT     H114168   2.703   8.099   0.997
 4642WAT     H214169   2.579   8.107   0.891
 4643WAT      O14170   0.558   5.843   2.458
 4643WAT     H114171   0.461   5.835   2.478
 4643WAT     H214172   0.571   5.870   2.362
 4644WAT      O14173   2.924   5.030   1.460
 4644WAT     H114174   2.843   5.067   1.504
 4644WAT     H214175   3.000   5.095   1.469
 4645WAT      O14176   4.243   5.075   8.878
 4645WAT     H114177   4.294   5.130   8.813
 4645WAT     H214178   4.207   5.133   8.951
 4646WAT      O14179   0.600   9.764   7.135
 4646WAT     H114180   0.690   9.752   7.178
 4646WAT     H214181   0.573   9.679   7.090
 4647WAT      O14182   5.291   6.532   6.855
 4647WAT     H114183   5.365   6.497   6.913
 4647WAT     H214184   5.276   6.469   6.779
 4648WAT      O14185   2.103   0.903   9.633
 4648WAT     H114186   2.140   0.862   9.550
 4648WAT     H214187   2.075   0.831   9.696
 4649WAT      O14188   4.020   1.946   6.695
 4649WAT     H114189   3.970   1.876   6.645
 4649WAT     H214190   4.114   1.950   6.663
 4650WAT      O14191   1.258   4.247   3.406
 4650WAT     H114192   1.238   4.221   3.501
 4650WAT     H214193   1.316   4.177   3.364
 4651WAT      O14194   7.718   7.860   5.270
 4651WAT     H114195   7.780   7.931   5.236
 4651WAT     H214196   7.690   7.883   5.363
 4652WAT      O14197   3.238   6.069   8.043
 4652WAT     H114198   3.182   6.032   7.969
 4652WAT     H214199   3.179   6.108   8.114
 4653WAT      O14200   1.430   2.557   7.359
 4653WAT     H114201   1.431   2.612   7.442
 4653WAT     H214202   1.523   2.534   7.333
 4654WAT      O14203   5.717   8.614   6.172
 4654WAT     H114204   5.674   8.544   6.114
 4654WAT     H214205   5.648   8.655   6.231
 4655WAT      O14206   8.441   2.461   3.715
 4655WAT     H114207   8.412   2.517   3.637
 4655WAT     H214208   8.439   2.516   3.799
 4656WAT      O14209   4.690   6.580   3.580
 4656WAT     H114210   4.727   6.543   3.666
 4656WAT     H214211   4.590   6.575   3.582
 4657WAT      O14212   9.526   8.180   2.887
 4657WAT     H114213   9.447   8.239   2.871
 4657WAT     H214214   9.497   8.098   2.936
 4658WAT      O14215   4.591   0.814   7.006
 4658WAT     H114216   4.599   0.905   6.966
 4658WAT     H214217   4.682   0.781   7.031
 4659WAT      O14218   1.555   1.420   4.619
 4659WAT     H114219   1.574   1.379   4.530
 4659WAT     H214220   1.457   1.436   4.629
 4660WAT      O14221   8.155   5.183   3.414
 4660WAT     H114222   8.153   5.197   3.315
 4660WAT     H214223   8.233   5.124   3.438
 4661WAT      O14224   5.390   5.960   7.942
 4661WAT     H114225   5.411   5.876   7.993
 4661WAT     H214226   5.459   5.973   7.871
 4662WAT      O14227   1.930   8.393   7.657
 4662WAT     H114228   1.870   8.323   7.695
 4662WAT     H214229   1.878   8.477   7.642
 4663WAT      O14230   4.928   0.460   4.403
 4663WAT     H114231   4.873   0.399   4.460
 4663WAT     H214232   5.023   0.427   4.401
 4664WAT      O14233   2.245   0.413   9.499
 4664WAT     H114234   2.297   0.496   9.521
 4664WAT     H214235   2.219   0.366   9.583
 4665WAT      O14236   2.922   5.657   2.867
 4665WAT     H114237   2.989   5.601   2.819
 4665WAT     H214238   2.852   5.598   2.907
 4666WAT      O14239   6.893   5.368   2.157
 4666WAT     H114240   6.854   5.458   2.138
 4666WAT     H214241   6.861   5.303   2.088
 4667WAT      O14242   5.994   7.849   1.975
 4667WAT     H114243   5.943   7.794   1.909
 4667WAT     H214244   5.930   7.901   2.032
 4668WAT      O14245   3.903   3.395   0.286
 4668WAT     H114246   3.973   3.369   0.353
 4668WAT     H214247   3.819   3.419   0.334
 4669WAT      O14248   8.639   7.425   0.680
 4669WAT     H114249   8.588   7.469   0.754
 4669WAT     H214250   8.668   7.333   0.709
 4670WAT      O14251   7.662   3.389   8.624
 4670WAT     H114252   7.724   3.453   8.670
 4670WAT     H214253   7.678   3.297   8.659
 4671WAT      O14254   1.317   5.108   4.580
 4671WAT     H114255   1.378   5.169   4.631
 4671WAT     H214256   1.371   5.037   4.535
 4672WAT      O14257   0.913   1.519   9.474
 4672WAT     H114258   0.852   1.443   9.450
 4672WAT     H214259   0.994   1.482   9.519
 4673WAT      O14260   7.232   5.448   0.252
 4673WAT     H114261   7.169   5.416   0.323
 4673WAT     H214262   7.325   5.423   0.277
 4674WAT      O14263   2.533   8.389   2.491
 4674WAT     H114264   2.595   8.417   2.564
 4674WAT     H214265   2.449   8.354   2.532
 4675WAT      O14266   4.126   3.872   3.517
 4675WAT     H114267   4.153   3.885   3.613
 4675WAT     H214268   4.036   3.828   3.514
 4676WAT      O14269   8.976   8.212   8.527
 4676WAT     H114270   9.056   8.183   8.580
 4676WAT     H214271   8.953   8.306   8.551
 4677WAT      O14272   9.400   9.816   7.130
 4677WAT     H114273   9.303   9.829   7.150
 4677WAT     H214274   9.437   9.747   7.192
 4678WAT      O14275   2.301   0.512   5.205
 4678WAT     H114276   2.277   0.531   5.300
 4678WAT     H214277   2.282   0.593   5.149
 4679WAT      O14278   5.594   8.656   9.054
 4679WAT     H114279   5.643   8.575   9.086
 4679WAT     H214280   5.497   8.634   9.041
 4680WAT      O14281   7.323   0.442   2.855
 4680WAT     H114282   7.326   0.542   2.868
 4680WAT     H214283   7.394   0.399   2.910
 4681WAT      O14284   0.728   2.270   2.547
 4681WAT     H114285   0.671   2.336   2.595
 4681WAT     H214286   0.821   2.270   2.586
 4682WAT      O14287   6.109   7.217   0.064
 4682WAT     H114288   6.198   7.187   0.030
 4682WAT     H214289   6.083   7.302   0.020
 4683WAT      O14290   2.966   0.621   3.785
 4683WAT     H114291   2.973   0.600   3.882
 4683WAT     H214292   3.050   0.666   3.755
 4684WAT      O14293   7.944   3.666   2.157
 4684WAT     H114294   7.971   3.570   2.161
 4684WAT     H214295   8.022   3.721   2.128
 4685WAT      O14296   4.492   0.405   6.766
 4685WAT     H114297   4.470   0.307   6.773
 4685WAT     H214298   4.424   0.450   6.708
 4686WAT      O14299   7.158   6.906   9.247
 4686WAT     H114300   7.204   6.936   9.164
 4686WAT     H214301   7.074   6.959   9.259
 4687WAT      O14302   5.133   8.152   4.014
 4687WAT     H114303   5.153   8.250   4.008
 4687WAT     H214304   5.218   8.102   4.028
 4688WAT      O14305   8.661   4.287   4.933
 4688WAT     H114306   8.723   4.365   4.927
 4688WAT     H214307   8.601   4.287   4.853
 4689WAT      O14308   1.003   9.009   6.108
 4689WAT     H114309   1.012   8.912   6.089
 4689WAT     H214310   0.992   9.023   6.207
 4690WAT      O14311   6.003   7.576   5.930
 4690WAT     H114312   5.998   7.507   5.857
 4690WAT     H214313   6.036   7.662   5.891
 4691WAT      O14314   6.958   4.097   9.168
 4691WAT     H114315   6.963   4.022   9.102
 4691WAT     H214316   6.865   4.133   9.170
 4692WAT      O14317   9.543   1.071   8.848
 4692WAT     H114318   9.531   0.986   8.900
 4692WAT     H214319   9.569   1.048   8.754
 4693WAT      O14320   2.689   9.323   2.113
 4693WAT     H114321   2.659   9.258   2.044
 4693WAT     H214322   2.782   9.353   2.093
 4694WAT      O14323   2.468   2.024   6.246
 4694WAT     H114324   2.549   2.077   6.221
 4694WAT     H214325   2.413   2.076   6.312
 4695WAT      O14326   1.219   7.789   5.453
 4695WAT     H114327   1.284   7.817   5.381
 4695WAT     H214328   1.161   7.867   5.478
 4696WAT      O14329   7.079   4.738   0.836
 4696WAT     H114330   7.151   4.773   0.896
 4696WAT     H214331   6.992   4.736   0.885
 4697WAT      O14332   6.574   7.370   8.100
 4697WAT     H114333   6.514   7.422   8.161
 4697WAT     H214334   6.665   7.364   8.141
 4698WAT      O14335   5.319   9.835   6.799
 4698WAT     H114336   5.277   9.753   6.836
 4698WAT     H214337   5.251   9.908   6.793
 4699WAT      O14338   2.347   9.844   0.887
 4699WAT     H114339   2.323   9.778   0.959
 4699WAT     H214340   2.281   9.837   0.812
 4700WAT      O14341   9.846   8.048   6.583
 4700WAT     H114342   9.940   8.080   6.598
 4700WAT     H214343   9.791   8.065   6.665
 4701WAT      O14344   1.625   9.080   9.701
 4701WAT     H114345   1.559   9.009   9.726
 4701WAT     H214346   1.584   9.170   9.711
 4702WAT      O14347   1.465   7.592   8.200
 4702WAT     H114348   1.508   7.610   8.112
 4702WAT     H214349   1.497   7.504   8.236
 4703WAT      O14350   5.689   3.601   5.209
 4703WAT     H114351   5.747   3.644   5.278
 4703WAT     H214352   5.744   3.581   5.127
 4704WAT      O14353   5.275   2.407   3.222
 4704WAT     H114354   5.297   2.325   3.276
 4704WAT     H214355   5.297   2.391   3.126
 4705WAT      O14356   5.657   9.722   3.847
 4705WAT     H114357   5.583   9.770   3.799
 4705WAT     H214358   5.627   9.628   3.869
 4706WAT      O14359   5.396   3.838   3.185
 4706WAT     H114360   5.330   3.845   3.260
 4706WAT     H214361   5.470   3.904   3.199
 4707WAT      O14362   9.627   4.130   5.219
 4707WAT     H114363   9.567   4.209   5.227
 4707WAT     H214364   9.600   4.060   5.285
 4708WAT      O14365   8.628   6.554   7.140
 4708WAT     H114366   8.638   6.626   7.071
 4708WAT     H214367   8.534   6.554   7.175
 4709WAT      O14368   8.736   3.322   2.246
 4709WAT     H114369   8.765   3.404   2.197
 4709WAT     H214370   8.669   3.347   2.316
 4710WAT      O14371   1.427   6.467   2.604
 4710WAT     H114372   1.330   6.443   2.607
 4710WAT     H214373   1.476   6.400   2.548
 4711WAT      O14374   5.214   6.881   8.842
 4711WAT     H114375   5.293   6.928   8.802
 4711WAT     H214376   5.184   6.808   8.781
 4712WAT      O14377   0.095   3.289   4.438
 4712WAT     H114378   0.137   3.367   4.393
 4712WAT     H214379   0.165   3.233   4.481
 4713WAT      O14380   9.470   0.714   1.545
 4713WAT     H114381   9.392   0.743   1.490
 4713WAT     H214382   9.555   0.734   1.497
 4714WAT      O14383   7.513   8.559   1.637
 4714WAT     H114384   7.603   8.594   1.609
 4714WAT     H214385   7.525   8.493   1.711
 4715WAT      O14386   6.138   0.378   3.367
 4715WAT     H114387   6.043   0.402   3.388
 4715WAT     H214388   6.148   0.279   3.367
 4716WAT      O14389   1.803   1.878   3.971
 4716WAT     H114390   1.866   1.806   4.000
 4716WAT     H214391   1.726   1.883   4.035
 4717WAT      O14392   1.589   2.512   2.406
 4717WAT     H114393   1.626   2.538   2.317
 4717WAT     H214394   1.657   2.532   2.477
 4718WAT      O14395   9.585   7.725   0.926
 4718WAT     H114396   9.585   7.822   0.904
 4718WAT     H214397   9.671   7.699   0.968
 4719WAT      O14398   0.139   7.036   5.525
 4719WAT     H114399   0.076   7.086   5.585
 4719WAT     H214400   0.193   6.972   5.579
 4720WAT      O14401   7.444   1.193   4.985
 4720WAT     H114402   7.506   1.271   4.982
 4720WAT     H214403   7.350   1.225   4.973
 4721WAT      O14404   1.220   1.216   9.427
 4721WAT     H114405   1.197   1.311   9.404
 4721WAT     H214406   1.191   1.156   9.353
 4722WAT      O14407   4.968   6.965   1.449
 4722WAT     H114408   4.972   6.996   1.354
 4722WAT     H214409   4.913   6.882   1.455
 4723WAT      O14410   7.899   9.532   4.223
 4723WAT     H114411   7.859   9.616   4.259
 4723WAT     H214412   7.957   9.489   4.293
 4724WAT      O14413   3.665   1.221   3.845
 4724WAT     H114414   3.759   1.191   3.828
 4724WAT     H214415   3.634   1.280   3.770
 4725WAT      O14416   4.375   8.666   4.325
 4725WAT     H114417   4.343   8.726   4.252
 4725WAT     H214418   4.406   8.722   4.402
 4726WAT      O14419   9.100   2.277   3.988
 4726WAT     H114420   9.008   2.237   3.992
 4726WAT     H214421   9.143   2.271   4.079
 4727WAT      O14422   7.383   2.021   0.987
 4727WAT     H114423   7.455   1.956   0.961
 4727WAT     H214424   7.313   2.024   0.915
 4728WAT      O14425   5.951   5.114   8.444
 4728WAT     H114426   6.003   5.199   8.445
 4728WAT     H214427   5.856   5.133   8.421
 4729WAT      O14428   6.166   2.323   3.079
 4729WAT     H114429   6.114   2.322   2.994
 4729WAT     H214430   6.264   2.320   3.059
 4730WAT      O14431   7.783   9.619   0.429
 4730WAT     H114432   7.740   9.559   0.497
 4730WAT     H214433   7.851   9.566   0.377
 4731WAT      O14434   2.396   3.996   5.885
 4731WAT     H114435   2.301   3.967   5.892
 4731WAT     H214436   2.401   4.095   5.870
 4732WAT      O14437   8.216   0.411   3.289
 4732WAT     H114438   8.274   0.385   3.367
 4732WAT     H214439   8.206   0.333   3.228
 4733WAT      O14440   8.828   6.649   1.423
 4733WAT     H114441   8.731   6.658   1.403
 4733WAT     H214442   8.869   6.581   1.362
 4734WAT      O14443   0.235   2.157   9.254
 4734WAT     H114444   0.142   2.157   9.290
 4734WAT     H214445   0.289   2.225   9.302
 4735WAT      O14446   6.779   7.914   8.551
 4735WAT     H114447   6.806   7.923   8.455
 4735WAT     H214448   6.680   7.922   8.559
 4736WAT      O14449   8.672   3.537   3.263
 4736WAT     H114450   8.697   3.548   3.359
 4736WAT     H214451   8.632   3.446   3.249
 4737WAT      O14452   4.168   6.111   1.102
 4737WAT     H114453   4.119   6.116   1.015
 4737WAT     H214454   4.233   6.186   1.108
 4738WAT      O14455   8.234   7.221   9.710
 4738WAT     H114456   8.312   7.167   9.743
 4738WAT     H214457   8.242   7.315   9.743
 4739WAT      O14458   8.106   7.721   1.293
 4739WAT     H114459   8.085   7.815   1.267
 4739WAT     H214460   8.073   7.704   1.386
 4740WAT      O14461   6.547   4.978   1.963
 4740WAT     H114462   6.594   4.952   1.878
 4740WAT     H214463   6.460   5.021   1.940
 4741WAT      O14464   7.879   8.572   9.334
 4741WAT     H114465   7.928   8.660   9.329
 4741WAT     H214466   7.792   8.585   9.381
 4742WAT      O14467   8.681   2.380   2.845
 4742WAT     H114468   8.584   2.358   2.832
 4742WAT     H214469   8.691   2.443   2.921
 4743WAT      O14470   3.903   3.048   3.982
 4743WAT     H114471   3.984   3.041   3.924
 4743WAT     H214472   3.932   3.053   4.078
 4744WAT      O14473   2.568   0.408   3.025
 4744WAT     H114474   2.521   0.450   3.103
 4744WAT     H214475   2.656   0.372   3.055
 4745WAT      O14476   9.719   7.656   8.724
 4745WAT     H114477   9.675   7.566   8.732
 4745WAT     H214478   9.781   7.670   8.801
 4746WAT      O14479   9.053   7.076   8.598
 4746WAT     H114480   8.977   7.060   8.535
 4746WAT     H214481   9.030   7.039   8.688
 4747WAT      O14482   7.404   7.773   5.650
 4747WAT     H114483   7.340   7.703   5.619
 4747WAT     H214484   7.355   7.846   5.696
 4748WAT      O14485   8.621   9.082   1.817
 4748WAT     H114486   8.663   9.113   1.731
 4748WAT     H214487   8.546   9.020   1.797
 4749WAT      O14488   4.511   1.290   2.508
 4749WAT     H114489   4.415   1.272   2.488
 4749WAT     H214490   4.564   1.288   2.423
 4750WAT      O14491   9.774   5.584   1.290
 4750WAT     H114492   9.850   5.646   1.309
 4750WAT     H214493   9.689   5.636   1.287
 4751WAT      O14494   6.985   3.552   7.203
 4751WAT     H114495   7.041   3.635   7.209
 4751WAT     H214496   6.936   3.550   7.117
 4752WAT      O14497   7.823   9.621   8.350
 4752WAT     H114498   7.825   9.605   8.251
 4752WAT     H214499   7.730   9.645   8.378
 4753WAT      O14500   7.350   3.721   7.153
 4753WAT     H114501   7.438   3.766   7.170
 4753WAT     H214502   7.276   3.788   7.163
 4754WAT      O14503   1.287   1.223   8.289
 4754WAT     H114504   1.296   1.267   8.200
 4754WAT     H214505   1.191   1.196   8.303
 4755WAT      O14506   2.632   3.953   8.662
 4755WAT     H114507   2.681   4.013   8.599
 4755WAT     H214508   2.689   3.874   8.683
 4756WAT      O14509   0.996   6.179   4.494
 4756WAT     H114510   0.952   6.185   4.583
 4756WAT     H214511   1.061   6.103   4.495
 4757WAT      O14512   7.310   9.441   3.650
 4757WAT     H114513   7.251   9.481   3.580
 4757WAT     H214514   7.374   9.377   3.607
 4758WAT      O14515   0.796   8.515   8.165
 4758WAT     H114516   0.743   8.551   8.089
 4758WAT     H214517   0.892   8.506   8.138
 4759WAT      O14518   9.538   7.462   0.965
 4759WAT     H114519   9.613   7.410   0.925
 4759WAT     H214520   9.558   7.559   0.959
 4760WAT      O14521   7.023   6.211   4.692
 4760WAT     H114522   6.999   6.303   4.662
 4760WAT     H214523   7.060   6.214   4.785
 4761WAT      O14524   4.299   0.376   8.792
 4761WAT     H114525   4.352   0.405   8.713
 4761WAT     H214526   4.360   0.347   8.865
 4762WAT      O14527   5.883   2.147   9.155
 4762WAT     H114528   5.882   2.093   9.239
 4762WAT     H214529   5.962   2.208   9.155
 4763WAT      O14530   7.548   1.109   8.650
 4763WAT     H114531   7.482   1.054   8.598
 4763WAT     H214532   7.554   1.200   8.609
 4764WAT      O14533   7.792   0.329   9.633
 4764WAT     H114534   7.789   0.231   9.613
 4764WAT     H214535   7.875   0.351   9.684
 4765WAT      O14536   7.006   7.002   5.454
 4765WAT     H114537   7.028   6.966   5.545
 4765WAT     H214538   6.953   7.086   5.464
 4766WAT      O14539   6.846   3.685   2.669
 4766WAT     H114540   6.763   3.740   2.676
 4766WAT     H214541   6.833   3.598   2.717
 4767WAT      O14542   5.695   7.298   7.276
 4767WAT     H114543   5.634   7.298   7.355
 4767WAT     H214544   5.769   7.231   7.291
 4768WAT      O14545   7.808   4.943   8.683
 4768WAT     H114546   7.809   4.875   8.756
 4768WAT     H214547   7.807   4.897   8.594
 4769WAT      O14548   5.600   1.648   2.761
 4769WAT     H114549   5.510   1.633   2.720
 4769WAT     H214550   5.622   1.745   2.759
 4770WAT      O14551   7.253   3.160   1.881
 4770WAT     H114552   7.161   3.138   1.849
 4770WAT     H214553   7.316   3.086   1.856
 4771WAT      O14554   5.276   3.187   9.569
 4771WAT     H114555   5.375   3.174   9.560
 4771WAT     H214556   5.255   3.284   9.584
 4772WAT      O14557   8.713   5.772   2.075
 4772WAT     H114558   8.664   5.807   1.995
 4772WAT     H214559   8.647   5.742   2.144
 4773WAT      O14560   0.469   4.201   9.696
 4773WAT     H114561   0.514   4.225   9.611
 4773WAT     H214562   0.460   4.101   9.702
 4774WAT      O14563   7.567   3.209   2.471
 4774WAT     H114564   7.619   3.155   2.405
 4774WAT     H214565   7.570   3.306   2.444
 4775WAT      O14566   8.082   2.338   2.180
 4775WAT     H114567   8.021   2.408   2.215
 4775WAT     H214568   8.174   2.352   2.217
 4776WAT      O14569   9.587   4.681   9.835
 4776WAT     H114570   9.642   4.619   9.891
 4776WAT     H214571   9.505   4.633   9.803
 4777WAT      O14572   2.785   8.101   0.714
 4777WAT     H114573   2.800   8.077   0.618
 4777WAT     H214574   2.766   8.199   0.721
 4778WAT      O14575   4.649   3.523   7.001
 4778WAT     H114576   4.608   3.611   7.026
 4778WAT     H214577   4.746   3.525   7.023
 4779WAT      O14578   8.483   5.679   0.928
 4779WAT     H114579   8.575   5.718   0.938
 4779WAT     H214580   8.488   5.580   0.941
 4780WAT      O14581   6.430   1.407   2.944
 4780WAT     H114582   6.357   1.341   2.966
 4780WAT     H214583   6.456   1.457   3.027
 4781WAT      O14584   9.579   2.008   3.282
 4781WAT     H114585   9.642   2.001   3.206
 4781WAT     H214586   9.524   2.091   3.272
 4782WAT      O14587   4.170   9.634   3.121
 4782WAT     H114588   4.222   9.563   3.168
 4782WAT     H214589   4.182   9.627   3.023
 4783WAT      O14590   6.290   9.642   2.266
 4783WAT     H114591   6.303   9.740   2.283
 4783WAT     H214592   6.255   9.599   2.349
 4784WAT      O14593   0.301   8.136   9.094
 4784WAT     H114594   0.361   8.066   9.056
 4784WAT     H214595   0.347   8.225   9.093
 4785WAT      O14596   1.963   4.109   6.930
 4785WAT     H114597   2.004   4.162   7.004
 4785WAT     H214598   2.019   4.028   6.912
 4786WAT      O14599   5.121   0.776   6.906
 4786WAT     H114600   5.066   0.695   6.886
 4786WAT     H214601   5.162   0.766   6.997
 4787WAT      O14602   4.024   5.072   9.282
 4787WAT     H114603   3.984   5.077   9.190
 4787WAT     H214604   4.105   5.012   9.279
 4788WAT      O14605   7.551   3.254   0.017
 4788WAT     H114606   7.633   3.305  -0.009
 4788WAT     H214607   7.500   3.229  -0.065
 4789WAT      O14608   6.599   8.065   7.225
 4789WAT     H114609   6.601   7.969   7.197
 4789WAT     H214610   6.504   8.097   7.231
 4790WAT      O14611   2.098   7.792   1.056
 4790WAT     H114612   2.172   7.859   1.063
 4790WAT     H214613   2.126   7.707   1.102
 4791WAT      O14614   1.140   5.881   8.937
 4791WAT     H114615   1.206   5.912   8.868
 4791WAT     H214616   1.048   5.905   8.907
 4792WAT      O14617   3.698   9.607   2.588
 4792WAT     H114618   3.675   9.610   2.686
 4792WAT     H214619   3.636   9.668   2.538
 4793WAT      O14620   7.224   7.774   8.729
 4793WAT     H114621   7.300   7.837   8.720
 4793WAT     H214622   7.138   7.821   8.706
 4794WAT      O14623   8.715   2.649   5.531
 4794WAT     H114624   8.681   2.736   5.495
 4794WAT     H214625   8.753   2.663   5.623
 4795WAT      O14626   8.269   7.113   9.232
 4795WAT     H114627   8.189   7.173   9.229
 4795WAT     H214628   8.281   7.070   9.142
 4796WAT      O14629   6.855   4.175   0.967
 4796WAT     H114630   6.833   4.230   1.047
 4796WAT     H214631   6.933   4.116   0.987
 4797WAT      O14632   0.221   3.661   4.895
 4797WAT     H114633   0.175   3.572   4.899
 4797WAT     H214634   0.153   3.734   4.901
 4798WAT      O14635   0.828   0.869   3.120
 4798WAT     H114636   0.799   0.801   3.053
 4798WAT     H214637   0.906   0.920   3.085
 4799WAT      O14638   2.834   4.656   2.066
 4799WAT     H114639   2.841   4.558   2.083
 4799WAT     H214640   2.844   4.674   1.969
 4800WAT      O14641   6.299   9.757   8.805
 4800WAT     H114642   6.389   9.787   8.837
 4800WAT     H214643   6.278   9.802   8.718
 4801WAT      O14644   4.865   2.237   5.806
 4801WAT     H114645   4.779   2.196   5.836
 4801WAT     H214646   4.861   2.255   5.707
 4802WAT      O14647   8.354   7.160   6.478
 4802WAT     H114648   8.329   7.096   6.551
 4802WAT     H214649   8.422   7.117   6.419
 4803WAT      O14650   0.572   4.339   5.167
 4803WAT     H114651   0.592   4.400   5.090
 4803WAT     H214652   0.515   4.263   5.136
 4804WAT      O14653   6.021   7.174   6.542
 4804WAT     H114654   6.010   7.174   6.443
 4804WAT     H214655   6.055   7.263   6.572
 4805WAT      O14656   3.237   5.399   9.381
 4805WAT     H114657   3.191   5.461   9.318
 4805WAT     H214658   3.311   5.448   9.428
 4806WAT      O14659   6.142   7.734   1.177
 4806WAT     H114660   6.114   7.685   1.260
 4806WAT     H214661   6.088   7.817   1.168
 4807WAT      O14662   3.883   7.532   3.961
 4807WAT     H114663   3.909   7.583   4.043
 4807WAT     H214664   3.904   7.586   3.880
 4808WAT      O14665   6.629   3.143   4.381
 4808WAT     H114666   6.572   3.119   4.302
 4808WAT     H214667   6.718   3.176   4.349
 4809WAT      O14668   1.772   2.565   2.581
 4809WAT     H114669   1.752   2.647   2.635
 4809WAT     H214670   1.871   2.555   2.571
 4810WAT      O14671   3.860   5.232   7.687
 4810WAT     H114672   3.855   5.207   7.591
 4810WAT     H214673   3.774   5.211   7.733
 4811WAT      O14674   3.467   7.146   0.309
 4811WAT     H114675   3.510   7.074   0.364
 4811WAT     H214676   3.405   7.104   0.243
 4812WAT      O14677   9.578   9.141   1.455
 4812WAT     H114678   9.510   9.186   1.512
 4812WAT     H214679   9.634   9.210   1.408
 4813WAT      O14680   0.488   1.792   8.419
 4813WAT     H114681   0.449   1.842   8.341
 4813WAT     H214682   0.495   1.695   8.396
 4814WAT      O14683   6.135   3.327   4.892
 4814WAT     H114684   6.213   3.290   4.943
 4814WAT     H214685   6.124   3.276   4.807
 4815WAT      O14686   6.028   8.674   3.600
 4815WAT     H114687   5.954   8.608   3.587
 4815WAT     H214688   5.995   8.750   3.655
 4816WAT      O14689   9.868   3.812   6.835
 4816WAT     H114690   9.844   3.869   6.756
 4816WAT     H214691   9.817   3.725   6.830
 4817WAT      O14692   2.816   4.827   7.100
 4817WAT     H114693   2.727   4.801   7.138
 4817WAT     H214694   2.808   4.915   7.054
 4818WAT      O14695   7.140   9.498   8.101
 4818WAT     H114696   7.191   9.446   8.170
 4818WAT     H214697   7.200   9.518   8.023
 4819WAT      O14698   8.667   3.144   2.049
 4819WAT     H114699   8.568   3.145   2.034
 4819WAT     H214700   8.692   3.217   2.111
 4820WAT      O14701   5.048   0.745   3.543
 4820WAT     H114702   5.095   0.661   3.516
 4820WAT     H214703   5.114   0.819   3.552
 4821WAT      O14704   3.781   3.614   5.327
 4821WAT     H114705   3.723   3.549   5.279
 4821WAT     H214706   3.761   3.610   5.425
 4822WAT      O14707   7.460   8.425   9.033
 4822WAT     H114708   7.492   8.406   9.126
 4822WAT     H214709   7.377   8.481   9.036
 4823WAT      O14710   3.162   3.574   3.624
 4823WAT     H114711   3.191   3.485   3.658
 4823WAT     H214712   3.138   3.566   3.527
 4824WAT      O14713   2.094   8.510   3.561
 4824WAT     H114714   2.006   8.466   3.545
 4824WAT     H214715   2.126   8.489   3.653
 4825WAT      O14716   2.819   6.331   0.438
 4825WAT     H114717   2.818   6.233   0.421
 4825WAT     H214718   2.876   6.376   0.370
 4826WAT      O14719   0.456   5.157   1.542
 4826WAT     H114720   0.550   5.124   1.548
 4826WAT     H214721   0.403   5.095   1.485
 4827WAT      O14722   3.468   0.014   2.853
 4827WAT     H114723   3.403   0.012   2.776
 4827WAT     H214724   3.425   0.059   2.931
 4828WAT      O14725   4.117   5.884   0.877
 4828WAT     H114726   4.159   5.800   0.844
 4828WAT     H214727   4.147   5.961   0.820
 4829WAT      O14728   7.227   9.189   7.449
 4829WAT     H114729   7.190   9.281   7.460
 4829WAT     H214730   7.166   9.123   7.493
 4830WAT      O14731   3.667   6.371   0.776
 4830WAT     H114732   3.625   6.462   0.784
 4830WAT     H214733   3.673   6.346   0.679
 4831WAT      O14734   4.117   5.084   5.065
 4831WAT     H114735   4.126   5.178   5.030
 4831WAT     H214736   4.050   5.035   5.009
 4832WAT      O14737   8.690   3.633   2.113
 4832WAT     H114738   8.714   3.713   2.168
 4832WAT     H214739   8.773   3.589   2.079
 4833WAT      O14740   2.815   0.694   0.956
 4833WAT     H114741   2.849   0.760   1.023
 4833WAT     H214742   2.785   0.744   0.874
 4834WAT      O14743   5.176   4.620   3.169
 4834WAT     H114744   5.149   4.701   3.117
 4834WAT     H214745   5.112   4.545   3.151
 4835WAT      O14746   3.164   5.350   7.569
 4835WAT     H114747   3.119   5.409   7.636
 4835WAT     H214748   3.263   5.364   7.573
 4836WAT      O14749   1.518   9.048   4.600
 4836WAT     H114750   1.583   9.091   4.663
 4836WAT     H214751   1.488   9.115   4.532
 4837WAT      O14752   6.832   3.972   8.451
 4837WAT     H114753   6.778   4.054   8.468
 4837WAT     H214754   6.772   3.893   8.439
 4838WAT      O14755   6.322   5.825   7.234
 4838WAT     H114756   6.350   5.883   7.311
 4838WAT     H214757   6.403   5.793   7.185
 4839WAT      O14758   3.231   2.292   4.997
 4839WAT     H114759   3.200   2.333   4.911
 4839WAT     H214760   3.318   2.332   5.025
 4840WAT      O14761   6.536   7.005   5.223
 4840WAT     H114762   6.596   6.989   5.145
 4840WAT     H214763   6.520   6.919   5.271
 4841WAT      O14764   3.062   9.147   7.050
 4841WAT     H114765   3.157   9.150   7.080
 4841WAT     H214766   3.002   9.157   7.130
 4842WAT      O14767   4.789   1.493   8.814
 4842WAT     H114768   4.703   1.531   8.779
 4842WAT     H214769   4.859   1.498   8.742
 4843WAT      O14770   6.305   8.746   4.654
 4843WAT     H114771   6.313   8.657   4.701
 4843WAT     H214772   6.397   8.777   4.629
 4844WAT      O14773   7.429   9.236   9.573
 4844WAT     H114774   7.390   9.206   9.486
 4844WAT     H214775   7.355   9.266   9.634
 4845WAT      O14776   3.871   2.568   1.492
 4845WAT     H114777   3.883   2.630   1.415
 4845WAT     H214778   3.921   2.483   1.474
 4846WAT      O14779   2.838   0.912   8.545
 4846WAT     H114780   2.924   0.868   8.569
 4846WAT     H214781   2.763   0.848   8.557
 4847WAT      O14782   3.853   8.701   3.466
 4847WAT     H114783   3.874   8.618   3.518
 4847WAT     H214784   3.812   8.769   3.527
 4848WAT      O14785   7.649   9.086   5.496
 4848WAT     H114786   7.722   9.144   5.533
 4848WAT     H214787   7.684   9.036   5.417
 4849WAT      O14788   7.252   2.482   6.577
 4849WAT     H114789   7.192   2.525   6.645
 4849WAT     H214790   7.322   2.428   6.624
 4850WAT      O14791   8.254   1.102   8.589
 4850WAT     H114792   8.202   1.018   8.604
 4850WAT     H214793   8.291   1.102   8.496
 4851WAT      O14794   5.248   8.519   2.909
 4851WAT     H114795   5.259   8.475   2.820
 4851WAT     H214796   5.288   8.463   2.981
 4852WAT      O14797   4.949   6.381   1.992
 4852WAT     H114798   4.938   6.282   1.987
 4852WAT     H214799   5.046   6.404   1.993
 4853WAT      O14800   8.902   4.462   1.738
 4853WAT     H114801   8.900   4.484   1.641
 4853WAT     H214802   8.829   4.511   1.785
 4854WAT      O14803   7.078   6.692   1.987
 4854WAT     H114804   7.052   6.759   1.918
 4854WAT     H214805   7.091   6.738   2.075
 4855WAT      O14806   6.519   1.930   7.586
 4855WAT     H114807   6.505   1.925   7.685
 4855WAT     H214808   6.542   2.024   7.560
 4856WAT      O14809   7.457   1.224   4.644
 4856WAT     H114810   7.447   1.200   4.741
 4856WAT     H214811   7.538   1.179   4.607
 4857WAT      O14812   3.576   4.018   4.476
 4857WAT     H114813   3.565   4.063   4.387
 4857WAT     H214814   3.671   3.987   4.486
 4858WAT      O14815   3.191   5.130   9.233
 4858WAT     H114816   3.242   5.202   9.280
 4858WAT     H214817   3.244   5.045   9.236
 4859WAT      O14818   6.732   8.662   7.900
 4859WAT     H114819   6.778   8.748   7.875
 4859WAT     H214820   6.647   8.683   7.949
 4860WAT      O14821   0.957   7.485   7.814
 4860WAT     H114822   1.054   7.496   7.832
 4860WAT     H214823   0.940   7.493   7.716
 4861WAT      O14824   9.057   0.478   6.670
 4861WAT     H114825   9.089   0.393   6.629
 4861WAT     H214826   9.053   0.468   6.769
 4862WAT      O14827   2.158   0.968   1.747
 4862WAT     H114828   2.148   0.869   1.751
 4862WAT     H214829   2.084   1.007   1.692
 4863WAT      O14830   3.171   8.713   6.165
 4863WAT     H114831   3.122   8.688   6.248
 4863WAT     H214832   3.269   8.699   6.179
 4864WAT      O14833   3.408   9.163   9.254
 4864WAT     H114834   3.364   9.244   9.217
 4864WAT     H214835   3.480   9.133   9.191
 4865WAT      O14836   9.197   4.151   4.274
 4865WAT     H114837   9.272   4.104   4.228
 4865WAT     H214838   9.235   4.222   4.333
 4866WAT      O14839   4.344   3.722   3.463
 4866WAT     H114840   4.265   3.784   3.463
 4866WAT     H214841   4.382   3.715   3.555
 4867WAT      O14842   7.573   0.913   3.294
 4867WAT     H114843   7.655   0.970   3.296
 4867WAT     H214844   7.581   0.838   3.360
 4868WAT      O14845   1.664   4.430   0.529
 4868WAT     H114846   1.641   4.357   0.465
 4868WAT     H214847   1.763   4.436   0.539
 4869WAT      O14848   6.701   1.307   5.087
 4869WAT     H114849   6.682   1.218   5.129
 4869WAT     H214850   6.693   1.378   5.157
 4870WAT      O14851   6.484   6.384   7.363
 4870WAT     H114852   6.502   6.452   7.293
 4870WAT     H214853   6.436   6.306   7.323
 4871WAT      O14854   7.121   7.715   7.682
 4871WAT     H114855   7.036   7.707   7.630
 4871WAT     H214856   7.101   7.745   7.775
 4872WAT      O14857   6.665   4.935   9.775
 4872WAT     H114858   6.745   4.879   9.755
 4872WAT     H214859   6.637   4.920   9.870
 4873WAT      O14860   6.548   2.718   7.789
 4873WAT     H114861   6.610   2.640   7.785
 4873WAT     H214862   6.540   2.760   7.698
 4874WAT      O14863   6.283   2.508   3.819
 4874WAT     H114864   6.242   2.467   3.900
 4874WAT     H214865   6.372   2.465   3.801
 4875WAT      O14866   4.203   1.022   7.166
 4875WAT     H114867   4.216   0.943   7.106
 4875WAT     H214868   4.166   1.098   7.114
 4876WAT      O14869   3.088   4.692   2.181
 4876WAT     H114870   2.994   4.692   2.147
 4876WAT     H214871   3.096   4.757   2.256
 4877WAT      O14872   7.611   6.812   9.540
 4877WAT     H114873   7.581   6.907   9.531
 4877WAT     H214874   7.577   6.759   9.462
 4878WAT      O14875   9.165   9.741   9.585
 4878WAT     H114876   9.249   9.779   9.547
 4878WAT     H214877   9.178   9.722   9.682
 4879WAT      O14878   7.763   5.800   4.882
 4879WAT     H114879   7.687   5.791   4.947
 4879WAT     H214880   7.744   5.745   4.801
 4880WAT      O14881   4.448   2.367   8.589
 4880WAT     H114882   4.414   2.308   8.662
 4880WAT     H214883   4.436   2.463   8.614
 4881WAT      O14884   2.510   4.185   0.663
 4881WAT     H114885   2.427   4.241   0.671
 4881WAT     H214886   2.569   4.222   0.592
 4882WAT      O14887   0.053   8.871   8.522
 4882WAT     H114888   0.076   8.870   8.425
 4882WAT     H214889   0.133   8.842   8.575
 4883WAT      O14890   6.606   0.068   4.747
 4883WAT     H114891   6.615   0.160   4.787
 4883WAT     H214892   6.511   0.053   4.719
 4884WAT      O14893   5.205   3.786   0.650
 4884WAT     H114894   5.138   3.720   0.683
 4884WAT     H214895   5.258   3.745   0.576
 4885WAT      O14896   4.140   0.660   0.948
 4885WAT     H114897   4.166   0.755   0.960
 4885WAT     H214898   4.046   0.646   0.980
 4886WAT      O14899   6.795   7.133   7.432
 4886WAT     H114900   6.714   7.184   7.459
 4886WAT     H214901   6.786   7.102   7.338
 4887WAT      O14902   3.066   7.267   8.866
 4887WAT     H114903   3.068   7.356   8.820
 4887WAT     H214904   2.997   7.209   8.822
 4888WAT      O14905   5.496   5.156   9.669
 4888WAT     H114906   5.564   5.141   9.598
 4888WAT     H214907   5.533   5.127   9.757
 4889WAT      O14908   3.588   0.374   4.561
 4889WAT     H114909   3.585   0.360   4.462
 4889WAT     H214910   3.523   0.312   4.606
 4890WAT      O14911   2.378   6.412   3.079
 4890WAT     H114912   2.404   6.392   3.174
 4890WAT     H214913   2.456   6.452   3.031
 4891WAT      O14914   7.955   0.442   1.928
 4891WAT     H114915   7.893   0.511   1.966
 4891WAT     H214916   8.037   0.488   1.893
 4892WAT      O14917   9.006   0.039   0.592
 4892WAT     H114918   8.938   0.059   0.662
 4892WAT     H214919   8.973   0.070   0.503
 4893WAT      O14920   1.783   7.479   1.215
 4893WAT     H114921   1.764   7.405   1.151
 4893WAT     H214922   1.881   7.479   1.238
 4894WAT      O14923   8.387   6.935   1.870
 4894WAT     H114924   8.419   6.846   1.901
 4894WAT     H214925   8.415   7.006   1.935
 4895WAT      O14926   9.253   9.275   4.128
 4895WAT     H114927   9.198   9.311   4.052
 4895WAT     H214928   9.252   9.175   4.124
 4896WAT      O14929   4.238   9.765   4.842
 4896WAT     H114930   4.229   9.696   4.915
 4896WAT     H214931   4.150   9.777   4.797
 4897WAT      O14932   9.532   9.230   6.175
 4897WAT     H114933   9.506   9.260   6.083
 4897WAT     H214934   9.578   9.306   6.222
 4898WAT      O14935   3.517   1.838   3.093
 4898WAT     H114936   3.497   1.905   3.021
 4898WAT     H214937   3.533   1.748   3.053
 4899WAT      O14938   1.005   4.417   0.027
 4899WAT     H114939   1.002   4.481  -0.050
 4899WAT     H214940   1.044   4.463   0.107
 4900WAT      O14941   9.213   7.893   6.530
 4900WAT     H114942   9.282   7.963   6.552
 4900WAT     H214943   9.122   7.934   6.538
 4901WAT      O14944   6.786   4.397   2.063
 4901WAT     H114945   6.803   4.318   2.003
 4901WAT     H214946   6.690   4.399   2.088
 4902WAT      O14947   0.489   8.330   3.918
 4902WAT     H114948   0.578   8.304   3.956
 4902WAT     H214949   0.431   8.249   3.914
 4903WAT      O14950   0.517   6.609   6.795
 4903WAT     H114951   0.532   6.700   6.833
 4903WAT     H214952   0.598   6.553   6.811
 4904WAT      O14953   5.162   0.550   4.661
 4904WAT     H114954   5.165   0.466   4.608
 4904WAT     H214955   5.076   0.554   4.712
 4905WAT      O14956   8.007   6.548   7.551
 4905WAT     H114957   8.085   6.565   7.611
 4905WAT     H214958   7.950   6.630   7.547
 4906WAT      O14959   8.731   8.686   5.696
 4906WAT     H114960   8.669   8.644   5.762
 4906WAT     H214961   8.782   8.614   5.648
 4907WAT      O14962   9.603   0.072   1.666
 4907WAT     H114963   9.626   0.028   1.580
 4907WAT     H214964   9.571   0.003   1.731
 4908WAT      O14965   6.145   5.851   3.791
 4908WAT     H114966   6.154   5.753   3.805
 4908WAT     H214967   6.161   5.873   3.695
 4909WAT      O14968   3.139   1.590   5.823
 4909WAT     H114969   3.177   1.682   5.835
 4909WAT     H214970   3.198   1.523   5.867
 4910WAT      O14971   1.718   9.480   1.634
 4910WAT     H114972   1.758   9.548   1.574
 4910WAT     H214973   1.647   9.429   1.585
 4911WAT      O14974   8.084   7.328   9.159
 4911WAT     H114975   8.067   7.319   9.061
 4911WAT     H214976   8.004   7.296   9.210
 4912WAT      O14977   9.083   6.446   4.253
 4912WAT     H114978   9.090   6.418   4.349
 4912WAT     H214979   9.014   6.389   4.208
 4913WAT      O14980   3.239   0.368   4.654
 4913WAT     H114981   3.151   0.406   4.683
 4913WAT     H214982   3.309   0.394   4.720
 4914WAT      O14983   7.114   4.992   5.470
 4914WAT     H114984   7.175   4.985   5.391
 4914WAT     H214985   7.168   5.009   5.552
 4915WAT      O14986   8.328   9.039   8.287
 4915WAT     H114987   8.370   8.958   8.248
 4915WAT     H214988   8.255   9.012   8.349
 4916WAT      O14989   3.219   9.106   9.667
 4916WAT     H114990   3.160   9.037   9.709
 4916WAT     H214991   3.275   9.063   9.597
 4917WAT      O14992   3.611   2.877   5.530
 4917WAT     H114993   3.690   2.911   5.479
 4917WAT     H214994   3.530   2.928   5.504
 4918WAT      O14995   5.622   4.696   8.797
 4918WAT     H114996   5.568   4.749   8.731
 4918WAT     H214997   5.702   4.749   8.825
 4919WAT      O14998   1.721   5.433   1.879
 4919WAT     H114999   1.694   5.421   1.975
 4919WAT     H215000   1.679   5.362   1.823
 4920WAT      O15001   1.071   6.353   9.834
 4920WAT     H115002   1.060   6.257   9.857
 4920WAT     H215003   1.037   6.410   9.909
 4921WAT      O15004   4.542   8.374   0.075
 4921WAT     H115005   4.517   8.310   0.003
 4921WAT     H215006   4.539   8.468   0.039
 4922WAT      O15007   8.751   6.356   0.319
 4922WAT     H115008   8.787   6.411   0.394
 4922WAT     H215009   8.811   6.364   0.240
 4923WAT      O15010   7.701   7.255   2.055
 4923WAT     H115011   7.787   7.205   2.064
 4923WAT     H215012   7.720   7.352   2.040
 4924WAT      O15013   0.389   9.357   6.174
 4924WAT     H115014   0.399   9.454   6.198
 4924WAT     H215015   0.360   9.350   6.079
 4925WAT      O15016   4.579   2.820   4.509
 4925WAT     H115017   4.590   2.765   4.426
 4925WAT     H215018   4.668   2.839   4.549
 4926WAT      O15019   1.449   5.595   0.271
 4926WAT     H115020   1.545   5.570   0.256
 4926WAT     H215021   1.390   5.524   0.232
 4927WAT      O15022   0.801   0.372   6.149
 4927WAT     H115023   0.810   0.451   6.088
 4927WAT     H215024   0.783   0.404   6.242
 4928WAT      O15025   6.831   8.452   2.855
 4928WAT     H115026   6.810   8.439   2.759
 4928WAT     H215027   6.747   8.470   2.906
 4929WAT      O15028   5.973   7.695   3.438
 4929WAT     H115029   5.979   7.760   3.361
 4929WAT     H215030   5.917   7.735   3.510
 4930WAT      O15031   5.498   6.241   0.757
 4930WAT     H115032   5.505   6.338   0.782
 4930WAT     H215033   5.541   6.185   0.828
 4931WAT      O15034   7.507   8.198   6.218
 4931WAT     H115035   7.541   8.192   6.312
 4931WAT     H215036   7.569   8.150   6.156
 4932WAT      O15037   8.155   7.461   4.334
 4932WAT     H115038   8.175   7.516   4.254
 4932WAT     H215039   8.209   7.494   4.412
 4933WAT      O15040   9.754   2.580   2.441
 4933WAT     H115041   9.728   2.649   2.373
 4933WAT     H215042   9.738   2.489   2.405
 4934WAT      O15043   1.937   0.456   1.641
 4934WAT     H115044   2.032   0.475   1.667
 4934WAT     H215045   1.887   0.422   1.720
 4935WAT      O15046   8.690   7.124   0.068
 4935WAT     H115047   8.738   7.141   0.154
 4935WAT     H215048   8.705   7.200   0.005
 4936WAT      O15049   5.363   5.755   3.189
 4936WAT     H115050   5.416   5.836   3.164
 4936WAT     H215051   5.412   5.672   3.161
 4937WAT      O15052   6.990   7.317   6.413
 4937WAT     H115053   7.064   7.379   6.389
 4937WAT     H215054   6.932   7.360   6.483
 4938WAT      O15055   7.177   8.965   0.109
 4938WAT     H115056   7.079   8.953   0.126
 4938WAT     H215057   7.198   9.063   0.101
 4939WAT      O15058   1.313   9.275   7.416
 4939WAT     H115059   1.251   9.353   7.430
 4939WAT     H215060   1.263   9.190   7.432
 4940WAT      O15061   5.921   3.311   6.366
 4940WAT     H115062   5.974   3.394   6.351
 4940WAT     H215063   5.904   3.266   6.279
 4941WAT      O15064   0.479   0.057   4.092
 4941WAT     H115065   0.391   0.105   4.090
 4941WAT     H215066   0.468  -0.032   4.049
 4942WAT      O15067   7.313   3.385   1.714
 4942WAT     H115068   7.325   3.292   1.748
 4942WAT     H215069   7.398   3.437   1.728
 4943WAT      O15070   0.669   5.875   2.201
 4943WAT     H115071   0.712   5.965   2.210
 4943WAT     H215072   0.728   5.815   2.147
 4944WAT      O15073   2.092   9.298   2.938
 4944WAT     H115074   2.065   9.329   2.847
 4944WAT     H215075   2.105   9.199   2.938
 4945WAT      O15076   9.473   9.625   6.517
 4945WAT     H115077   9.392   9.593   6.566
 4945WAT     H215078   9.545   9.646   6.582
 4946WAT      O15079   4.345   7.431   7.163
 4946WAT     H115080   4.248   7.450   7.152
 4946WAT     H215081   4.357   7.354   7.226
 4947WAT      O15082   1.439   6.704   4.909
 4947WAT     H115083   1.385   6.778   4.869
 4947WAT     H215084   1.477   6.734   4.996
 4948WAT      O15085   9.722   8.507   6.961
 4948WAT     H115086   9.629   8.487   6.931
 4948WAT     H215087   9.767   8.422   6.989
 4949WAT      O15088   3.134   2.222   1.734
 4949WAT     H115089   3.157   2.182   1.823
 4949WAT     H215090   3.212   2.275   1.701
 4950WAT      O15091   6.980   4.473   9.043
 4950WAT     H115092   6.889   4.481   9.002
 4950WAT     H215093   6.975   4.498   9.140
 4951WAT      O15094   0.622   0.958   6.868
 4951WAT     H115095   0.693   0.954   6.798
 4951WAT     H215096   0.617   0.870   6.916
 4952WAT      O15097   6.184   6.671   1.816
 4952WAT     H115098   6.247   6.690   1.892
 4952WAT     H215099   6.176   6.572   1.803
 4953WAT      O15100   6.482   5.186   9.334
 4953WAT     H115101   6.505   5.114   9.400
 4953WAT     H215102   6.458   5.145   9.246
 4954WAT      O15103   2.540   5.481   7.808
 4954WAT     H115104   2.628   5.526   7.797
 4954WAT     H215105   2.477   5.515   7.738
 4955WAT      O15106   0.139   6.732   9.644
 4955WAT     H115107   0.048   6.712   9.680
 4955WAT     H215108   0.134   6.743   9.545
 4956WAT      O15109   4.801   4.777   3.213
 4956WAT     H115110   4.832   4.693   3.169
 4956WAT     H215111   4.703   4.772   3.230
 4957WAT      O15112   3.623   9.735   6.558
 4957WAT     H115113   3.660   9.707   6.647
 4957WAT     H215114   3.692   9.719   6.487
 4958WAT      O15115   5.881   5.713   3.811
 4958WAT     H115116   5.939   5.738   3.889
 4958WAT     H215117   5.880   5.788   3.745
 4959WAT      O15118   5.015   1.020   6.135
 4959WAT     H115119   5.109   1.050   6.151
 4959WAT     H215120   4.960   1.034   6.217
 4960WAT      O15121   1.952   4.779   9.737
 4960WAT     H115122   1.985   4.848   9.801
 4960WAT     H215123   1.956   4.815   9.644
 4961WAT      O15124   7.711   1.907   5.756
 4961WAT     H115125   7.728   1.863   5.844
 4961WAT     H215126   7.748   2.000   5.757
 4962WAT      O15127   2.854   8.395   2.149
 4962WAT     H115128   2.777   8.419   2.209
 4962WAT     H215129   2.940   8.420   2.194
 4963WAT      O15130   4.571   7.585   2.829
 4963WAT     H115131   4.573   7.657   2.898
 4963WAT     H215132   4.608   7.501   2.867
 4964WAT      O15133   8.050   9.188   3.073
 4964WAT     H115134   8.042   9.210   2.976
 4964WAT     H215135   8.106   9.105   3.083
 4965WAT      O15136   8.252   7.954   6.260
 4965WAT     H115137   8.228   7.920   6.169
 4965WAT     H215138   8.230   7.884   6.329
 4966WAT      O15139   3.820   0.362   1.867
 4966WAT     H115140   3.871   0.362   1.954
 4966WAT     H215141   3.801   0.267   1.841
 4967WAT      O15142   2.572   4.909   2.607
 4967WAT     H115143   2.521   4.830   2.643
 4967WAT     H215144   2.564   4.986   2.670
 4968WAT      O15145   9.124   7.322   7.611
 4968WAT     H115146   9.101   7.296   7.517
 4968WAT     H215147   9.177   7.407   7.610
 4969WAT      O15148   9.864   4.586   2.466
 4969WAT     H115149   9.867   4.531   2.550
 4969WAT     H215150   9.809   4.538   2.397
 4970WAT      O15151   9.151   0.423   4.995
 4970WAT     H115152   9.124   0.408   5.091
 4970WAT     H215153   9.248   0.447   4.991
 4971WAT      O15154   9.285   5.924   0.430
 4971WAT     H115155   9.338   6.001   0.395
 4971WAT     H215156   9.327   5.892   0.516
 4972WAT      O15157   9.704   8.923   7.191
 4972WAT     H115158   9.770   8.984   7.147
 4972WAT     H215159   9.641   8.978   7.247
 4973WAT      O15160   7.984   1.018   3.728
 4973WAT     H115161   8.004   0.924   3.756
 4973WAT     H215162   8.018   1.082   3.797
 4974WAT      O15163   6.008   5.033   6.210
 4974WAT     H115164   5.974   5.101   6.146
 4974WAT     H215165   5.984   5.060   6.304
 4975WAT      O15166   9.361   6.774   7.171
 4975WAT     H115167   9.290   6.762   7.241
 4975WAT     H215168   9.405   6.864   7.183
 4976WAT      O15169   0.056   7.508   4.844
 4976WAT     H115170   0.141   7.556   4.868
 4976WAT     H215171  -0.009   7.518   4.919
 4977WAT      O15172   5.008   4.335   7.358
 4977WAT     H115173   5.082   4.274   7.332
 4977WAT     H215174   4.975   4.310   7.449
 4978WAT      O15175   9.555   8.433   8.678
 4978WAT     H115176   9.554   8.336   8.705
 4978WAT     H215177   9.465   8.458   8.642
 4979WAT      O15178   3.325   1.079   6.993
 4979WAT     H115179   3.286   1.166   7.023
 4979WAT     H215180   3.315   1.071   6.894
 4980WAT      O15181   2.595   8.924   3.513
 4980WAT     H115182   2.562   9.010   3.473
 4980WAT     H215183   2.531   8.850   3.492
 4981WAT      O15184   3.356   2.666   5.422
 4981WAT     H115185   3.388   2.584   5.468
 4981WAT     H215186   3.315   2.728   5.488
 4982WAT      O15187   9.537   4.333   9.767
 4982WAT     H115188   9.633   4.311   9.748
 4982WAT     H215189   9.513   4.298   9.858
 4983WAT      O15190   8.935   9.367   3.852
 4983WAT     H115191   8.931   9.274   3.890
 4983WAT     H215192   8.931   9.363   3.753
 4984WAT      O15193   8.094   1.761   7.732
 4984WAT     H115194   8.124   1.763   7.828
 4984WAT     H215195   8.140   1.686   7.684
 4985WAT      O15196   1.450   9.677   1.611
 4985WAT     H115197   1.486   9.674   1.704
 4985WAT     H215198   1.519   9.714   1.549
 4986WAT      O15199   3.731   1.092   4.278
 4986WAT     H115200   3.759   1.070   4.185
 4986WAT     H215201   3.693   1.184   4.281
 4987WAT      O15202   0.919   5.712   2.134
 4987WAT     H115203   0.997   5.723   2.196
 4987WAT     H215204   0.888   5.617   2.138
 4988WAT      O15205   5.395   3.987   4.484
 4988WAT     H115206   5.391   4.068   4.543
 4988WAT     H215207   5.474   3.995   4.423
 4989WAT      O15208   5.302   1.086   2.157
 4989WAT     H115209   5.314   1.060   2.061
 4989WAT     H215210   5.387   1.070   2.207
 4990WAT      O15211   5.704   5.987   8.051
 4990WAT     H115212   5.696   5.966   7.954
 4990WAT     H215213   5.793   5.957   8.085
 4991WAT      O15214   6.209   3.309   3.553
 4991WAT     H115215   6.262   3.301   3.468
 4991WAT     H215216   6.115   3.280   3.537
 4992WAT      O15217   5.739   7.015   5.576
 4992WAT     H115218   5.666   6.947   5.570
 4992WAT     H215219   5.699   7.107   5.583
 4993WAT      O15220   0.329   0.267   7.246
 4993WAT     H115221   0.254   0.243   7.185
 4993WAT     H215222   0.394   0.324   7.198
 4994WAT      O15223   3.614   7.265   1.925
 4994WAT     H115224   3.518   7.243   1.943
 4994WAT     H215225   3.646   7.331   1.993
 4995WAT      O15226   6.165   6.897   2.173
 4995WAT     H115227   6.234   6.851   2.117
 4995WAT     H215228   6.140   6.983   2.131
 4996WAT      O15229   6.974   1.762   9.122
 4996WAT     H115230   6.875   1.748   9.127
 4996WAT     H215231   7.017   1.728   9.206
 4997WAT      O15232   3.105   5.619   3.978
 4997WAT     H115233   3.096   5.528   4.019
 4997WAT     H215234   3.058   5.686   4.036
 4998WAT      O15235   9.752   1.418   5.470
 4998WAT     H115236   9.690   1.380   5.401
 4998WAT     H215237   9.846   1.409   5.438
 4999WAT      O15238   8.588   2.864   5.456
 4999WAT     H115239   8.544   2.874   5.367
 4999WAT     H215240   8.529   2.904   5.526
 5000WAT      O15241   4.292   5.432   5.390
 5000WAT     H115242   4.317   5.381   5.308
 5000WAT     H215243   4.274   5.527   5.366
 5001WAT      O15244   0.443   5.175   0.078
 5001WAT     H115245   0.533   5.163   0.036
 5001WAT     H215246   0.445   5.143   0.172
 5002WAT      O15247   2.368   1.940   8.094
 5002WAT     H115248   2.425   1.926   8.013
 5002WAT     H215249   2.426   1.939   8.176
 5003WAT      O15250   9.349   7.902   9.847
 5003WAT     H115251   9.382   7.943   9.932
 5003WAT     H215252   9.404   7.821   9.826
 5004WAT      O15253   9.333   4.527   7.615
 5004WAT     H115254   9.287   4.580   7.543
 5004WAT     H215255   9.317   4.429   7.599
 5005WAT      O15256   5.385   7.973   6.991
 5005WAT     H115257   5.371   7.880   6.959
 5005WAT     H215258   5.452   8.019   6.932
 5006WAT      O15259   4.813   8.753   5.790
 5006WAT     H115260   4.758   8.678   5.755
 5006WAT     H215261   4.861   8.797   5.714
 5007WAT      O15262   5.809   5.575   2.181
 5007WAT     H115263   5.729   5.518   2.199
 5007WAT     H215264   5.817   5.644   2.253
 5008WAT      O15265   1.540   1.242   2.462
 5008WAT     H115266   1.541   1.310   2.535
 5008WAT     H215267   1.446   1.220   2.438
 5009WAT      O15268   8.901   4.220   1.252
 5009WAT     H115269   8.946   4.180   1.333
 5009WAT     H215270   8.956   4.296   1.218
 5010WAT      O15271   5.547   8.543   0.098
 5010WAT     H115272   5.566   8.576   0.005
 5010WAT     H215273   5.558   8.618   0.163
 5011WAT      O15274   5.689   8.293   7.308
 5011WAT     H115275   5.703   8.196   7.292
 5011WAT     H215276   5.629   8.330   7.236
 5012WAT      O15277   1.601   9.658   8.131
 5012WAT     H115278   1.660   9.716   8.075
 5012WAT     H215279   1.524   9.625   8.076
 5013WAT      O15280   7.221   2.859   2.692
 5013WAT     H115281   7.238   2.897   2.783
 5013WAT     H215282   7.270   2.913   2.624
 5014WAT      O15283   4.561   8.318   8.036
 5014WAT     H115284   4.528   8.368   7.956
 5014WAT     H215285   4.587   8.225   8.009
 5015WAT      O15286   6.098   6.938   3.866
 5015WAT     H115287   6.092   6.857   3.924
 5015WAT     H215288   6.193   6.970   3.864
 5016WAT      O15289   3.711   7.047   6.751
 5016WAT     H115290   3.683   7.132   6.796
 5016WAT     H215291   3.716   7.062   6.652
 5017WAT      O15292   0.541   8.170   1.038
 5017WAT     H115293   0.528   8.166   0.939
 5017WAT     H215294   0.634   8.141   1.061
 5018WAT      O15295   2.083   4.102   6.353
 5018WAT     H115296   2.160   4.050   6.315
 5018WAT     H215297   2.002   4.088   6.296
 5019WAT      O15298   7.149   8.424   1.145
 5019WAT     H115299   7.217   8.462   1.208
 5019WAT     H215300   7.194   8.373   1.073
 5020WAT      O15301   3.503   1.559   7.277
 5020WAT     H115302   3.409   1.593   7.286
 5020WAT     H215303   3.505   1.462   7.299
 5021WAT      O15304   4.286   9.638   7.493
 5021WAT     H115305   4.333   9.553   7.517
 5021WAT     H215306   4.197   9.640   7.539
 5022WAT      O15307   3.703   5.792   0.499
 5022WAT     H115308   3.738   5.841   0.419
 5022WAT     H215309   3.715   5.694   0.485
 5023WAT      O15310   4.925   1.072   1.198
 5023WAT     H115311   4.940   1.038   1.291
 5023WAT     H215312   4.972   1.160   1.187
 5024WAT      O15313   8.677   2.521   1.543
 5024WAT     H115314   8.766   2.565   1.528
 5024WAT     H215315   8.691   2.426   1.572
 5025WAT      O15316   2.550   1.989   0.460
 5025WAT     H115317   2.569   1.892   0.447
 5025WAT     H215318   2.636   2.040   0.456
 5026WAT      O15319   5.281   2.178   3.429
 5026WAT     H115320   5.183   2.173   3.414
 5026WAT     H215321   5.324   2.094   3.397
 5027WAT      O15322   8.414   2.993   3.911
 5027WAT     H115323   8.330   2.946   3.938
 5027WAT     H215324   8.473   3.005   3.991
 5028WAT      O15325   8.031   7.806   5.775
 5028WAT     H115326   8.001   7.895   5.740
 5028WAT     H215327   8.116   7.780   5.731
 5029WAT      O15328   1.871   4.142   7.927
 5029WAT     H115329   1.833   4.068   7.982
 5029WAT     H215330   1.875   4.113   7.831
 5030WAT      O15331   0.267   8.498   2.431
 5030WAT     H115332   0.253   8.529   2.337
 5030WAT     H215333   0.317   8.568   2.482
 5031WAT      O15334   1.078   4.687   4.597
 5031WAT     H115335   1.042   4.775   4.627
 5031WAT     H215336   1.009   4.616   4.616
 5032WAT      O15337   3.242   3.903   1.668
 5032WAT     H115338   3.202   3.919   1.578
 5032WAT     H215339   3.173   3.920   1.739
 5033WAT      O15340   3.367   9.792   9.164
 5033WAT     H115341   3.455   9.746   9.152
 5033WAT     H215342   3.304   9.731   9.211
 5034WAT      O15343   1.682   4.878   2.598
 5034WAT     H115344   1.710   4.811   2.529
 5034WAT     H215345   1.694   4.970   2.562
 5035WAT      O15346   8.070   4.071   4.406
 5035WAT     H115347   8.110   4.107   4.490
 5035WAT     H215348   8.143   4.050   4.341
 5036WAT      O15349   7.577   1.819   3.881
 5036WAT     H115350   7.647   1.805   3.952
 5036WAT     H215351   7.555   1.917   3.875
 5037WAT      O15352   2.450   8.869   9.857
 5037WAT     H115353   2.382   8.847   9.788
 5037WAT     H215354   2.539   8.835   9.828
 5038WAT      O15355   4.181   5.299   9.053
 5038WAT     H115356   4.134   5.356   8.984
 5038WAT     H215357   4.196   5.353   9.136
 5039WAT      O15358   3.702   6.973   9.436
 5039WAT     H115359   3.718   7.031   9.516
 5039WAT     H215360   3.719   6.878   9.460
 5040WAT      O15361   4.351   0.817   3.274
 5040WAT     H115362   4.261   0.776   3.257
 5040WAT     H215363   4.410   0.801   3.196
 5041WAT      O15364   1.018   5.457   5.653
 5041WAT     H115365   1.036   5.363   5.625
 5041WAT     H215366   1.031   5.466   5.752
 5042WAT      O15367   4.507   8.713   0.811
 5042WAT     H115368   4.590   8.657   0.820
 5042WAT     H215369   4.433   8.657   0.773
 5043WAT      O15370   7.711   8.857   0.661
 5043WAT     H115371   7.615   8.883   0.671
 5043WAT     H215372   7.769   8.929   0.699
 5044WAT      O15373   9.196   6.616   9.175
 5044WAT     H115374   9.240   6.622   9.086
 5044WAT     H215375   9.266   6.618   9.247
 5045WAT      O15376   9.741   6.654   3.310
 5045WAT     H115377   9.801   6.652   3.230
 5045WAT     H215378   9.655   6.699   3.286
 5046WAT      O15379   0.823   6.848   2.710
 5046WAT     H115380   0.861   6.756   2.717
 5046WAT     H215381   0.752   6.861   2.780
 5047WAT      O15382   8.951   6.132   5.417
 5047WAT     H115383   8.863   6.169   5.387
 5047WAT     H215384   9.022   6.201   5.404
 5048WAT      O15385   8.739   9.577   0.565
 5048WAT     H115386   8.762   9.600   0.470
 5048WAT     H215387   8.710   9.659   0.614
 5049WAT      O15388   8.787   7.407   7.693
 5049WAT     H115389   8.841   7.361   7.622
 5049WAT     H215390   8.812   7.370   7.782
 5050WAT      O15391   3.164   0.893   6.096
 5050WAT     H115392   3.113   0.967   6.051
 5050WAT     H215393   3.248   0.876   6.045
 5051WAT      O15394   2.797   2.830   4.359
 5051WAT     H115395   2.866   2.777   4.311
 5051WAT     H215396   2.706   2.805   4.325
 5052WAT      O15397   4.323   4.437   0.012
 5052WAT     H115398   4.338   4.436  -0.087
 5052WAT     H215399   4.361   4.522   0.050
 5053WAT      O15400   9.825   6.234   8.648
 5053WAT     H115401   9.908   6.231   8.704
 5053WAT     H215402   9.748   6.203   8.703
 5054WAT      O15403   5.021   1.152   8.764
 5054WAT     H115404   5.087   1.086   8.802
 5054WAT     H215405   4.993   1.121   8.673
 5055WAT      O15406   0.935   1.492   7.377
 5055WAT     H115407   0.945   1.590   7.362
 5055WAT     H215408   0.967   1.442   7.296
 5056WAT      O15409   4.355   6.155   6.588
 5056WAT     H115410   4.270   6.200   6.560
 5056WAT     H215411   4.382   6.089   6.517
 5057WAT      O15412   3.543   3.416   2.483
 5057WAT     H115413   3.475   3.489   2.495
 5057WAT     H215414   3.498   3.334   2.448
 5058WAT      O15415   9.875   7.524   6.773
 5058WAT     H115416   9.818   7.518   6.691
 5058WAT     H215417   9.866   7.439   6.826
 5059WAT      O15418   3.100   1.387   2.992
 5059WAT     H115419   3.177   1.430   2.946
 5059WAT     H215420   3.014   1.421   2.954
 5060WAT      O15421   3.337   0.481   5.097
 5060WAT     H115422   3.425   0.492   5.145
 5060WAT     H215423   3.276   0.556   5.123
 5061WAT      O15424   7.914   3.497   6.251
 5061WAT     H115425   7.888   3.505   6.348
 5061WAT     H215426   7.970   3.415   6.238
 5062WAT      O15427   6.165   8.772   5.925
 5062WAT     H115428   6.240   8.748   5.864
 5062WAT     H215429   6.192   8.850   5.982
 5063WAT      O15430   1.070   9.141   5.112
 5063WAT     H115431   1.130   9.063   5.129
 5063WAT     H215432   1.033   9.136   5.020
 5064WAT      O15433   9.788   3.548   6.846
 5064WAT     H115434   9.718   3.543   6.775
 5064WAT     H215435   9.770   3.478   6.915
 5065WAT      O15436   7.154   9.279   1.995
 5065WAT     H115437   7.104   9.194   1.979
 5065WAT     H215438   7.205   9.273   2.081
 5066WAT      O15439   2.481   7.732   6.296
 5066WAT     H115440   2.479   7.767   6.202
 5066WAT     H215441   2.461   7.634   6.295
 5067WAT      O15442   3.317   0.190   3.002
 5067WAT     H115443   3.393   0.249   3.029
 5067WAT     H215444   3.254   0.241   2.944
 5068WAT      O15445   7.726   8.679   1.511
 5068WAT     H115446   7.805   8.652   1.455
 5068WAT     H215447   7.737   8.773   1.541
 5069WAT      O15448   1.213   8.203   4.442
 5069WAT     H115449   1.190   8.276   4.378
 5069WAT     H215450   1.132   8.147   4.458
 5070WAT      O15451   1.314   2.199   3.575
 5070WAT     H115452   1.262   2.141   3.513
 5070WAT     H215453   1.263   2.211   3.660
 5071WAT      O15454   5.345   3.858   2.608
 5071WAT     H115455   5.258   3.855   2.559
 5071WAT     H215456   5.367   3.952   2.632
 5072WAT      O15457   8.805   0.123   4.272
 5072WAT     H115458   8.818   0.205   4.327
 5072WAT     H215459   8.708   0.103   4.264
 5073WAT      O15460   2.855   4.070   9.869
 5073WAT     H115461   2.839   3.974   9.846
 5073WAT     H215462   2.919   4.109   9.803
 5074WAT      O15463   9.306   5.185   5.972
 5074WAT     H115464   9.326   5.281   5.954
 5074WAT     H215465   9.208   5.169   5.961
 5075WAT      O15466   1.196   1.698   4.561
 5075WAT     H115467   1.263   1.633   4.598
 5075WAT     H215468   1.104   1.666   4.583
 5076WAT      O15469   7.443   7.435   1.658
 5076WAT     H115470   7.535   7.418   1.692
 5076WAT     H215471   7.378   7.373   1.701
 5077WAT      O15472   6.112   3.924   8.122
 5077WAT     H115473   6.026   3.902   8.168
 5077WAT     H215474   6.146   3.843   8.074
 5078WAT      O15475   7.738   4.125   8.223
 5078WAT     H115476   7.778   4.213   8.246
 5078WAT     H215477   7.678   4.095   8.297
 5079WAT      O15478   0.044   8.693   7.397
 5079WAT     H115479  -0.020   8.681   7.321
 5079WAT     H215480   0.072   8.789   7.402
 5080WAT      O15481   5.474   5.123   4.905
 5080WAT     H115482   5.453   5.163   4.995
 5080WAT     H215483   5.546   5.054   4.915
 5081WAT      O15484   8.387   8.474   2.719
 5081WAT     H115485   8.474   8.517   2.745
 5081WAT     H215486   8.317   8.545   2.710
 5082WAT      O15487   0.037   6.029   3.978
 5082WAT     H115488   0.002   6.073   4.060
 5082WAT     H215489   0.136   6.018   3.985
 5083WAT      O15490   4.699   8.999   2.294
 5083WAT     H115491   4.749   9.068   2.346
 5083WAT     H215492   4.625   8.961   2.350
 5084WAT      O15493   3.383   4.912   0.771
 5084WAT     H115494   3.446   4.989   0.760
 5084WAT     H215495   3.340   4.916   0.861
 5085WAT      O15496   0.472   0.717   7.539
 5085WAT     H115497   0.480   0.690   7.443
 5085WAT     H215498   0.438   0.639   7.592
 5086WAT      O15499   3.816   8.264   0.240
 5086WAT     H115500   3.888   8.239   0.304
 5086WAT     H215501   3.775   8.351   0.267
 5087WAT      O15502   6.497   6.997   1.722
 5087WAT     H115503   6.419   6.966   1.668
 5087WAT     H215504   6.535   6.921   1.774
 5088WAT      O15505   2.131   0.103   0.371
 5088WAT     H115506   2.111   0.136   0.463
 5088WAT     H215507   2.185   0.020   0.376
 5089WAT      O15508   9.201   7.183   1.137
 5089WAT     H115509   9.102   7.176   1.146
 5089WAT     H215510   9.241   7.195   1.228
 5090WAT      O15511   0.871   2.871   1.602
 5090WAT     H115512   0.796   2.931   1.632
 5090WAT     H215513   0.875   2.869   1.502
 5091WAT      O15514   1.352   0.851   7.573
 5091WAT     H115515   1.275   0.909   7.602
 5091WAT     H215516   1.360   0.855   7.473
 5092WAT      O15517   4.930   1.091   1.934
 5092WAT     H115518   4.977   1.005   1.954
 5092WAT     H215519   4.939   1.153   2.011
 5093WAT      O15520   9.150   5.847   4.550
 5093WAT     H115521   9.117   5.888   4.465
 5093WAT     H215522   9.248   5.864   4.560
 5094WAT      O15523   8.725   5.438   3.184
 5094WAT     H115524   8.656   5.504   3.212
 5094WAT     H215525   8.766   5.396   3.265
 5095WAT      O15526   5.694   8.716   3.688
 5095WAT     H115527   5.647   8.796   3.649
 5095WAT     H215528   5.725   8.656   3.614
 5096WAT      O15529   4.696   6.434   7.651
 5096WAT     H115530   4.664   6.407   7.561
 5096WAT     H215531   4.695   6.534   7.659
 5097WAT      O15532   2.481   8.365   6.848
 5097WAT     H115533   2.467   8.276   6.805
 5097WAT     H215534   2.548   8.417   6.796
 5098WAT      O15535   3.995   9.115   6.189
 5098WAT     H115536   4.043   9.028   6.199
 5098WAT     H215537   3.993   9.142   6.093
 5099WAT      O15538   0.893   3.805   9.846
 5099WAT     H115539   0.952   3.869   9.896
 5099WAT     H215540   0.807   3.793   9.896
 5100WAT      O15541   6.740   9.223   7.503
 5100WAT     H115542   6.819   9.174   7.540
 5100WAT     H215543   6.771   9.288   7.433
 5101WAT      O15544   1.868   3.956   8.480
 5101WAT     H115545   1.839   3.978   8.573
 5101WAT     H215546   1.967   3.973   8.472
 5102WAT      O15547   5.112   4.936   2.527
 5102WAT     H115548   5.165   4.941   2.442
 5102WAT     H215549   5.128   5.018   2.582
 5103WAT      O15550   9.806   7.966   4.669
 5103WAT     H115551   9.790   7.879   4.716
 5103WAT     H215552   9.860   7.949   4.586
 5104WAT      O15553   5.100   6.983   6.487
 5104WAT     H115554   5.190   6.949   6.460
 5104WAT     H215555   5.029   6.925   6.448
 5105WAT      O15556   5.461   0.119   7.164
 5105WAT     H115557   5.480   0.135   7.261
 5105WAT     H215558   5.471   0.204   7.113
 5106WAT      O15559   1.248   2.544   2.955
 5106WAT     H115560   1.163   2.589   2.929
 5106WAT     H215561   1.247   2.525   3.054
 5107WAT      O15562   1.335   6.066   8.810
 5107WAT     H115563   1.279   6.147   8.791
 5107WAT     H215564   1.373   6.074   8.902
 5108WAT      O15565   8.229   3.074   2.551
 5108WAT     H115566   8.272   2.984   2.551
 5108WAT     H215567   8.291   3.142   2.590
 5109WAT      O15568   5.255   6.416   7.251
 5109WAT     H115569   5.279   6.486   7.318
 5109WAT     H215570   5.155   6.407   7.246
 5110WAT      O15571   1.115   4.352   3.108
 5110WAT     H115572   1.110   4.253   3.119
 5110WAT     H215573   1.125   4.375   3.011
 5111WAT      O15574   1.888   7.752   9.777
 5111WAT     H115575   1.868   7.704   9.862
 5111WAT     H215576   1.956   7.824   9.794
 5112WAT      O15577   7.193   4.847   7.491
 5112WAT     H115578   7.183   4.842   7.590
 5112WAT     H215579   7.102   4.843   7.449
 5113WAT      O15580   1.525   1.542   3.848
 5113WAT     H115581   1.616   1.547   3.887
 5113WAT     H215582   1.508   1.449   3.814
 5114WAT      O15583   9.503   0.444   1.517
 5114WAT     H115584   9.501   0.544   1.522
 5114WAT     H215585   9.410   0.408   1.517
 5115WAT      O15586   1.315   6.284   0.162
 5115WAT     H115587   1.234   6.241   0.123
 5115WAT     H215588   1.333   6.246   0.253
 5116WAT      O15589   6.498   3.467   0.381
 5116WAT     H115590   6.494   3.525   0.300
 5116WAT     H215591   6.436   3.389   0.370
 5117WAT      O15592   2.745   3.339   7.819
 5117WAT     H115593   2.836   3.306   7.847
 5117WAT     H215594   2.739   3.438   7.836
 5118WAT      O15595   0.010   6.544   2.345
 5118WAT     H115596  -0.071   6.583   2.301
 5118WAT     H215597   0.048   6.610   2.410
 5119WAT      O15598   8.756   1.489   9.812
 5119WAT     H115599   8.795   1.548   9.882
 5119WAT     H215600   8.775   1.526   9.721
 5120WAT      O15601   5.601   0.489   3.466
 5120WAT     H115602   5.577   0.440   3.549
 5120WAT     H215603   5.564   0.581   3.469
 5121WAT      O15604   1.348   8.958   0.505
 5121WAT     H115605   1.378   8.981   0.412
 5121WAT     H215606   1.280   8.885   0.500
 5122WAT      O15607   2.351   1.420   9.314
 5122WAT     H115608   2.275   1.398   9.375
 5122WAT     H215609   2.416   1.344   9.313
 5123WAT      O15610   3.685   7.047   0.752
 5123WAT     H115611   3.642   7.137   0.745
 5123WAT     H215612   3.777   7.057   0.791
 5124WAT      O15613   6.038   3.180   5.516
 5124WAT     H115614   6.026   3.255   5.450
 5124WAT     H215615   5.949   3.150   5.549
 5125WAT      O15616   9.375   9.114   9.320
 5125WAT     H115617   9.444   9.044   9.338
 5125WAT     H215618   9.405   9.172   9.244
 5126WAT      O15619   5.029   1.865   5.992
 5126WAT     H115620   5.010   1.867   6.090
 5126WAT     H215621   4.943   1.857   5.942
 5127WAT      O15622   3.521   1.083   9.775
 5127WAT     H115623   3.613   1.097   9.812
 5127WAT     H215624   3.487   0.994   9.806
 5128WAT      O15625   0.891   6.289   6.791
 5128WAT     H115626   0.856   6.200   6.819
 5128WAT     H215627   0.958   6.277   6.717
 5129WAT      O15628   7.271   5.670   7.035
 5129WAT     H115629   7.188   5.620   7.060
 5129WAT     H215630   7.343   5.605   7.013
 5130WAT      O15631   3.854   4.629   1.411
 5130WAT     H115632   3.950   4.601   1.414
 5130WAT     H215633   3.800   4.568   1.468
 5131WAT      O15634   8.500   4.537   7.465
 5131WAT     H115635   8.446   4.531   7.381
 5131WAT     H215636   8.570   4.608   7.455
 5132WAT      O15637   6.155   4.205   5.160
 5132WAT     H115638   6.218   4.147   5.108
 5132WAT     H215639   6.151   4.174   5.255
 5133WAT      O15640   2.044   2.882   0.528
 5133WAT     H115641   2.139   2.873   0.498
 5133WAT     H215642   2.040   2.871   0.627
 5134WAT      O15643   8.261   7.377   8.655
 5134WAT     H115644   8.316   7.442   8.602
 5134WAT     H215645   8.284   7.284   8.628
 5135WAT      O15646   4.076   0.241   0.708
 5135WAT     H115647   3.992   0.208   0.665
 5135WAT     H215648   4.058   0.262   0.804
 5136WAT      O15649   5.239   8.281   4.314
 5136WAT     H115650   5.203   8.232   4.394
 5136WAT     H215651   5.297   8.220   4.261
 5137WAT      O15652   8.113   7.975   1.179
 5137WAT     H115653   8.052   7.922   1.120
 5137WAT     H215654   8.167   8.038   1.122
 5138WAT      O15655   4.594   4.831   1.567
 5138WAT     H115656   4.642   4.786   1.492
 5138WAT     H215657   4.656   4.894   1.614
 5139WAT      O15658   6.481   4.200   5.312
 5139WAT     H115659   6.464   4.225   5.216
 5139WAT     H215660   6.564   4.246   5.344
 5140WAT      O15661   0.959   6.117   4.197
 5140WAT     H115662   0.951   6.166   4.283
 5140WAT     H215663   0.869   6.081   4.170
 5141WAT      O15664   7.020   1.465   8.548
 5141WAT     H115665   6.985   1.529   8.616
 5141WAT     H215666   6.993   1.372   8.573
 5142WAT      O15667   8.547   4.368   4.687
 5142WAT     H115668   8.607   4.438   4.649
 5142WAT     H215669   8.536   4.295   4.619
 5143WAT      O15670   5.089   2.906   2.135
 5143WAT     H115671   5.171   2.958   2.162
 5143WAT     H215672   5.026   2.967   2.087
 5144WAT      O15673   7.796   0.238   9.073
 5144WAT     H115674   7.882   0.237   9.123
 5144WAT     H215675   7.788   0.154   9.018
 5145WAT      O15676   8.454   5.154   4.154
 5145WAT     H115677   8.397   5.179   4.232
 5145WAT     H215678   8.398   5.148   4.071
 5146WAT      O15679   3.919   6.146   1.196
 5146WAT     H115680   4.019   6.144   1.185
 5146WAT     H215681   3.877   6.091   1.123
 5147WAT      O15682   8.572   8.809   1.543
 5147WAT     H115683   8.571   8.816   1.443
 5147WAT     H215684   8.665   8.797   1.575
 5148WAT      O15685   5.810   7.363   0.641
 5148WAT     H115686   5.742   7.350   0.713
 5148WAT     H215687   5.815   7.280   0.585
 5149WAT      O15688   4.994   6.527   2.414
 5149WAT     H115689   5.056   6.471   2.359
 5149WAT     H215690   4.913   6.474   2.437
 5150WAT      O15691   0.679   5.249   9.444
 5150WAT     H115692   0.642   5.205   9.362
 5150WAT     H215693   0.745   5.189   9.488
 5151WAT      O15694   7.143   5.138   8.429
 5151WAT     H115695   7.114   5.092   8.344
 5151WAT     H215696   7.233   5.178   8.415
 5152WAT      O15697   3.374   0.359   6.286
 5152WAT     H115698   3.364   0.266   6.249
 5152WAT     H215699   3.357   0.358   6.384
 5153WAT      O15700   5.341   8.370   7.636
 5153WAT     H115701   5.435   8.338   7.650
 5153WAT     H215702   5.285   8.294   7.604
 5154WAT      O15703   2.737   5.567   9.352
 5154WAT     H115704   2.758   5.521   9.266
 5154WAT     H215705   2.762   5.508   9.428
 5155WAT      O15706   7.590   2.226   8.455
 5155WAT     H115707   7.532   2.263   8.383
 5155WAT     H215708   7.640   2.147   8.421
 5156WAT      O15709   1.345   6.795   6.884
 5156WAT     H115710   1.326   6.765   6.977
 5156WAT     H215711   1.279   6.753   6.822
 5157WAT      O15712   9.225   1.852   9.638
 5157WAT     H115713   9.167   1.931   9.657
 5157WAT     H215714   9.220   1.789   9.716
 5158WAT      O15715   8.169   0.931   2.831
 5158WAT     H115716   8.129   0.896   2.746
 5158WAT     H215717   8.210   0.856   2.882
 5159WAT      O15718   9.166   8.088   9.767
 5159WAT     H115719   9.173   8.170   9.823
 5159WAT     H215720   9.231   8.019   9.801
 5160WAT      O15721   5.176   8.003   1.182
 5160WAT     H115722   5.208   7.974   1.272
 5160WAT     H215723   5.077   7.988   1.175
 5161WAT      O15724   3.347   4.226   4.162
 5161WAT     H115725   3.276   4.167   4.201
 5161WAT     H215726   3.437   4.192   4.189
 5162WAT      O15727   5.689   7.499   4.183
 5162WAT     H115728   5.679   7.400   4.174
 5162WAT     H215729   5.786   7.524   4.183
 5163WAT      O15730   9.738   0.699   8.762
 5163WAT     H115731   9.822   0.736   8.721
 5163WAT     H215732   9.761   0.628   8.828
 5164WAT      O15733   3.280   3.000   0.782
 5164WAT     H115734   3.292   2.937   0.706
 5164WAT     H215735   3.354   3.067   0.783
 5165WAT      O15736   8.320   5.249   8.198
 5165WAT     H115737   8.318   5.301   8.113
 5165WAT     H215738   8.381   5.171   8.189
 5166WAT      O15739   0.563   9.726   2.337
 5166WAT     H115740   0.539   9.654   2.402
 5166WAT     H215741   0.490   9.795   2.335
 5167WAT      O15742   5.998   7.489   4.146
 5167WAT     H115743   5.955   7.534   4.068
 5167WAT     H215744   6.095   7.472   4.126
 5168WAT      O15745   7.539   2.381   5.960
 5168WAT     H115746   7.475   2.431   5.902
 5168WAT     H215747   7.576   2.303   5.910
 5169WAT      O15748   3.756   0.455   7.939
 5169WAT     H115749   3.778   0.541   7.985
 5169WAT     H215750   3.674   0.468   7.883
 5170WAT      O15751   9.738   8.925   9.210
 5170WAT     H115752   9.828   8.963   9.190
 5170WAT     H215753   9.702   8.965   9.294
 5171WAT      O15754   0.100   9.374   1.852
 5171WAT     H115755   0.038   9.448   1.880
 5171WAT     H215756   0.117   9.381   1.753
 5172WAT      O15757   3.034   3.011   5.004
 5172WAT     H115758   3.089   2.986   5.084
 5172WAT     H215759   3.094   3.018   4.924
 5173WAT      O15760   1.333   7.867   3.282
 5173WAT     H115761   1.361   7.786   3.333
 5173WAT     H215762   1.304   7.938   3.346
 5174WAT      O15763   4.502   7.044   8.859
 5174WAT     H115764   4.413   7.001   8.850
 5174WAT     H215765   4.491   7.138   8.893
 5175WAT      O15766   1.405   3.081   9.243
 5175WAT     H115767   1.448   3.171   9.234
 5175WAT     H215768   1.434   3.039   9.329
 5176WAT      O15769   9.532   4.594   1.328
 5176WAT     H115770   9.536   4.693   1.311
 5176WAT     H215771   9.461   4.575   1.395
 5177WAT      O15772   5.379   1.025   1.914
 5177WAT     H115773   5.387   1.076   1.828
 5177WAT     H215774   5.466   0.983   1.936
 5178WAT      O15775   7.554   6.616   7.157
 5178WAT     H115776   7.462   6.580   7.144
 5178WAT     H215777   7.551   6.698   7.214
 5179WAT      O15778   4.607   6.771   7.290
 5179WAT     H115779   4.670   6.695   7.272
 5179WAT     H215780   4.513   6.740   7.281
 5180WAT      O15781   3.307   5.191   6.971
 5180WAT     H115782   3.215   5.152   6.964
 5180WAT     H215783   3.301   5.283   7.011
 5181WAT      O15784   4.003   6.852   4.564
 5181WAT     H115785   3.944   6.789   4.617
 5181WAT     H215786   4.061   6.798   4.503
 5182WAT      O15787   0.713   0.176   8.947
 5182WAT     H115788   0.738   0.082   8.924
 5182WAT     H215789   0.720   0.190   9.045
 5183WAT      O15790   3.469   8.691   6.050
 5183WAT     H115791   3.516   8.778   6.035
 5183WAT     H215792   3.432   8.658   5.963
 5184WAT      O15793   0.796   8.092   7.755
 5184WAT     H115794   0.770   8.015   7.813
 5184WAT     H215795   0.861   8.150   7.803
 5185WAT      O15796   4.858   4.932   3.723
 5185WAT     H115797   4.895   5.020   3.754
 5185WAT     H215798   4.881   4.861   3.789
 5186WAT      O15799   9.804   7.712   9.375
 5186WAT     H115800   9.869   7.635   9.372
 5186WAT     H215801   9.799   7.747   9.468
 5187WAT      O15802   5.899   1.603   6.381
 5187WAT     H115803   5.887   1.632   6.286
 5187WAT     H215804   5.930   1.508   6.383
 5188WAT      O15805   7.769   3.649   6.807
 5188WAT     H115806   7.746   3.716   6.737
 5188WAT     H215807   7.687   3.597   6.831
 5189WAT      O15808   5.413   7.432   1.268
 5189WAT     H115809   5.396   7.398   1.176
 5189WAT     H215810   5.501   7.398   1.301
 5190WAT      O15811   2.069   6.501   1.855
 5190WAT     H115812   2.027   6.583   1.818
 5190WAT     H215813   2.156   6.484   1.808
 5191WAT      O15814   9.029   1.935   8.118
 5191WAT     H115815   9.034   2.034   8.105
 5191WAT     H215816   8.960   1.897   8.056
 5192WAT      O15817   7.069   3.506   2.363
 5192WAT     H115818   7.137   3.463   2.304
 5192WAT     H215819   6.978   3.496   2.322
 5193WAT      O15820   5.219   9.756   6.501
 5193WAT     H115821   5.129   9.727   6.468
 5193WAT     H215822   5.214   9.852   6.529
 5194WAT      O15823   1.130   0.988   6.902
 5194WAT     H115824   1.068   0.938   6.963
 5194WAT     H215825   1.195   0.924   6.861
 5195WAT      O15826   1.193   6.087   9.552
 5195WAT     H115827   1.272   6.032   9.581
 5195WAT     H215828   1.163   6.057   9.461
 5196WAT      O15829   7.471   2.509   9.183
 5196WAT     H115830   7.400   2.461   9.236
 5196WAT     H215831   7.498   2.453   9.105
 5197WAT      O15832   6.306   0.613   6.223
 5197WAT     H115833   6.367   0.565   6.287
 5197WAT     H215834   6.214   0.575   6.231
 5198WAT      O15835   4.785   8.227   5.592
 5198WAT     H115836   4.835   8.151   5.552
 5198WAT     H215837   4.760   8.293   5.520
 5199WAT      O15838   5.959   8.959   0.729
 5199WAT     H115839   5.944   8.891   0.801
 5199WAT     H215840   5.873   8.977   0.682
 5200WAT      O15841   3.056   1.462   4.797
 5200WAT     H115842   3.099   1.477   4.707
 5200WAT     H215843   3.045   1.550   4.844
 5201WAT      O15844   9.222   0.731   8.940
 5201WAT     H115845   9.313   0.705   8.908
 5201WAT     H215846   9.166   0.649   8.953
 5202WAT      O15847   5.422   5.214   3.119
 5202WAT     H115848   5.360   5.156   3.066
 5202WAT     H215849   5.464   5.160   3.192
 5203WAT      O15850   7.081   0.092   6.272
 5203WAT     H115851   7.064   0.188   6.248
 5203WAT     H215852   6.999   0.052   6.311
 5204WAT      O15853   2.064   5.600   8.528
 5204WAT     H115854   2.047   5.599   8.429
 5204WAT     H215855   2.103   5.688   8.554
 5205WAT      O15856   1.636   0.063   5.646
 5205WAT     H115857   1.546   0.082   5.606
 5205WAT     H215858   1.691   0.012   5.580
 5206WAT      O15859   0.051   5.202   0.945
 5206WAT     H115860  -0.023   5.141   0.973
 5206WAT     H215861   0.074   5.185   0.849
 5207WAT      O15862   0.193   1.697   3.460
 5207WAT     H115863   0.164   1.601   3.470
 5207WAT     H215864   0.244   1.725   3.542
 5208WAT      O15865   7.312   5.224   4.888
 5208WAT     H115866   7.212   5.228   4.889
 5208WAT     H215867   7.349   5.306   4.844
 5209WAT      O15868   5.873   1.759   3.785
 5209WAT     H115869   5.920   1.847   3.782
 5209WAT     H215870   5.910   1.699   3.714
 5210WAT      O15871   1.706   0.840   1.785
 5210WAT     H115872   1.721   0.934   1.756
 5210WAT     H215873   1.612   0.830   1.819
 5211WAT      O15874   6.163   1.741   8.261
 5211WAT     H115875   6.237   1.743   8.327
 5211WAT     H215876   6.172   1.661   8.202
 5212WAT      O15877   9.155   2.400   9.573
 5212WAT     H115878   9.091   2.370   9.503
 5212WAT     H215879   9.115   2.383   9.663
 5213WAT      O15880   7.373   2.003   5.203
 5213WAT     H115881   7.352   1.913   5.240
 5213WAT     H215882   7.472   2.017   5.202
 5214WAT      O15883   7.593   3.417   9.148
 5214WAT     H115884   7.565   3.348   9.215
 5214WAT     H215885   7.692   3.425   9.147
 5215WAT      O15886   5.317   9.292   4.100
 5215WAT     H115887   5.395   9.259   4.047
 5215WAT     H215888   5.259   9.215   4.125
 5216WAT      O15889   9.831   0.620   9.267
 5216WAT     H115890   9.783   0.593   9.350
 5216WAT     H215891   9.806   0.714   9.243
 5217WAT      O15892   4.568   4.937   4.151
 5217WAT     H115893   4.604   4.876   4.080
 5217WAT     H215894   4.633   4.940   4.227
 5218WAT      O15895   3.286   8.233   4.782
 5218WAT     H115896   3.220   8.302   4.813
 5218WAT     H215897   3.304   8.169   4.857
 5219WAT      O15898   2.010   5.038   6.379
 5219WAT     H115899   2.024   5.073   6.472
 5219WAT     H215900   1.942   4.966   6.381
 5220WAT      O15901   9.041   0.319   7.864
 5220WAT     H115902   9.038   0.410   7.822
 5220WAT     H215903   9.123   0.311   7.921
 5221WAT      O15904   8.808   6.204   3.680
 5221WAT     H115905   8.857   6.178   3.597
 5221WAT     H215906   8.776   6.121   3.727
 5222WAT      O15907   1.067   3.004   5.293
 5222WAT     H115908   1.002   3.076   5.319
 5222WAT     H215909   1.147   3.008   5.353
 5223WAT      O15910   3.779   4.907   7.560
 5223WAT     H115911   3.870   4.880   7.530
 5223WAT     H215912   3.771   4.892   7.659
 5224WAT      O15913   9.102   5.018   5.487
 5224WAT     H115914   9.020   5.016   5.544
 5224WAT     H215915   9.182   4.997   5.543
 5225WAT      O15916   3.142   7.698   5.058
 5225WAT     H115917   3.170   7.749   5.139
 5225WAT     H215918   3.206   7.622   5.044
 5226WAT      O15919   7.964   8.630   4.233
 5226WAT     H115920   7.903   8.709   4.225
 5226WAT     H215921   7.915   8.547   4.207
 5227WAT      O15922   9.100   5.309   0.896
 5227WAT     H115923   9.073   5.312   0.993
 5227WAT     H215924   9.029   5.352   0.841
 5228WAT      O15925   6.602   7.183   3.488
 5228WAT     H115926   6.617   7.089   3.519
 5228WAT     H215927   6.522   7.221   3.535
 5229WAT      O15928   4.452   3.853   2.135
 5229WAT     H115929   4.500   3.877   2.051
 5229WAT     H215930   4.358   3.889   2.131
 5230WAT      O15931   1.992   6.011   2.779
 5230WAT     H115932   1.979   5.959   2.695
 5230WAT     H215933   1.964   6.105   2.765
 5231WAT      O15934   5.588   0.622   5.193
 5231WAT     H115935   5.493   0.648   5.212
 5231WAT     H215936   5.646   0.703   5.195
 5232WAT      O15937   2.641   8.122   6.964
 5232WAT     H115938   2.606   8.212   6.990
 5232WAT     H215939   2.736   8.129   6.936
 5233WAT      O15940   3.163   7.129   9.093
 5233WAT     H115941   3.125   7.175   9.013
 5233WAT     H215942   3.102   7.054   9.120
 5234WAT      O15943   8.448   7.394   6.568
 5234WAT     H115944   8.428   7.299   6.546
 5234WAT     H215945   8.459   7.447   6.484
 5235WAT      O15946   8.324   7.574   1.320
 5235WAT     H115947   8.258   7.650   1.321
 5235WAT     H215948   8.412   7.606   1.353
 5236WAT      O15949   7.047   2.132   7.864
 5236WAT     H115950   7.126   2.192   7.856
 5236WAT     H215951   7.018   2.127   7.959
 5237WAT      O15952   9.692   7.929   1.328
 5237WAT     H115953   9.748   7.935   1.245
 5237WAT     H215954   9.612   7.871   1.309
 5238WAT      O15955   6.463   7.044   8.962
 5238WAT     H115956   6.404   6.972   8.925
 5238WAT     H215957   6.484   7.023   9.058
 5239WAT      O15958   6.614   0.629   5.745
 5239WAT     H115959   6.550   0.615   5.821
 5239WAT     H215960   6.622   0.727   5.726
 5240WAT      O15961   5.155   2.597   7.796
 5240WAT     H115962   5.121   2.503   7.801
 5240WAT     H215963   5.078   2.661   7.806
 5241WAT      O15964  -0.001   4.634   4.829
 5241WAT     H115965   0.079   4.579   4.805
 5241WAT     H215966   0.008   4.667   4.923
 5242WAT      O15967   0.363   1.807   4.208
 5242WAT     H115968   0.264   1.818   4.210
 5242WAT     H215969   0.386   1.721   4.162
 5243WAT      O15970   1.061   0.781   4.391
 5243WAT     H115971   1.076   0.721   4.469
 5243WAT     H215972   1.061   0.876   4.421
 5244WAT      O15973   9.450   4.031   2.916
 5244WAT     H115974   9.446   4.126   2.885
 5244WAT     H215975   9.491   4.028   3.007
 5245WAT      O15976   7.655   0.317   7.028
 5245WAT     H115977   7.578   0.377   7.051
 5245WAT     H215978   7.631   0.222   7.048
 5246WAT      O15979   2.098   8.225   4.216
 5246WAT     H115980   2.128   8.242   4.123
 5246WAT     H215981   2.059   8.309   4.255
 5247WAT      O15982   7.121   2.579   3.145
 5247WAT     H115983   7.042   2.569   3.085
 5247WAT     H215984   7.204   2.553   3.096
 5248WAT      O15985   9.414   3.913   6.085
 5248WAT     H115986   9.390   4.010   6.077
 5248WAT     H215987   9.442   3.878   5.996
 5249WAT      O15988   3.399   8.826   6.779
 5249WAT     H115989   3.348   8.827   6.693
 5249WAT     H215990   3.430   8.918   6.801
 5250WAT      O15991   7.957   4.847   2.155
 5250WAT     H115992   7.957   4.846   2.255
 5250WAT     H215993   8.048   4.873   2.122
 5251WAT      O15994   8.412   4.953   0.325
 5251WAT     H115995   8.374   4.945   0.233
 5251WAT     H215996   8.338   4.957   0.392
 5252WAT      O15997   4.234   3.952   3.768
 5252WAT     H115998   4.189   4.041   3.783
 5252WAT     H215999   4.299   3.935   3.841
 5253WAT      O16000   6.590   4.624   1.619
 5253WAT     H116001   6.512   4.618   1.555
 5253WAT     H216002   6.578   4.557   1.692
 5254WAT      O16003   1.437   1.097   7.284
 5254WAT     H116004   1.534   1.094   7.258
 5254WAT     H216005   1.407   1.007   7.314
 5255WAT      O16006   0.378   2.890   2.015
 5255WAT     H116007   0.329   2.976   2.033
 5255WAT     H216008   0.312   2.819   1.988
 5256WAT      O16009   7.645   1.331   1.719
 5256WAT     H116010   7.725   1.389   1.713
 5256WAT     H216011   7.601   1.325   1.629
 5257WAT      O16012   9.691   2.485   4.197
 5257WAT     H116013   9.727   2.557   4.257
 5257WAT     H216014   9.726   2.498   4.104
 5258WAT      O16015   9.689   6.934   5.579
 5258WAT     H116016   9.592   6.917   5.596
 5258WAT     H216017   9.720   7.011   5.634
 5259WAT      O16018   2.736   6.315   4.959
 5259WAT     H116019   2.782   6.234   4.921
 5259WAT     H216020   2.798   6.362   5.022
 5260WAT      O16021   9.384   8.742   8.591
 5260WAT     H116022   9.457   8.786   8.539
 5260WAT     H216023   9.311   8.715   8.528
 5261WAT      O16024   6.863   9.442   6.791
 5261WAT     H116025   6.766   9.421   6.781
 5261WAT     H216026   6.916   9.385   6.728
 5262WAT      O16027   1.990   2.995   7.153
 5262WAT     H116028   1.994   3.027   7.248
 5262WAT     H216029   2.083   2.983   7.118
 5263WAT      O16030   5.552   5.589   7.591
 5263WAT     H116031   5.514   5.674   7.556
 5263WAT     H216032   5.559   5.522   7.516
 5264WAT      O16033   9.501   3.161   1.248
 5264WAT     H116034   9.521   3.256   1.226
 5264WAT     H216035   9.404   3.142   1.233
 5265WAT      O16036   2.728   8.711   4.843
 5265WAT     H116037   2.715   8.681   4.749
 5265WAT     H216038   2.766   8.636   4.898
 5266WAT      O16039   2.864   8.239   0.431
 5266WAT     H116040   2.929   8.295   0.482
 5266WAT     H216041   2.913   8.170   0.378
 5267WAT      O16042   9.041   0.038   7.713
 5267WAT     H116043   9.066   0.134   7.703
 5267WAT     H216044   8.969   0.030   7.783
 5268WAT      O16045   1.917   0.472   1.936
 5268WAT     H116046   1.830   0.460   1.983
 5268WAT     H216047   1.982   0.520   1.996
 5269WAT      O16048   8.629   8.441   5.396
 5269WAT     H116049   8.700   8.402   5.455
 5269WAT     H216050   8.599   8.372   5.331
 5270WAT      O16051   9.802   4.031   3.610
 5270WAT     H116052   9.899   4.025   3.589
 5270WAT     H216053   9.782   4.121   3.649
 5271WAT      O16054   0.518   6.847   6.342
 5271WAT     H116055   0.489   6.766   6.392
 5271WAT     H216056   0.612   6.836   6.310
 5272WAT      O16057   7.080   6.313   0.483
 5272WAT     H116058   7.032   6.325   0.570
 5272WAT     H216059   7.174   6.283   0.501
 5273WAT      O16060   1.172   1.116   9.140
 5273WAT     H116061   1.087   1.124   9.192
 5273WAT     H216062   1.198   1.019   9.134
 5274WAT      O16063   2.192   4.045   1.381
 5274WAT     H116064   2.269   3.999   1.426
 5274WAT     H216065   2.220   4.074   1.290
 5275WAT      O16066   1.140   7.536   4.392
 5275WAT     H116067   1.126   7.636   4.393
 5275WAT     H216068   1.139   7.501   4.485
 5276WAT      O16069   7.869   9.215   5.732
 5276WAT     H116070   7.899   9.187   5.641
 5276WAT     H216071   7.857   9.314   5.734
 5277WAT      O16072   4.126   0.042   7.782
 5277WAT     H116073   4.101  -0.042   7.733
 5277WAT     H216074   4.095   0.036   7.877
 5278WAT      O16075   6.128   5.211   3.119
 5278WAT     H116076   6.130   5.307   3.093
 5278WAT     H216077   6.095   5.156   3.042
 5279WAT      O16078   9.343   5.296   8.925
 5279WAT     H116079   9.313   5.352   8.848
 5279WAT     H216080   9.441   5.277   8.916
 5280WAT      O16081   3.437   6.165   9.789
 5280WAT     H116082   3.347   6.192   9.755
 5280WAT     H216083   3.486   6.245   9.822
 5281WAT      O16084   0.372   4.215   8.106
 5281WAT     H116085   0.449   4.170   8.150
 5281WAT     H216086   0.359   4.178   8.014
 5282WAT      O16087   9.668   6.697   7.657
 5282WAT     H116088   9.755   6.746   7.651
 5282WAT     H216089   9.679   6.605   7.619
 5283WAT      O16090   6.819   5.626   0.264
 5283WAT     H116091   6.877   5.707   0.274
 5283WAT     H216092   6.820   5.596   0.169
 5284WAT      O16093   2.037   0.786   1.140
 5284WAT     H116094   1.963   0.801   1.205
 5284WAT     H216095   2.108   0.855   1.155
 5285WAT      O16096   9.752   5.762   2.003
 5285WAT     H116097   9.683   5.718   2.060
 5285WAT     H216098   9.764   5.857   2.031
 5286WAT      O16099   5.765   4.917   8.828
 5286WAT     H116100   5.798   4.971   8.905
 5286WAT     H216101   5.697   4.969   8.777
 5287WAT      O16102   2.904   0.134   5.142
 5287WAT     H116103   2.817   0.091   5.119
 5287WAT     H216104   2.975   0.064   5.150
 5288WAT      O16105   6.023   8.296   5.567
 5288WAT     H116106   5.947   8.231   5.562
 5288WAT     H216107   5.989   8.387   5.544
 5289WAT      O16108   4.103   8.419   3.969
 5289WAT     H116109   4.138   8.343   4.025
 5289WAT     H216110   4.154   8.422   3.883
 5290WAT      O16111   4.563   2.788   7.561
 5290WAT     H116112   4.642   2.732   7.535
 5290WAT     H216113   4.595   2.870   7.609
 5291WAT      O16114   9.714   2.661   7.227
 5291WAT     H116115   9.777   2.700   7.160
 5291WAT     H216116   9.621   2.693   7.207
 5292WAT      O16117   1.882   1.504   1.140
 5292WAT     H116118   1.979   1.482   1.148
 5292WAT     H216119   1.863   1.589   1.190
 5293WAT      O16120   4.848   8.578   4.992
 5293WAT     H116121   4.875   8.674   4.998
 5293WAT     H216122   4.868   8.543   4.901
 5294WAT      O16123   1.842   5.566   8.046
 5294WAT     H116124   1.834   5.542   7.950
 5294WAT     H216125   1.785   5.504   8.101
 5295WAT      O16126   3.801   0.939   8.358
 5295WAT     H116127   3.754   0.912   8.274
 5295WAT     H216128   3.790   1.037   8.373
 5296WAT      O16129   6.060   8.398   7.480
 5296WAT     H116130   6.074   8.497   7.490
 5296WAT     H216131   6.084   8.370   7.387
 5297WAT      O16132   1.380   2.165   8.024
 5297WAT     H116133   1.414   2.252   7.988
 5297WAT     H216134   1.351   2.178   8.119
 5298WAT      O16135   8.188   2.827   3.929
 5298WAT     H116136   8.102   2.834   3.878
 5298WAT     H216137   8.173   2.859   4.023
 5299WAT      O16138   3.347   0.753   8.216
 5299WAT     H116139   3.256   0.752   8.175
 5299WAT     H216140   3.341   0.722   8.311
 5300WAT      O16141   3.643   2.383   7.394
 5300WAT     H116142   3.646   2.284   7.382
 5300WAT     H216143   3.726   2.425   7.357
 5301WAT      O16144   2.282   4.003   2.208
 5301WAT     H116145   2.343   4.026   2.284
 5301WAT     H216146   2.288   3.905   2.188
 5302WAT      O16147   4.040   2.087   2.106
 5302WAT     H116148   3.981   2.010   2.082
 5302WAT     H216149   3.986   2.160   2.147
 5303WAT      O16150   3.100   2.464   4.527
 5303WAT     H116151   3.169   2.406   4.484
 5303WAT     H216152   3.018   2.410   4.547
 5304WAT      O16153   4.213   0.501   5.124
 5304WAT     H116154   4.186   0.406   5.138
 5304WAT     H216155   4.162   0.561   5.185
 5305WAT      O16156   6.071   8.287   3.264
 5305WAT     H116157   6.066   8.232   3.348
 5305WAT     H216158   6.100   8.228   3.188
 5306WAT      O16159   4.310   2.158   6.949
 5306WAT     H116160   4.360   2.127   7.030
 5306WAT     H216161   4.299   2.082   6.885
 5307WAT      O16162   7.443   1.320   2.354
 5307WAT     H116163   7.381   1.300   2.278
 5307WAT     H216164   7.528   1.360   2.318
 5308WAT      O16165   6.404   6.061   9.743
 5308WAT     H116166   6.326   6.000   9.732
 5308WAT     H216167   6.371   6.154   9.760
 5309WAT      O16168   2.936   0.189   2.253
 5309WAT     H116169   3.021   0.155   2.213
 5309WAT     H216170   2.858   0.148   2.205
 5310WAT      O16171   1.735   8.292   2.578
 5310WAT     H116172   1.805   8.263   2.644
 5310WAT     H216173   1.684   8.368   2.617
 5311WAT      O16174   7.996   1.424   2.859
 5311WAT     H116175   8.010   1.389   2.767
 5311WAT     H216176   7.992   1.524   2.857
 5312WAT      O16177   9.434   9.629   0.090
 5312WAT     H116178   9.483   9.716   0.089
 5312WAT     H216179   9.470   9.570   0.018
 5313WAT      O16180   8.095   2.169   6.159
 5313WAT     H116181   8.166   2.239   6.148
 5313WAT     H216182   8.119   2.109   6.235
 5314WAT      O16183   6.320   9.654   0.101
 5314WAT     H116184   6.412   9.660   0.140
 5314WAT     H216185   6.320   9.692   0.009
 5315WAT      O16186   9.186   8.808   5.279
 5315WAT     H116187   9.098   8.850   5.302
 5315WAT     H216188   9.196   8.722   5.330
 5316WAT      O16189   9.532   0.149   0.392
 5316WAT     H116190   9.590   0.167   0.312
 5316WAT     H216191   9.441   0.123   0.362
 5317WAT      O16192   9.503   8.577   2.889
 5317WAT     H116193   9.486   8.674   2.907
 5317WAT     H216194   9.543   8.535   2.971
 5318WAT      O16195   3.291   1.509   3.948
 5318WAT     H116196   3.257   1.505   4.043
 5318WAT     H216197   3.297   1.605   3.919
 5319WAT      O16198   3.283   0.460   3.653
 5319WAT     H116199   3.199   0.431   3.607
 5319WAT     H216200   3.264   0.540   3.710
 5320WAT      O16201   5.282   0.405   6.820
 5320WAT     H116202   5.213   0.332   6.817
 5320WAT     H216203   5.256   0.471   6.890
 5321WAT      O16204   5.898   3.089   1.469
 5321WAT     H116205   5.874   2.992   1.478
 5321WAT     H216206   5.847   3.142   1.536
 5322WAT      O16207   4.008   1.929   8.357
 5322WAT     H116208   3.924   1.977   8.333
 5322WAT     H216209   4.020   1.850   8.296
 5323WAT      O16210   5.368   4.989   3.327
 5323WAT     H116211   5.454   4.944   3.306
 5323WAT     H216212   5.294   4.922   3.326
 5324WAT      O16213   3.842   1.027   6.246
 5324WAT     H116214   3.907   0.988   6.180
 5324WAT     H216215   3.863   1.124   6.259
 5325WAT      O16216   3.967   6.656   0.524
 5325WAT     H116217   4.041   6.594   0.553
 5325WAT     H216218   3.921   6.692   0.605
 5326WAT      O16219   0.826   5.039   2.159
 5326WAT     H116220   0.808   5.114   2.223
 5326WAT     H216221   0.773   4.959   2.186
 5327WAT      O16222   7.318   9.227   0.367
 5327WAT     H116223   7.303   9.201   0.462
 5327WAT     H216224   7.367   9.153   0.320
 5328WAT      O16225   2.456   6.887   8.273
 5328WAT     H116226   2.393   6.833   8.218
 5328WAT     H216227   2.474   6.840   8.360
 5329WAT      O16228   1.855   7.048   9.528
 5329WAT     H116229   1.908   6.986   9.586
 5329WAT     H216230   1.762   7.055   9.564
 5330WAT      O16231   6.065   1.589   1.239
 5330WAT     H116232   6.093   1.503   1.197
 5330WAT     H216233   6.003   1.638   1.178
 5331WAT      O16234   4.824   7.330   9.154
 5331WAT     H116235   4.893   7.396   9.183
 5331WAT     H216236   4.832   7.247   9.209
 5332WAT      O16237   1.949   1.145   8.938
 5332WAT     H116238   1.970   1.170   9.033
 5332WAT     H216239   1.860   1.100   8.935
 5333WAT      O16240   4.988   1.587   0.512
 5333WAT     H116241   4.997   1.569   0.414
 5333WAT     H216242   4.985   1.500   0.562
 5334WAT      O16243   5.617   0.529   4.951
 5334WAT     H116244   5.596   0.567   5.041
 5334WAT     H216245   5.538   0.540   4.891
 5335WAT      O16246   1.744   5.465   9.822
 5335WAT     H116247   1.745   5.515   9.909
 5335WAT     H216248   1.651   5.438   9.799
 5336WAT      O16249   0.395   5.818   0.192
 5336WAT     H116250   0.421   5.738   0.139
 5336WAT     H216251   0.402   5.900   0.134
 5337WAT      O16252   1.308   8.359   4.640
 5337WAT     H116253   1.393   8.386   4.593
 5337WAT     H216254   1.243   8.324   4.573
 5338WAT      O16255   6.919   5.831   7.329
 5338WAT     H116256   6.917   5.869   7.422
 5338WAT     H216257   6.843   5.766   7.318
 5339WAT      O16258   7.657   7.172   3.995
 5339WAT     H116259   7.739   7.208   3.951
 5339WAT     H216260   7.654   7.204   4.090
 5340WAT      O16261   0.867   5.826   0.618
 5340WAT     H116262   0.965   5.813   0.631
 5340WAT     H216263   0.846   5.828   0.520
 5341WAT      O16264   4.567   3.376   8.358
 5341WAT     H116265   4.530   3.335   8.275
 5341WAT     H216266   4.603   3.467   8.337
 5342WAT      O16267   4.082   8.040   6.767
 5342WAT     H116268   4.174   8.078   6.779
 5342WAT     H216269   4.016   8.098   6.814
 5343WAT      O16270   2.822   4.069   7.363
 5343WAT     H116271   2.914   4.107   7.359
 5343WAT     H216272   2.756   4.144   7.372
 5344WAT      O16273   3.099   9.095   0.245
 5344WAT     H116274   3.182   9.060   0.201
 5344WAT     H216275   3.053   9.158   0.183
 5345WAT      O16276   2.774   3.055   0.724
 5345WAT     H116277   2.697   3.000   0.692
 5345WAT     H216278   2.813   3.107   0.648
 5346WAT      O16279   5.399   8.749   3.629
 5346WAT     H116280   5.453   8.670   3.601
 5346WAT     H216281   5.416   8.769   3.725
 5347WAT      O16282   7.992   5.624   4.024
 5347WAT     H116283   8.009   5.698   4.089
 5347WAT     H216284   8.065   5.622   3.955
 5348WAT      O16285   3.758   0.958   3.637
 5348WAT     H116286   3.660   0.969   3.656
 5348WAT     H216287   3.775   0.978   3.540
 5349WAT      O16288   2.370   4.759   3.914
 5349WAT     H116289   2.428   4.721   3.986
 5349WAT     H216290   2.280   4.781   3.951
 5350WAT      O16291   0.935   2.319   6.024
 5350WAT     H116292   1.008   2.260   5.991
 5350WAT     H216293   0.892   2.365   5.946
 5351WAT      O16294   4.360   1.572   3.949
 5351WAT     H116295   4.447   1.554   3.994
 5351WAT     H216296   4.346   1.670   3.940
 5352WAT      O16297   3.337   0.586   2.655
 5352WAT     H116298   3.363   0.491   2.676
 5352WAT     H216299   3.333   0.598   2.556
 5353WAT      O16300   0.179   8.254   4.092
 5353WAT     H116301   0.142   8.260   3.999
 5353WAT     H216302   0.164   8.341   4.139
 5354WAT      O16303   9.768   4.362   4.777
 5354WAT     H116304   9.786   4.447   4.827
 5354WAT     H216305   9.719   4.299   4.837
 5355WAT      O16306   3.279   2.576   8.330
 5355WAT     H116307   3.180   2.557   8.332
 5355WAT     H216308   3.318   2.537   8.247
 5356WAT      O16309   4.129   3.600   8.597
 5356WAT     H116310   4.193   3.564   8.664
 5356WAT     H216311   4.041   3.553   8.606
 5357WAT      O16312   3.342   2.928   3.325
 5357WAT     H116313   3.417   2.869   3.293
 5357WAT     H216314   3.258   2.875   3.329
 5358WAT      O16315   5.778   8.025   7.314
 5358WAT     H116316   5.705   7.959   7.297
 5358WAT     H216317   5.833   8.037   7.232
 5359WAT      O16318   2.048   2.181   8.059
 5359WAT     H116319   2.001   2.139   8.137
 5359WAT     H216320   2.146   2.183   8.076
 5360WAT      O16321   4.090   0.348   7.449
 5360WAT     H116322   4.180   0.375   7.414
 5360WAT     H216323   4.096   0.335   7.548
 5361WAT      O16324   8.836   0.678   8.492
 5361WAT     H116325   8.819   0.702   8.396
 5361WAT     H216326   8.874   0.586   8.497
 5362WAT      O16327   3.158   1.681   0.024
 5362WAT     H116328   3.098   1.719   0.095
 5362WAT     H216329   3.178   1.585   0.045
 5363WAT      O16330   6.181   9.007   2.923
 5363WAT     H116331   6.265   9.049   2.956
 5363WAT     H216332   6.128   9.074   2.872
 5364WAT      O16333   9.598   3.743   6.160
 5364WAT     H116334   9.685   3.767   6.117
 5364WAT     H216335   9.530   3.813   6.139
 5365WAT      O16336   0.762   2.065   9.221
 5365WAT     H116337   0.700   2.135   9.187
 5365WAT     H216338   0.824   2.036   9.148
 5366WAT      O16339   7.527   6.267   3.511
 5366WAT     H116340   7.550   6.361   3.534
 5366WAT     H216341   7.472   6.227   3.584
 5367WAT      O16342   6.946   8.609   5.293
 5367WAT     H116343   6.856   8.578   5.264
 5367WAT     H216344   6.962   8.583   5.388
 5368WAT      O16345   6.013   0.076   2.245
 5368WAT     H116346   6.073   0.114   2.175
 5368WAT     H216347   5.959   0.149   2.286
 5369WAT      O16348   4.284   6.406   0.543
 5369WAT     H116349   4.267   6.414   0.642
 5369WAT     H216350   4.220   6.340   0.503
 5370WAT      O16351   8.371   4.402   0.519
 5370WAT     H116352   8.324   4.354   0.445
 5370WAT     H216353   8.466   4.418   0.492
 5371WAT      O16354   6.149   7.150   4.637
 5371WAT     H116355   6.190   7.225   4.584
 5371WAT     H216356   6.205   7.130   4.716
 5372WAT      O16357   4.348   3.286   6.473
 5372WAT     H116358   4.312   3.269   6.564
 5372WAT     H216359   4.331   3.382   6.448
 5373WAT      O16360   2.344   9.277   7.578
 5373WAT     H116361   2.319   9.257   7.673
 5373WAT     H216362   2.385   9.368   7.573
 5374WAT      O16363   8.068   2.367   9.074
 5374WAT     H116364   8.028   2.342   8.986
 5374WAT     H216365   8.167   2.354   9.071
 5375WAT      O16366   8.635   1.826   3.432
 5375WAT     H116367   8.568   1.896   3.456
 5375WAT     H216368   8.713   1.870   3.386
 5376WAT      O16369   5.072   0.805   9.842
 5376WAT     H116370   4.986   0.788   9.793
 5376WAT     H216371   5.140   0.839   9.777
 5377WAT      O16372   7.727   0.470   4.578
 5377WAT     H116373   7.628   0.464   4.565
 5377WAT     H216374   7.772   0.402   4.521
 5378WAT      O16375   4.532   6.955   0.474
 5378WAT     H116376   4.457   7.015   0.503
 5378WAT     H216377   4.612   7.010   0.452
 5379WAT      O16378   8.470   2.104   1.392
 5379WAT     H116379   8.544   2.055   1.438
 5379WAT     H216380   8.503   2.193   1.362
 5380WAT      O16381   9.362   9.157   7.765
 5380WAT     H116382   9.446   9.211   7.777
 5380WAT     H216383   9.368   9.105   7.680
 5381WAT      O16384   6.856   3.020   2.399
 5381WAT     H116385   6.822   2.967   2.321
 5381WAT     H216386   6.842   2.969   2.483
 5382WAT      O16387   5.144   2.036   9.811
 5382WAT     H116388   5.134   2.052   9.713
 5382WAT     H216389   5.078   2.092   9.861
 5383WAT      O16390   7.009   4.052   3.264
 5383WAT     H116391   7.100   4.089   3.282
 5383WAT     H216392   7.008   3.954   3.284
 5384WAT      O16393   6.416   4.801   0.230
 5384WAT     H116394   6.401   4.750   0.315
 5384WAT     H216395   6.512   4.797   0.205
 5385WAT      O16396   1.496   7.918   3.082
 5385WAT     H116397   1.432   7.902   3.157
 5385WAT     H216398   1.581   7.869   3.099
 5386WAT      O16399   5.433   9.815   3.076
 5386WAT     H116400   5.509   9.836   3.137
 5386WAT     H216401   5.452   9.853   2.985
 5387WAT      O16402   8.369   7.836   7.077
 5387WAT     H116403   8.442   7.772   7.055
 5387WAT     H216404   8.296   7.829   7.009
 5388WAT      O16405   4.663   4.185   7.034
 5388WAT     H116406   4.747   4.173   6.980
 5388WAT     H216407   4.686   4.226   7.122
 5389WAT      O16408   0.188   6.154   7.895
 5389WAT     H116409   0.275   6.118   7.927
 5389WAT     H216410   0.165   6.237   7.946
 5390WAT      O16411   1.072   9.639   4.541
 5390WAT     H116412   1.169   9.628   4.519
 5390WAT     H216413   1.049   9.584   4.621
 5391WAT      O16414   5.727   6.921   4.938
 5391WAT     H116415   5.739   6.948   4.842
 5391WAT     H216416   5.778   6.837   4.955
 5392WAT      O16417   7.485   3.768   7.926
 5392WAT     H116418   7.457   3.719   7.844
 5392WAT     H216419   7.547   3.709   7.980
 5393WAT      O16420   5.114   7.121   5.919
 5393WAT     H116421   5.016   7.143   5.914
 5393WAT     H216422   5.134   7.044   5.858
 5394WAT      O16423   5.345   7.207   2.524
 5394WAT     H116424   5.330   7.304   2.541
 5394WAT     H216425   5.332   7.156   2.609
 5395WAT      O16426   3.361   1.955   9.396
 5395WAT     H116427   3.309   1.870   9.393
 5395WAT     H216428   3.384   1.977   9.490
 5396WAT      O16429   7.450   9.008   0.278
 5396WAT     H116430   7.401   8.971   0.199
 5396WAT     H216431   7.528   8.949   0.300
 5397WAT      O16432   7.112   3.922   0.850
 5397WAT     H116433   7.081   3.973   0.930
 5397WAT     H216434   7.209   3.899   0.859
 5398WAT      O16435   7.312   4.465   1.158
 5398WAT     H116436   7.396   4.464   1.103
 5398WAT     H216437   7.301   4.555   1.200
 5399WAT      O16438   3.595   7.874   2.334
 5399WAT     H116439   3.656   7.942   2.293
 5399WAT     H216440   3.598   7.883   2.433
 5400WAT      O16441   2.502   1.134   6.823
 5400WAT     H116442   2.428   1.201   6.823
 5400WAT     H216443   2.546   1.133   6.733
 5401WAT      O16444   1.147   9.243   6.050
 5401WAT     H116445   1.084   9.166   6.055
 5401WAT     H216446   1.153   9.288   6.139
 5402WAT      O16447   3.724   6.438   0.186
 5402WAT     H116448   3.717   6.494   0.268
 5402WAT     H216449   3.790   6.480   0.123
 5403WAT      O16450   8.183   2.869   2.009
 5403WAT     H116451   8.181   2.904   1.915
 5403WAT     H216452   8.274   2.881   2.048
 5404WAT      O16453   9.358   0.474   5.678
 5404WAT     H116454   9.345   0.573   5.681
 5404WAT     H216455   9.384   0.441   5.769
 5405WAT      O16456   1.863   3.345   9.876
 5405WAT     H116457   1.902   3.305   9.794
 5405WAT     H216458   1.781   3.294   9.902
 5406WAT      O16459   6.966   6.221   2.640
 5406WAT     H116460   6.976   6.314   2.606
 5406WAT     H216461   6.895   6.173   2.589
 5407WAT      O16462   3.475   5.012   9.743
 5407WAT     H116463   3.452   5.109   9.740
 5407WAT     H216464   3.405   4.960   9.695
 5408WAT      O16465   8.208   0.057   7.088
 5408WAT     H116466   8.182  -0.006   7.161
 5408WAT     H216467   8.285   0.114   7.119
 5409WAT      O16468   5.331   8.221   9.525
 5409WAT     H116469   5.244   8.261   9.557
 5409WAT     H216470   5.402   8.240   9.592
 5410WAT      O16471   4.173   5.360   4.935
 5410WAT     H116472   4.181   5.315   4.846
 5410WAT     H216473   4.078   5.390   4.949
 5411WAT      O16474   9.493   9.387   3.704
 5411WAT     H116475   9.477   9.350   3.613
 5411WAT     H216476   9.584   9.429   3.707
 5412WAT      O16477   4.726   2.318   1.030
 5412WAT     H116478   4.786   2.333   1.109
 5412WAT     H216479   4.665   2.241   1.049
 5413WAT      O16480   7.411   4.550   6.082
 5413WAT     H116481   7.349   4.584   6.011
 5413WAT     H216482   7.421   4.451   6.073
 5414WAT      O16483   3.811   9.060   7.595
 5414WAT     H116484   3.719   9.083   7.629
 5414WAT     H216485   3.871   9.139   7.607
 5415WAT      O16486   5.948   4.207   3.787
 5415WAT     H116487   5.953   4.134   3.719
 5415WAT     H216488   5.874   4.269   3.763
 5416WAT      O16489   9.538   3.590   4.288
 5416WAT     H116490   9.570   3.498   4.312
 5416WAT     H216491   9.568   3.655   4.358
 5417WAT      O16492   5.732   1.379   4.206
 5417WAT     H116493   5.773   1.420   4.125
 5417WAT     H216494   5.789   1.302   4.236
 5418WAT      O16495   5.713   0.670   2.106
 5418WAT     H116496   5.801   0.639   2.069
 5418WAT     H216497   5.644   0.664   2.034
 5419WAT      O16498   1.586   1.931   4.695
 5419WAT     H116499   1.495   1.933   4.653
 5419WAT     H216500   1.632   2.018   4.680
 5420WAT      O16501   4.865   0.337   9.643
 5420WAT     H116502   4.800   0.404   9.679
 5420WAT     H216503   4.824   0.246   9.644
 5421WAT      O16504   7.353   1.615   0.424
 5421WAT     H116505   7.408   1.535   0.398
 5421WAT     H216506   7.414   1.687   0.457
 5422WAT      O16507   9.109   4.804   5.317
 5422WAT     H116508   9.072   4.738   5.382
 5422WAT     H216509   9.126   4.891   5.363
 5423WAT      O16510   6.729   1.438   1.320
 5423WAT     H116511   6.754   1.534   1.327
 5423WAT     H216512   6.698   1.418   1.227
 5424WAT      O16513   1.219   4.344   0.440
 5424WAT     H116514   1.191   4.343   0.536
 5424WAT     H216515   1.277   4.424   0.423
 5425WAT      O16516   4.930   7.391   9.530
 5425WAT     H116517   5.005   7.395   9.596
 5425WAT     H216518   4.960   7.429   9.443
 5426WAT      O16519   1.551   3.225   1.418
 5426WAT     H116520   1.520   3.133   1.394
 5426WAT     H216521   1.472   3.286   1.424
 5427WAT      O16522   0.717   4.512   8.324
 5427WAT     H116523   0.719   4.606   8.358
 5427WAT     H216524   0.625   4.491   8.289
 5428WAT      O16525   5.341   8.570   8.999
 5428WAT     H116526   5.315   8.511   9.075
 5428WAT     H216527   5.348   8.515   8.915
 5429WAT      O16528   3.892   5.794   2.115
 5429WAT     H116529   3.928   5.887   2.122
 5429WAT     H216530   3.962   5.729   2.143
 5430WAT      O16531   2.482   8.998   1.501
 5430WAT     H116532   2.403   8.937   1.510
 5430WAT     H216533   2.467   9.060   1.423
 5431WAT      O16534   9.381   4.663   8.321
 5431WAT     H116535   9.330   4.704   8.245
 5431WAT     H216536   9.377   4.723   8.400
 5432WAT      O16537   9.438   9.550   7.804
 5432WAT     H116538   9.360   9.556   7.865
 5432WAT     H216539   9.501   9.626   7.821
 5433WAT      O16540   8.577   8.072   4.166
 5433WAT     H116541   8.498   8.094   4.110
 5433WAT     H216542   8.569   7.978   4.200
 5434WAT      O16543   9.460   5.844   6.079
 5434WAT     H116544   9.560   5.835   6.079
 5434WAT     H216545   9.429   5.862   5.986
 5435WAT      O16546   1.814   3.832   0.661
 5435WAT     H116547   1.755   3.908   0.635
 5435WAT     H216548   1.762   3.765   0.713
 5436WAT      O16549   8.156   1.817   5.730
 5436WAT     H116550   8.153   1.838   5.828
 5436WAT     H216551   8.238   1.764   5.710
 5437WAT      O16552   7.277   4.074   2.341
 5437WAT     H116553   7.220   4.070   2.423
 5437WAT     H216554   7.276   4.166   2.303
 5438WAT      O16555   6.060   1.415   2.764
 5438WAT     H116556   6.000   1.457   2.696
 5438WAT     H216557   6.153   1.452   2.753
 5439WAT      O16558   9.553   6.853   5.141
 5439WAT     H116559   9.464   6.828   5.102
 5439WAT     H216560   9.573   6.949   5.119
 5440WAT      O16561   4.781   8.832   8.786
 5440WAT     H116562   4.682   8.819   8.775
 5440WAT     H216563   4.829   8.753   8.749
 5441WAT      O16564   4.870   3.005   1.651
 5441WAT     H116565   4.845   2.936   1.718
 5441WAT     H216566   4.896   3.089   1.697
 5442WAT      O16567   9.156   8.543   7.026
 5442WAT     H116568   9.083   8.562   7.093
 5442WAT     H216569   9.245   8.565   7.066
 5443WAT      O16570   2.896   5.437   1.549
 5443WAT     H116571   2.892   5.519   1.606
 5443WAT     H216572   2.868   5.358   1.603
 5444WAT      O16573   7.327   6.878   3.414
 5444WAT     H116574   7.298   6.784   3.436
 5444WAT     H216575   7.300   6.899   3.320
 5445WAT      O16576   0.995   7.203   2.576
 5445WAT     H116577   1.078   7.232   2.624
 5445WAT     H216578   1.021   7.144   2.499
 5446WAT      O16579   3.892   3.565   0.525
 5446WAT     H116580   3.988   3.550   0.504
 5446WAT     H216581   3.878   3.557   0.624
 5447WAT      O16582   6.204   7.332   0.942
 5447WAT     H116583   6.160   7.391   0.874
 5447WAT     H216584   6.284   7.378   0.980
 5448WAT      O16585   5.415   5.415   0.096
 5448WAT     H116586   5.326   5.382   0.127
 5448WAT     H216587   5.432   5.506   0.132
 5449WAT      O16588   7.507   0.202   4.362
 5449WAT     H116589   7.451   0.167   4.436
 5449WAT     H216590   7.595   0.232   4.398
 5450WAT      O16591   6.725   5.192   5.962
 5450WAT     H116592   6.813   5.188   6.009
 5450WAT     H216593   6.712   5.109   5.909
 5451WAT      O16594   0.825   2.534   7.657
 5451WAT     H116595   0.884   2.583   7.593
 5451WAT     H216596   0.729   2.555   7.638
 5452WAT      O16597   6.461   9.140   2.711
 5452WAT     H116598   6.445   9.133   2.809
 5452WAT     H216599   6.557   9.161   2.694
 5453WAT      O16600   1.826   2.229   2.378
 5453WAT     H116601   1.797   2.278   2.461
 5453WAT     H216602   1.920   2.256   2.355
 5454WAT      O16603   6.848   8.339   2.017
 5454WAT     H116604   6.771   8.341   1.953
 5454WAT     H216605   6.891   8.249   2.014
 5455WAT      O16606   6.641   1.044   1.184
 5455WAT     H116607   6.608   1.104   1.257
 5455WAT     H216608   6.735   1.017   1.203
 5456WAT      O16609   6.331   5.686   1.031
 5456WAT     H116610   6.264   5.686   0.957
 5456WAT     H216611   6.296   5.632   1.107
 5457WAT      O16612   3.475   5.763   4.311
 5457WAT     H116613   3.498   5.747   4.407
 5457WAT     H216614   3.422   5.685   4.276
 5458WAT      O16615   9.300   3.506   1.198
 5458WAT     H116616   9.396   3.489   1.219
 5458WAT     H216617   9.267   3.440   1.131
 5459WAT      O16618   3.233   2.823   0.983
 5459WAT     H116619   3.134   2.829   0.995
 5459WAT     H216620   3.265   2.899   0.926
 5460WAT      O16621   8.287   6.186   2.547
 5460WAT     H116622   8.232   6.118   2.594
 5460WAT     H216623   8.375   6.145   2.520
 5461WAT      O16624   7.505   9.023   2.352
 5461WAT     H116625   7.472   8.958   2.420
 5461WAT     H216626   7.430   9.052   2.293
 5462WAT      O16627   5.927   2.698   8.652
 5462WAT     H116628   5.975   2.618   8.615
 5462WAT     H216629   5.940   2.776   8.591
 5463WAT      O16630   3.927   0.094   8.632
 5463WAT     H116631   3.871   0.015   8.607
 5463WAT     H216632   3.917   0.165   8.562
 5464WAT      O16633   2.439   8.708   6.758
 5464WAT     H116634   2.528   8.729   6.799
 5464WAT     H216635   2.387   8.650   6.821
 5465WAT      O16636   9.552   2.674   7.959
 5465WAT     H116637   9.534   2.752   8.019
 5465WAT     H216638   9.637   2.630   7.985
 5466WAT      O16639   5.894   4.873   2.566
 5466WAT     H116640   5.875   4.797   2.503
 5466WAT     H216641   5.970   4.928   2.531
 5467WAT      O16642   0.947   6.464   0.156
 5467WAT     H116643   0.959   6.404   0.235
 5467WAT     H216644   0.850   6.467   0.131
 5468WAT      O16645   9.562   4.709   8.034
 5468WAT     H116646   9.549   4.797   8.079
 5468WAT     H216647   9.631   4.656   8.084
 5469WAT      O16648   4.464   7.394   6.926
 5469WAT     H116649   4.428   7.383   7.019
 5469WAT     H216650   4.562   7.374   6.926
 5470WAT      O16651   5.485   8.192   8.911
 5470WAT     H116652   5.520   8.257   8.978
 5470WAT     H216653   5.406   8.143   8.949
 5471WAT      O16654   9.791   7.766   6.118
 5471WAT     H116655   9.699   7.791   6.146
 5471WAT     H216656   9.839   7.723   6.195
 5472WAT      O16657   1.049   6.539   0.982
 5472WAT     H116658   1.078   6.443   0.987
 5472WAT     H216659   1.106   6.588   0.917
 5473WAT      O16660   3.883   3.700   3.650
 5473WAT     H116661   3.796   3.667   3.613
 5473WAT     H216662   3.956   3.637   3.626
 5474WAT      O16663   4.883   8.289   2.174
 5474WAT     H116664   4.923   8.368   2.128
 5474WAT     H216665   4.902   8.296   2.272
 5475WAT      O16666   7.835   5.472   9.853
 5475WAT     H116667   7.741   5.461   9.823
 5475WAT     H216668   7.893   5.405   9.806
 5476WAT      O16669   1.782   9.401   6.605
 5476WAT     H116670   1.714   9.467   6.572
 5476WAT     H216671   1.769   9.314   6.558
 5477WAT      O16672   8.674   6.631   8.405
 5477WAT     H116673   8.653   6.636   8.307
 5477WAT     H216674   8.600   6.675   8.457
 5478WAT      O16675   9.729   8.255   1.297
 5478WAT     H116676   9.753   8.159   1.311
 5478WAT     H216677   9.730   8.277   1.200
 5479WAT      O16678   2.115   1.284   9.619
 5479WAT     H116679   2.098   1.377   9.651
 5479WAT     H216680   2.042   1.223   9.651
 5480WAT      O16681   7.902   8.046   5.184
 5480WAT     H116682   7.910   8.146   5.176
 5480WAT     H216683   7.966   8.013   5.253
 5481WAT      O16684   2.359   8.204   0.491
 5481WAT     H116685   2.438   8.243   0.444
 5481WAT     H216686   2.322   8.128   0.438
 5482WAT      O16687   2.425   2.894   7.289
 5482WAT     H116688   2.469   2.878   7.378
 5482WAT     H216689   2.487   2.867   7.216
 5483WAT      O16690   4.704   8.655   8.478
 5483WAT     H116691   4.719   8.690   8.386
 5483WAT     H216692   4.622   8.597   8.479
 5484WAT      O16693   0.792   5.992   7.092
 5484WAT     H116694   0.696   5.971   7.111
 5484WAT     H216695   0.827   5.927   7.024
 5485WAT      O16696   2.271   5.257   9.241
 5485WAT     H116697   2.213   5.301   9.309
 5485WAT     H216698   2.327   5.327   9.195
 5486WAT      O16699   6.390   5.045   7.826
 5486WAT     H116700   6.467   4.995   7.866
 5486WAT     H216701   6.315   5.049   7.893
 5487WAT      O16702   0.193   3.236   0.902
 5487WAT     H116703   0.236   3.183   0.975
 5487WAT     H216704   0.196   3.185   0.816
 5488WAT      O16705   8.704   8.128   0.967
 5488WAT     H116706   8.786   8.154   1.018
 5488WAT     H216707   8.725   8.053   0.905
 5489WAT      O16708   1.605   7.257   6.977
 5489WAT     H116709   1.556   7.344   6.988
 5489WAT     H216710   1.605   7.231   6.880
 5490WAT      O16711   8.282   7.813   5.659
 5490WAT     H116712   8.342   7.892   5.675
 5490WAT     H216713   8.338   7.731   5.649
 5491WAT      O16714   4.524   4.676   7.055
 5491WAT     H116715   4.624   4.679   7.045
 5491WAT     H216716   4.485   4.625   6.979
 5492WAT      O16717   4.846   4.775   7.564
 5492WAT     H116718   4.851   4.875   7.559
 5492WAT     H216719   4.752   4.747   7.583
 5493WAT      O16720   8.152   8.628   8.649
 5493WAT     H116721   8.133   8.714   8.696
 5493WAT     H216722   8.086   8.614   8.576
 5494WAT      O16723   3.442   5.506   9.532
 5494WAT     H116724   3.487   5.584   9.488
 5494WAT     H216725   3.510   5.436   9.555
 5495WAT      O16726   4.456   4.226   3.602
 5495WAT     H116727   4.537   4.240   3.546
 5495WAT     H216728   4.427   4.313   3.641
 5496WAT      O16729   2.766   6.315   0.692
 5496WAT     H116730   2.784   6.356   0.602
 5496WAT     H216731   2.835   6.346   0.757
 5497WAT      O16732   3.121   4.091   5.184
 5497WAT     H116733   3.201   4.041   5.216
 5497WAT     H216734   3.139   4.189   5.187
 5498WAT      O16735   8.486   1.147   0.955
 5498WAT     H116736   8.472   1.234   0.908
 5498WAT     H216737   8.403   1.122   1.006
 5499WAT      O16738   4.340   1.114   0.781
 5499WAT     H116739   4.351   1.137   0.878
 5499WAT     H216740   4.246   1.087   0.764
 5500WAT      O16741   5.287   0.895   9.688
 5500WAT     H116742   5.334   0.983   9.690
 5500WAT     H216743   5.288   0.859   9.595
 5501WAT      O16744   9.487   8.354   6.476
 5501WAT     H116745   9.550   8.412   6.424
 5501WAT     H216746   9.406   8.336   6.421
 5502WAT      O16747   8.937   7.795   5.513
 5502WAT     H116748   9.012   7.728   5.513
 5502WAT     H216749   8.850   7.747   5.517
 5503WAT      O16750   7.025   8.041   7.799
 5503WAT     H116751   7.113   8.086   7.789
 5503WAT     H216752   7.013   8.011   7.894
 5504WAT      O16753   3.045   8.046   9.008
 5504WAT     H116754   3.087   8.013   8.924
 5504WAT     H216755   3.095   8.126   9.041
 5505WAT      O16756   6.180   2.019   4.538
 5505WAT     H116757   6.091   2.047   4.575
 5505WAT     H216758   6.173   2.009   4.439
 5506WAT      O16759   4.068   4.907   0.559
 5506WAT     H116760   3.989   4.940   0.508
 5506WAT     H216761   4.151   4.952   0.525
 5507WAT      O16762   0.628   9.542   6.924
 5507WAT     H116763   0.718   9.585   6.930
 5507WAT     H216764   0.600   9.538   6.828
 5508WAT      O16765   6.627   9.313   5.665
 5508WAT     H116766   6.683   9.267   5.596
 5508WAT     H216767   6.560   9.372   5.621
 5509WAT      O16768   6.791   1.313   7.240
 5509WAT     H116769   6.811   1.293   7.336
 5509WAT     H216770   6.787   1.412   7.227
 5510WAT      O16771   9.829   1.649   9.848
 5510WAT     H116772   9.798   1.743   9.833
 5510WAT     H216773   9.880   1.618   9.767
 5511WAT      O16774   7.541   6.138   7.538
 5511WAT     H116775   7.519   6.181   7.451
 5511WAT     H216776   7.558   6.209   7.607
 5512WAT      O16777   2.965   2.436   5.851
 5512WAT     H116778   3.023   2.377   5.796
 5512WAT     H216779   2.885   2.464   5.797
 5513WAT      O16780   5.422   1.335   4.080
 5513WAT     H116781   5.419   1.428   4.042
 5513WAT     H216782   5.480   1.334   4.161
 5514WAT      O16783   7.952   2.983   8.356
 5514WAT     H116784   7.942   2.941   8.265
 5514WAT     H216785   7.899   2.930   8.422
 5515WAT      O16786   7.780   6.932   6.260
 5515WAT     H116787   7.691   6.909   6.220
 5515WAT     H216788   7.845   6.858   6.241
 5516WAT      O16789   8.770   4.850   8.314
 5516WAT     H116790   8.749   4.933   8.366
 5516WAT     H216791   8.692   4.827   8.257
 5517WAT      O16792   1.351   5.042   5.784
 5517WAT     H116793   1.413   5.105   5.736
 5517WAT     H216794   1.356   4.952   5.742
 5518WAT      O16795   5.977   0.027   0.470
 5518WAT     H116796   5.975   0.047   0.568
 5518WAT     H216797   5.909   0.084   0.424
 5519WAT      O16798   2.706   7.763   8.077
 5519WAT     H116799   2.663   7.812   8.001
 5519WAT     H216800   2.785   7.815   8.110
 5520WAT      O16801   2.483   8.227   5.560
 5520WAT     H116802   2.391   8.189   5.569
 5520WAT     H216803   2.513   8.220   5.465
 5521WAT      O16804   8.917   9.108   3.939
 5521WAT     H116805   8.930   9.074   3.846
 5521WAT     H216806   8.823   9.142   3.949
 5522WAT      O16807   4.803   0.885   0.159
 5522WAT     H116808   4.825   0.880   0.257
 5522WAT     H216809   4.806   0.794   0.119
 5523WAT      O16810   5.922   3.947   4.252
 5523WAT     H116811   6.003   3.959   4.196
 5523WAT     H216812   5.850   4.008   4.219
 5524WAT      O16813   8.153   1.567   9.352
 5524WAT     H116814   8.217   1.624   9.301
 5524WAT     H216815   8.190   1.547   9.442
 5525WAT      O16816   2.500   7.526   1.289
 5525WAT     H116817   2.493   7.593   1.364
 5525WAT     H216818   2.580   7.547   1.233
 5526WAT      O16819   7.900   9.043   7.428
 5526WAT     H116820   7.828   8.986   7.388
 5526WAT     H216821   7.859   9.119   7.478
 5527WAT      O16822   8.397   0.163   8.073
 5527WAT     H116823   8.457   0.236   8.104
 5527WAT     H216824   8.450   0.097   8.019
 5528WAT      O16825   4.569   3.698   4.916
 5528WAT     H116826   4.614   3.610   4.900
 5528WAT     H216827   4.596   3.762   4.844
 5529WAT      O16828   2.815   9.216   3.750
 5529WAT     H116829   2.861   9.177   3.670
 5529WAT     H216830   2.796   9.312   3.733
 5530WAT      O16831   9.023   1.279   5.045
 5530WAT     H116832   9.113   1.249   5.076
 5530WAT     H216833   8.980   1.207   4.992
 5531WAT      O16834   5.279   3.841   4.996
 5531WAT     H116835   5.222   3.786   4.936
 5531WAT     H216836   5.284   3.935   4.961
 5532WAT      O16837   7.756   4.754   3.077
 5532WAT     H116838   7.807   4.674   3.047
 5532WAT     H216839   7.718   4.737   3.168
 5533WAT      O16840   6.033   0.988   5.876
 5533WAT     H116841   5.972   1.053   5.832
 5533WAT     H216842   6.113   0.973   5.818
 5534WAT      O16843   5.529   6.033   6.677
 5534WAT     H116844   5.530   5.933   6.678
 5534WAT     H216845   5.440   6.065   6.645
 5535WAT      O16846   5.893   2.487   7.248
 5535WAT     H116847   5.828   2.523   7.181
 5535WAT     H216848   5.913   2.392   7.228
 5536WAT      O16849   9.459   6.214   6.662
 5536WAT     H116850   9.442   6.295   6.606
 5536WAT     H216851   9.537   6.232   6.724
 5537WAT      O16852   0.019   5.351   0.060
 5537WAT     H116853  -0.074   5.385   0.075
 5537WAT     H216854   0.063   5.404  -0.012
 5538WAT      O16855   2.607   8.655   8.441
 5538WAT     H116856   2.618   8.755   8.441
 5538WAT     H216857   2.569   8.626   8.529
 5539WAT      O16858   4.445   3.461   4.554
 5539WAT     H116859   4.359   3.512   4.541
 5539WAT     H216860   4.438   3.405   4.636
 5540WAT      O16861   5.478   4.149   7.394
 5540WAT     H116862   5.474   4.160   7.295
 5540WAT     H216863   5.569   4.176   7.427
 5541WAT      O16864   2.312   1.183   7.499
 5541WAT     H116865   2.312   1.201   7.401
 5541WAT     H216866   2.248   1.108   7.519
 5542WAT      O16867   4.230   3.193   0.119
 5542WAT     H116868   4.218   3.253   0.039
 5542WAT     H216869   4.293   3.120   0.097
 5543WAT      O16870   6.186   4.277   6.326
 5543WAT     H116871   6.243   4.197   6.307
 5543WAT     H216872   6.113   4.282   6.258
 5544WAT      O16873   1.467   0.108   3.514
 5544WAT     H116874   1.431   0.132   3.604
 5544WAT     H216875   1.416   0.158   3.444
 5545WAT      O16876   7.253   6.005   9.697
 5545WAT     H116877   7.233   5.972   9.605
 5545WAT     H216878   7.216   5.941   9.765
 5546WAT      O16879   1.590   5.737   8.693
 5546WAT     H116880   1.614   5.719   8.598
 5546WAT     H216881   1.492   5.722   8.706
 5547WAT      O16882   2.837   2.861   9.123
 5547WAT     H116883   2.759   2.841   9.183
 5547WAT     H216884   2.922   2.841   9.171
 5548WAT      O16885   7.134   4.598   6.874
 5548WAT     H116886   7.232   4.586   6.864
 5548WAT     H216887   7.100   4.655   6.799
 5549WAT      O16888   0.863   0.235   4.485
 5549WAT     H116889   0.913   0.164   4.534
 5549WAT     H216890   0.834   0.306   4.550
 5550WAT      O16891   2.711   3.195   0.929
 5550WAT     H116892   2.792   3.236   0.972
 5550WAT     H216893   2.738   3.149   0.845
 5551WAT      O16894   6.674   6.160   5.857
 5551WAT     H116895   6.673   6.215   5.774
 5551WAT     H216896   6.582   6.157   5.897
 5552WAT      O16897   6.264   7.467   4.121
 5552WAT     H116898   6.276   7.561   4.153
 5552WAT     H216899   6.318   7.405   4.178
 5553WAT      O16900   1.690   7.383   7.353
 5553WAT     H116901   1.749   7.464   7.359
 5553WAT     H216902   1.714   7.331   7.271
 5554WAT      O16903   7.786   2.091   1.978
 5554WAT     H116904   7.745   2.052   1.896
 5554WAT     H216905   7.858   2.155   1.952
 5555WAT      O16906   0.123   2.549   2.497
 5555WAT     H116907   0.143   2.495   2.579
 5555WAT     H216908   0.024   2.552   2.483
 5556WAT      O16909   4.986   1.508   7.800
 5556WAT     H116910   5.084   1.498   7.778
 5556WAT     H216911   4.974   1.579   7.868
 5557WAT      O16912   4.736   4.802   5.360
 5557WAT     H116913   4.697   4.894   5.353
 5557WAT     H216914   4.689   4.742   5.296
 5558WAT      O16915   3.033   7.500   1.570
 5558WAT     H116916   3.114   7.459   1.611
 5558WAT     H216917   2.960   7.506   1.638
 5559WAT      O16918   3.429   1.421   2.468
 5559WAT     H116919   3.359   1.356   2.497
 5559WAT     H216920   3.387   1.499   2.423
 5560WAT      O16921   1.654   0.748   7.980
 5560WAT     H116922   1.719   0.753   8.056
 5560WAT     H216923   1.562   0.773   8.013
 5561WAT      O16924   7.664   1.026   8.910
 5561WAT     H116925   7.642   1.064   8.820
 5561WAT     H216926   7.580   0.992   8.952
 5562WAT      O16927   1.998   5.095   3.679
 5562WAT     H116928   2.089   5.080   3.717
 5562WAT     H216929   1.942   5.014   3.696
 5563WAT      O16930   3.152   9.024   6.804
 5563WAT     H116931   3.225   8.960   6.784
 5563WAT     H216932   3.143   9.034   6.903
 5564WAT      O16933   1.148   1.002   7.953
 5564WAT     H116934   1.226   0.978   7.894
 5564WAT     H216935   1.100   1.080   7.913
 5565WAT      O16936   0.165   6.391   3.619
 5565WAT     H116937   0.081   6.406   3.567
 5565WAT     H216938   0.164   6.448   3.701
 5566WAT      O16939   6.828   6.402   1.049
 5566WAT     H116940   6.923   6.381   1.028
 5566WAT     H216941   6.773   6.397   0.965
 5567WAT      O16942   2.556   0.379   8.257
 5567WAT     H116943   2.642   0.412   8.296
 5567WAT     H216944   2.481   0.397   8.321
 5568WAT      O16945   1.685   4.264   9.346
 5568WAT     H116946   1.684   4.260   9.246
 5568WAT     H216947   1.618   4.332   9.377
 5569WAT      O16948   1.924   6.281   1.782
 5569WAT     H116949   1.868   6.330   1.715
 5569WAT     H216950   1.974   6.347   1.838
 5570WAT      O16951   2.887   4.654   5.332
 5570WAT     H116952   2.862   4.621   5.241
 5570WAT     H216953   2.884   4.577   5.396
 5571WAT      O16954   8.567   0.441   3.797
 5571WAT     H116955   8.520   0.356   3.775
 5571WAT     H216956   8.659   0.420   3.831
 5572WAT      O16957   6.362   0.811   4.648
 5572WAT     H116958   6.342   0.839   4.742
 5572WAT     H216959   6.361   0.711   4.642
 5573WAT      O16960   5.016   3.904   7.281
 5573WAT     H116961   4.961   3.904   7.365
 5573WAT     H216962   5.105   3.863   7.300
 5574WAT      O16963   8.705   2.408   9.317
 5574WAT     H116964   8.613   2.368   9.318
 5574WAT     H216965   8.727   2.444   9.408
 5575WAT      O16966   7.861   3.607   1.789
 5575WAT     H116967   7.862   3.707   1.782
 5575WAT     H216968   7.822   3.567   1.706
 5576WAT      O16969   8.221   2.900   5.025
 5576WAT     H116970   8.183   2.963   5.093
 5576WAT     H216971   8.287   2.949   4.967
 5577WAT      O16972   2.646   6.267   1.656
 5577WAT     H116973   2.653   6.168   1.642
 5577WAT     H216974   2.661   6.289   1.752
 5578WAT      O16975   5.400   8.120   4.172
 5578WAT     H116976   5.386   8.082   4.081
 5578WAT     H216977   5.390   8.047   4.241
 5579WAT      O16978   8.286   7.618   3.839
 5579WAT     H116979   8.353   7.596   3.769
 5579WAT     H216980   8.202   7.650   3.796
 5580WAT      O16981   8.735   9.774   6.885
 5580WAT     H116982   8.700   9.722   6.964
 5580WAT     H216983   8.658   9.803   6.829
 5581WAT      O16984   4.832   9.790   9.492
 5581WAT     H116985   4.838   9.810   9.394
 5581WAT     H216986   4.755   9.729   9.509
 5582WAT      O16987   1.352   9.833   6.835
 5582WAT     H116988   1.319   9.827   6.929
 5582WAT     H216989   1.276   9.860   6.776
 5583WAT      O16990   1.577   4.638   9.878
 5583WAT     H116991   1.609   4.607   9.788
 5583WAT     H216992   1.656   4.658   9.936
 5584WAT      O16993   0.397   0.711   0.191
 5584WAT     H116994   0.380   0.653   0.271
 5584WAT     H216995   0.455   0.661   0.126
 5585WAT      O16996   4.988   3.691   7.860
 5585WAT     H116997   5.032   3.662   7.945
 5585WAT     H216998   5.057   3.695   7.787
 5586WAT      O16999   2.204   8.614   7.960
 5586WAT     H117000   2.120   8.655   7.924
 5586WAT     H217001   2.251   8.681   8.018
 5587WAT      O17002   2.090   0.545   9.878
 5587WAT     H117003   2.025   0.489   9.929
 5587WAT     H217004   2.170   0.490   9.853
 5588WAT      O17005   4.985   6.951   4.551
 5588WAT     H117006   4.885   6.962   4.552
 5588WAT     H217007   5.025   7.002   4.627
 5589WAT      O17008   9.280   7.253   9.395
 5589WAT     H117009   9.331   7.193   9.333
 5589WAT     H217010   9.269   7.208   9.484
 5590WAT      O17011   0.960   8.139   6.649
 5590WAT     H117012   1.054   8.124   6.619
 5590WAT     H217013   0.955   8.132   6.748
 5591WAT      O17014   9.469   5.687   3.904
 5591WAT     H117015   9.372   5.667   3.923
 5591WAT     H217016   9.487   5.671   3.807
 5592WAT      O17017   1.734   2.710   6.380
 5592WAT     H117018   1.744   2.804   6.347
 5592WAT     H217019   1.724   2.648   6.302
 5593WAT      O17020   4.098   1.714   3.799
 5593WAT     H117021   4.128   1.675   3.712
 5593WAT     H217022   4.075   1.639   3.862
 5594WAT      O17023   7.440   8.658   5.375
 5594WAT     H117024   7.534   8.635   5.401
 5594WAT     H217025   7.413   8.601   5.298
 5595WAT      O17026   7.369   1.401   4.448
 5595WAT     H117027   7.276   1.365   4.454
 5595WAT     H217028   7.432   1.339   4.495
 5596WAT      O17029   7.259   9.482   7.497
 5596WAT     H117030   7.195   9.519   7.564
 5596WAT     H217031   7.353   9.506   7.523
 5597WAT      O17032   3.794   1.627   6.863
 5597WAT     H117033   3.729   1.678   6.807
 5597WAT     H217034   3.774   1.644   6.960
 5598WAT      O17035   1.233   6.975   6.616
 5598WAT     H117036   1.201   6.892   6.662
 5598WAT     H217037   1.208   7.055   6.670
 5599WAT      O17038   0.647   8.094   1.441
 5599WAT     H117039   0.589   8.027   1.488
 5599WAT     H217040   0.715   8.047   1.385
 5600WAT      O17041   4.095   8.299   8.787
 5600WAT     H117042   4.168   8.238   8.758
 5600WAT     H217043   4.042   8.328   8.707
 5601WAT      O17044   9.365   3.436   5.400
 5601WAT     H117045   9.411   3.348   5.419
 5601WAT     H217046   9.369   3.455   5.302
 5602WAT      O17047   9.113   3.859   7.306
 5602WAT     H117048   9.070   3.938   7.263
 5602WAT     H217049   9.044   3.809   7.360
 5603WAT      O17050   7.895   1.516   0.375
 5603WAT     H117051   7.905   1.424   0.413
 5603WAT     H217052   7.985   1.549   0.345
 5604WAT      O17053   7.269   5.167   0.954
 5604WAT     H117054   7.329   5.193   0.879
 5604WAT     H217055   7.196   5.235   0.964
 5605WAT      O17056   1.444   0.862   1.881
 5605WAT     H117057   1.365   0.836   1.826
 5605WAT     H217058   1.438   0.959   1.904
 5606WAT      O17059   0.730   1.251   0.977
 5606WAT     H117060   0.679   1.219   0.898
 5606WAT     H217061   0.771   1.173   1.024
 5607WAT      O17062   1.482   6.312   5.753
 5607WAT     H117063   1.499   6.403   5.792
 5607WAT     H217064   1.498   6.242   5.822
 5608WAT      O17065   9.547   4.854   2.776
 5608WAT     H117066   9.556   4.755   2.775
 5608WAT     H217067   9.516   4.886   2.687
 5609WAT      O17068   1.263   3.394   7.963
 5609WAT     H117069   1.283   3.296   7.973
 5609WAT     H217070   1.348   3.444   7.948
 5610WAT      O17071   7.769   7.432   3.281
 5610WAT     H117072   7.856   7.390   3.307
 5610WAT     H217073   7.737   7.491   3.356
 5611WAT      O17074   8.654   1.053   9.639
 5611WAT     H117075   8.735   1.112   9.638
 5611WAT     H217076   8.662   0.988   9.714
 5612WAT      O17077   1.110   0.604   6.607
 5612WAT     H117078   1.044   0.557   6.549
 5612WAT     H217079   1.143   0.687   6.561
 5613WAT      O17080   8.909   7.427   8.601
 5613WAT     H117081   8.874   7.519   8.617
 5613WAT     H217082   8.845   7.377   8.543
 5614WAT      O17083   8.433   1.679   4.082
 5614WAT     H117084   8.467   1.712   3.994
 5614WAT     H217085   8.381   1.751   4.128
 5615WAT      O17086   2.289   1.111   5.498
 5615WAT     H117087   2.347   1.155   5.429
 5615WAT     H217088   2.343   1.045   5.550
 5616WAT      O17089   3.614   3.073   9.750
 5616WAT     H117090   3.636   3.161   9.708
 5616WAT     H217091   3.604   3.004   9.679
 5617WAT      O17092   6.545   7.638   5.442
 5617WAT     H117093   6.564   7.734   5.422
 5617WAT     H217094   6.597   7.609   5.522
 5618WAT      O17095   2.729   5.578   4.571
 5618WAT     H117096   2.797   5.573   4.645
 5618WAT     H217097   2.661   5.506   4.584
 5619WAT      O17098   5.384   0.545   4.789
 5619WAT     H117099   5.442   0.465   4.775
 5619WAT     H217100   5.308   0.543   4.725
 5620WAT      O17101   6.454   3.075   6.660
 5620WAT     H117102   6.427   3.090   6.565
 5620WAT     H217103   6.426   3.153   6.716
 5621WAT      O17104   9.250   4.162   4.961
 5621WAT     H117105   9.292   4.243   4.920
 5621WAT     H217106   9.269   4.082   4.905
 5622WAT      O17107   0.958   7.836   7.237
 5622WAT     H117108   1.020   7.909   7.264
 5622WAT     H217109   0.897   7.869   7.165
 5623WAT      O17110   1.321   5.838   2.427
 5623WAT     H117111   1.350   5.846   2.522
 5623WAT     H217112   1.360   5.913   2.374
 5624WAT      O17113   1.989   9.314   0.022
 5624WAT     H117114   2.059   9.356   0.081
 5624WAT     H217115   1.992   9.215   0.033
 5625WAT      O17116   5.138   5.825   5.825
 5625WAT     H117117   5.090   5.864   5.905
 5625WAT     H217118   5.224   5.873   5.812
 5626WAT      O17119   4.981   1.996   5.302
 5626WAT     H117120   4.947   2.088   5.287
 5626WAT     H217121   5.048   1.973   5.231
 5627WAT      O17122   0.026   2.389   7.576
 5627WAT     H117123  -0.038   2.416   7.648
 5627WAT     H217124  -0.024   2.380   7.489
 5628WAT      O17125   6.214   1.326   5.911
 5628WAT     H117126   6.116   1.335   5.890
 5628WAT     H217127   6.231   1.236   5.951
 5629WAT      O17128   3.334   7.421   5.455
 5629WAT     H117129   3.283   7.337   5.476
 5629WAT     H217130   3.432   7.402   5.454
 5630WAT      O17131   8.184   7.357   8.057
 5630WAT     H117132   8.122   7.428   8.090
 5630WAT     H217133   8.147   7.267   8.080
 5631WAT      O17134   4.114   6.289   7.310
 5631WAT     H117135   4.024   6.322   7.338
 5631WAT     H217136   4.177   6.294   7.388
 5632WAT      O17137   2.073   2.252   0.926
 5632WAT     H117138   1.994   2.268   0.867
 5632WAT     H217139   2.138   2.192   0.878
 5633WAT      O17140   6.811   6.865   4.121
 5633WAT     H117141   6.747   6.814   4.178
 5633WAT     H217142   6.826   6.955   4.161
 5634WAT      O17143   8.060   9.839   7.656
 5634WAT     H117144   8.027   9.795   7.572
 5634WAT     H217145   8.063   9.938   7.643
 5635WAT      O17146   1.060   5.616   9.092
 5635WAT     H117147   1.085   5.642   9.185
 5635WAT     H217148   1.092   5.686   9.028
 5636WAT      O17149   6.886   5.615   2.693
 5636WAT     H117150   6.902   5.594   2.596
 5636WAT     H217151   6.901   5.533   2.747
 5637WAT      O17152   9.861   5.606   0.302
 5637WAT     H117153   9.807   5.601   0.386
 5637WAT     H217154   9.826   5.539   0.236
 5638WAT      O17155   5.055   7.439   7.827
 5638WAT     H117156   5.057   7.339   7.822
 5638WAT     H217157   5.069   7.468   7.922
 5639WAT      O17158   5.159   2.094   0.713
 5639WAT     H117159   5.147   2.182   0.760
 5639WAT     H217160   5.230   2.041   0.760
 5640WAT      O17161   9.121   4.381   1.444
 5640WAT     H117162   9.104   4.286   1.471
 5640WAT     H217163   9.051   4.440   1.484
 5641WAT      O17164   5.841   2.928   0.234
 5641WAT     H117165   5.914   2.960   0.294
 5641WAT     H217166   5.777   2.871   0.287
 5642WAT      O17167   2.165   8.290   9.195
 5642WAT     H117168   2.127   8.201   9.222
 5642WAT     H217169   2.176   8.293   9.096
 5643WAT      O17170   2.642   7.974   4.047
 5643WAT     H117171   2.617   8.059   4.000
 5643WAT     H217172   2.668   7.905   3.979
 5644WAT      O17173   7.298   2.537   6.092
 5644WAT     H117174   7.283   2.447   6.051
 5644WAT     H217175   7.210   2.575   6.122
 5645WAT      O17176   0.226   3.055   6.022
 5645WAT     H117177   0.166   3.056   6.101
 5645WAT     H217178   0.175   3.027   5.941
 5646WAT      O17179   3.922   5.135   1.550
 5646WAT     H117180   3.926   5.105   1.645
 5646WAT     H217181   3.917   5.056   1.489
 5647WAT      O17182   7.971   3.066   2.659
 5647WAT     H117183   8.061   3.032   2.629
 5647WAT     H217184   7.916   2.989   2.691
 5648WAT      O17185   7.729   7.433   4.157
 5648WAT     H117186   7.713   7.527   4.188
 5648WAT     H217187   7.817   7.401   4.192
 5649WAT      O17188   9.417   7.533   7.386
 5649WAT     H117189   9.351   7.562   7.456
 5649WAT     H217190   9.423   7.602   7.315
 5650WAT      O17191   2.806   1.654   3.135
 5650WAT     H117192   2.706   1.653   3.136
 5650WAT     H217193   2.840   1.630   3.225
 5651WAT      O17194   5.646   6.680   5.261
 5651WAT     H117195   5.552   6.677   5.226
 5651WAT     H217196   5.676   6.775   5.267
 5652WAT      O17197   8.625   9.610   1.977
 5652WAT     H117198   8.624   9.697   2.026
 5652WAT     H217199   8.598   9.624   1.882
 5653WAT      O17200   4.478   8.212   5.300
 5653WAT     H117201   4.434   8.297   5.328
 5653WAT     H217202   4.572   8.231   5.269
 5654WAT      O17203   3.068   9.024   0.762
 5654WAT     H117204   3.094   8.932   0.734
 5654WAT     H217205   3.065   9.084   0.681
 5655WAT      O17206   1.201   3.690   8.554
 5655WAT     H117207   1.170   3.647   8.470
 5655WAT     H217208   1.262   3.628   8.603
 5656WAT      O17209   2.590   1.300   9.809
 5656WAT     H117210   2.522   1.331   9.875
 5656WAT     H217211   2.611   1.374   9.745
 5657WAT      O17212   3.458   7.293   7.235
 5657WAT     H117213   3.503   7.337   7.312
 5657WAT     H217214   3.505   7.316   7.150
 5658WAT      O17215   6.924   6.973   0.499
 5658WAT     H117216   6.847   6.927   0.455
 5658WAT     H217217   6.890   7.037   0.568
 5659WAT      O17218   3.998   9.002   8.506
 5659WAT     H117219   3.899   8.993   8.509
 5659WAT     H217220   4.029   9.002   8.411
 5660WAT      O17221   1.057   0.821   6.080
 5660WAT     H117222   1.130   0.784   6.023
 5660WAT     H217223   1.085   0.909   6.118
 5661WAT      O17224   1.230   1.120   9.869
 5661WAT     H117225   1.138   1.160   9.862
 5661WAT     H217226   1.298   1.192   9.861
 5662WAT      O17227   9.159   9.295   8.690
 5662WAT     H117228   9.209   9.371   8.732
 5662WAT     H217229   9.089   9.262   8.753
 5663WAT      O17230   1.100   1.423   0.907
 5663WAT     H117231   1.017   1.478   0.912
 5663WAT     H217232   1.150   1.430   0.993
 5664WAT      O17233   1.980   7.251   5.039
 5664WAT     H117234   1.981   7.153   5.016
 5664WAT     H217235   2.058   7.273   5.097
 5665WAT      O17236   8.062   7.445   2.783
 5665WAT     H117237   7.999   7.522   2.785
 5665WAT     H217238   8.011   7.360   2.799
 5666WAT      O17239   7.065   1.036   3.582
 5666WAT     H117240   7.126   1.041   3.661
 5666WAT     H217241   7.003   1.115   3.583
 5667WAT      O17242   2.025   8.987   8.642
 5667WAT     H117243   2.020   9.087   8.645
 5667WAT     H217244   2.025   8.951   8.735
 5668WAT      O17245   1.667   8.360   0.399
 5668WAT     H117246   1.736   8.414   0.350
 5668WAT     H217247   1.712   8.303   0.468
 5669WAT      O17248   9.674   7.385   8.716
 5669WAT     H117249   9.717   7.296   8.728
 5669WAT     H217250   9.593   7.391   8.775
 5670WAT      O17251   5.322   2.215   1.815
 5670WAT     H117252   5.383   2.220   1.894
 5670WAT     H217253   5.325   2.123   1.776
 5671WAT      O17254   6.882   0.636   7.966
 5671WAT     H117255   6.874   0.635   8.066
 5671WAT     H217256   6.923   0.722   7.937
 5672WAT      O17257   7.386   2.283   8.230
 5672WAT     H117258   7.432   2.349   8.170
 5672WAT     H217259   7.296   2.317   8.255
 5673WAT      O17260   6.670   9.344   1.161
 5673WAT     H117261   6.686   9.368   1.257
 5673WAT     H217262   6.642   9.248   1.155
 5674WAT      O17263   6.341   5.335   9.084
 5674WAT     H117264   6.315   5.418   9.135
 5674WAT     H217265   6.411   5.358   9.017
 5675WAT      O17266   3.114   5.070   0.062
 5675WAT     H117267   3.117   4.983   0.012
 5675WAT     H217268   3.083   5.142   0.000
 5676WAT      O17269   6.465   2.238   3.053
 5676WAT     H117270   6.553   2.191   3.061
 5676WAT     H217271   6.405   2.186   2.992
 5677WAT      O17272   9.439   0.236   7.689
 5677WAT     H117273   9.430   0.145   7.731
 5677WAT     H217274   9.535   0.260   7.682
 5678WAT      O17275   3.734   2.081   5.060
 5678WAT     H117276   3.805   2.107   5.126
 5678WAT     H217277   3.729   2.151   4.988
 5679WAT      O17278   8.764   3.575   7.919
 5679WAT     H117279   8.747   3.507   7.990
 5679WAT     H217280   8.676   3.612   7.888
 5680WAT      O17281   4.009   5.982   6.459
 5680WAT     H117282   3.942   5.908   6.450
 5680WAT     H217283   3.964   6.063   6.498
 5681WAT      O17284   6.459   3.909   8.872
 5681WAT     H117285   6.491   4.002   8.858
 5681WAT     H217286   6.483   3.853   8.793
 5682WAT      O17287   8.165   4.732   7.847
 5682WAT     H117288   8.095   4.783   7.798
 5682WAT     H217289   8.187   4.648   7.797
 5683WAT      O17290   5.807   0.518   3.257
 5683WAT     H117291   5.739   0.521   3.330
 5683WAT     H217292   5.793   0.435   3.202
 5684WAT      O17293   1.241   3.075   2.262
 5684WAT     H117294   1.191   3.045   2.344
 5684WAT     H217295   1.200   3.031   2.181
 5685WAT      O17296   4.710   1.740   0.071
 5685WAT     H117297   4.686   1.803  -0.002
 5685WAT     H217298   4.707   1.787   0.159
 5686WAT      O17299   9.109   0.444   3.199
 5686WAT     H117300   9.190   0.407   3.155
 5686WAT     H217301   9.051   0.488   3.131
 5687WAT      O17302   0.017   5.828   7.977
 5687WAT     H117303  -0.005   5.735   7.947
 5687WAT     H217304   0.050   5.881   7.899
 5688WAT      O17305   1.797   1.216   1.305
 5688WAT     H117306   1.821   1.310   1.278
 5688WAT     H217307   1.880   1.166   1.328
 5689WAT      O17308   6.743   0.266   4.256
 5689WAT     H117309   6.714   0.174   4.230
 5689WAT     H217310   6.804   0.303   4.186
 5690WAT      O17311   6.678   6.111   0.755
 5690WAT     H117312   6.674   6.207   0.781
 5690WAT     H217313   6.628   6.098   0.669
 5691WAT      O17314   8.961   9.424   4.933
 5691WAT     H117315   9.014   9.425   4.848
 5691WAT     H217316   9.015   9.468   5.005
 5692WAT      O17317   8.843   1.506   1.615
 5692WAT     H117318   8.836   1.549   1.705
 5692WAT     H217319   8.835   1.407   1.624
 5693WAT      O17320   9.839   1.260   8.660
 5693WAT     H117321   9.785   1.342   8.674
 5693WAT     H217322   9.833   1.231   8.565
 5694WAT      O17323   3.515   7.094   5.336
 5694WAT     H117324   3.609   7.100   5.301
 5694WAT     H217325   3.516   7.061   5.430
 5695WAT      O17326   1.613   7.199   1.502
 5695WAT     H117327   1.571   7.264   1.438
 5695WAT     H217328   1.578   7.217   1.594
 5696WAT      O17329   2.219   3.888   4.575
 5696WAT     H117330   2.202   3.932   4.663
 5696WAT     H217331   2.232   3.958   4.504
 5697WAT      O17332   4.274   1.683   4.680
 5697WAT     H117333   4.369   1.704   4.703
 5697WAT     H217334   4.217   1.691   4.761
 5698WAT      O17335   9.719   9.555   4.515
 5698WAT     H117336   9.804   9.604   4.494
 5698WAT     H217337   9.740   9.467   4.556
 5699WAT      O17338   7.130   6.918   6.048
 5699WAT     H117339   7.068   6.843   6.071
 5699WAT     H217340   7.136   6.982   6.125
 5700WAT      O17341   6.820   9.377   0.284
 5700WAT     H117342   6.893   9.374   0.352
 5700WAT     H217343   6.781   9.469   0.280
 5701WAT      O17344   8.731   2.220   8.410
 5701WAT     H117345   8.810   2.159   8.413
 5701WAT     H217346   8.727   2.274   8.494
 5702WAT      O17347   5.859   2.770   9.258
 5702WAT     H117348   5.906   2.683   9.278
 5702WAT     H217349   5.781   2.780   9.319
 5703WAT      O17350   5.836   1.934   5.876
 5703WAT     H117351   5.821   1.863   5.807
 5703WAT     H217352   5.893   2.006   5.838
 5704WAT      O17353   9.133   5.920   4.812
 5704WAT     H117354   9.127   5.903   4.714
 5704WAT     H217355   9.182   5.845   4.857
 5705WAT      O17356   1.377   0.452   4.113
 5705WAT     H117357   1.375   0.395   4.195
 5705WAT     H217358   1.408   0.544   4.136
 5706WAT      O17359   9.082   8.619   7.977
 5706WAT     H117360   9.125   8.703   7.946
 5706WAT     H217361   9.115   8.542   7.922
 5707WAT      O17362   1.574   4.414   1.732
 5707WAT     H117363   1.645   4.363   1.685
 5707WAT     H217364   1.532   4.357   1.803
 5708WAT      O17365   2.557   7.849   1.135
 5708WAT     H117366   2.577   7.938   1.096
 5708WAT     H217367   2.617   7.833   1.213
 5709WAT      O17368   7.445   7.288   7.979
 5709WAT     H117369   7.405   7.376   7.952
 5709WAT     H217370   7.502   7.301   8.060
 5710WAT      O17371   5.875   5.459   3.754
 5710WAT     H117372   5.885   5.556   3.779
 5710WAT     H217373   5.845   5.407   3.835
 5711WAT      O17374   8.736   5.735   4.096
 5711WAT     H117375   8.730   5.737   4.196
 5711WAT     H217376   8.660   5.681   4.059
 5712WAT      O17377   5.773   8.017   0.670
 5712WAT     H117378   5.772   8.049   0.765
 5712WAT     H217379   5.777   8.095   0.609
 5713WAT      O17380   0.751   4.494   1.666
 5713WAT     H117381   0.828   4.534   1.618
 5713WAT     H217382   0.760   4.394   1.668
 5714WAT      O17383   5.424   7.036   2.732
 5714WAT     H117384   5.518   7.034   2.698
 5714WAT     H217385   5.414   6.970   2.807
 5715WAT      O17386   4.224   7.168   3.469
 5715WAT     H117387   4.222   7.114   3.553
 5715WAT     H217388   4.299   7.136   3.410
 5716WAT      O17389   6.233   7.676   3.519
 5716WAT     H117390   6.259   7.756   3.574
 5716WAT     H217391   6.139   7.688   3.486
 5717WAT      O17392   4.924   8.006   5.533
 5717WAT     H117393   5.022   7.990   5.547
 5717WAT     H217394   4.881   7.921   5.504
 5718WAT      O17395   3.733   2.293   8.401
 5718WAT     H117396   3.681   2.348   8.335
 5718WAT     H217397   3.753   2.204   8.362
 5719WAT      O17398   6.997   2.847   6.909
 5719WAT     H117399   6.907   2.890   6.914
 5719WAT     H217400   7.042   2.853   6.998
 5720WAT      O17401   1.883   6.001   3.206
 5720WAT     H117402   1.907   6.098   3.215
 5720WAT     H217403   1.962   5.945   3.232
 5721WAT      O17404   9.266   0.714   2.987
 5721WAT     H117405   9.185   0.658   2.975
 5721WAT     H217406   9.316   0.686   3.069
 5722WAT      O17407   7.598   5.335   5.864
 5722WAT     H117408   7.659   5.408   5.833
 5722WAT     H217409   7.524   5.323   5.797
 5723WAT      O17410   0.488   6.573   1.569
 5723WAT     H117411   0.522   6.579   1.476
 5723WAT     H217412   0.404   6.628   1.577
 5724WAT      O17413   2.268   5.950   8.373
 5724WAT     H117414   2.329   5.940   8.452
 5724WAT     H217415   2.322   5.966   8.291
 5725WAT      O17416   2.845   7.125   8.804
 5725WAT     H117417   2.772   7.155   8.743
 5725WAT     H217418   2.850   7.025   8.804
 5726WAT      O17419   1.417   0.355   6.825
 5726WAT     H117420   1.431   0.391   6.917
 5726WAT     H217421   1.451   0.421   6.758
 5727WAT      O17422   1.612   3.288   0.544
 5727WAT     H117423   1.690   3.348   0.524
 5727WAT     H217424   1.638   3.222   0.614
 5728WAT      O17425   8.845   6.470   5.487
 5728WAT     H117426   8.807   6.425   5.407
 5728WAT     H217427   8.840   6.408   5.565
 5729WAT      O17428   7.992   6.174   5.623
 5729WAT     H117429   7.997   6.087   5.574
 5729WAT     H217430   8.084   6.211   5.635
 5730WAT      O17431   3.569   5.001   5.251
 5730WAT     H117432   3.665   4.974   5.255
 5730WAT     H217433   3.517   4.950   5.320
 5731WAT      O17434   8.970   3.368   0.265
 5731WAT     H117435   8.962   3.270   0.286
 5731WAT     H217436   9.067   3.393   0.264
 5732WAT      O17437   0.347   6.337   9.465
 5732WAT     H117438   0.375   6.421   9.417
 5732WAT     H217439   0.388   6.258   9.419
 5733WAT      O17440   3.434   6.587   7.207
 5733WAT     H117441   3.418   6.583   7.306
 5733WAT     H217442   3.467   6.678   7.182
 5734WAT      O17443   2.212   6.922   3.205
 5734WAT     H117444   2.241   6.837   3.163
 5734WAT     H217445   2.265   6.998   3.166
 5735WAT      O17446   0.358   3.389   9.007
 5735WAT     H117447   0.432   3.323   9.014
 5735WAT     H217448   0.270   3.344   9.024
 5736WAT      O17449   2.921   0.844   6.606
 5736WAT     H117450   2.962   0.824   6.517
 5736WAT     H217451   2.835   0.793   6.616
 5737WAT      O17452   8.133   1.644   0.348
 5737WAT     H117453   8.173   1.602   0.430
 5737WAT     H217454   8.066   1.712   0.375
 5738WAT      O17455   8.729   3.240   8.745
 5738WAT     H117456   8.716   3.188   8.829
 5738WAT     H217457   8.652   3.302   8.731
 5739WAT      O17458   8.956   7.388   8.877
 5739WAT     H117459   8.960   7.370   8.779
 5739WAT     H217460   8.870   7.351   8.914
 5740WAT      O17461   0.446   3.754   8.154
 5740WAT     H117462   0.485   3.844   8.177
 5740WAT     H217463   0.512   3.683   8.176
 5741WAT      O17464   5.108   2.818   2.788
 5741WAT     H117465   5.134   2.722   2.780
 5741WAT     H217466   5.161   2.873   2.723
 5742WAT      O17467   6.032   5.924   6.401
 5742WAT     H117468   6.056   5.975   6.318
 5742WAT     H217469   6.077   5.967   6.480
 5743WAT      O17470   5.535   5.345   5.792
 5743WAT     H117471   5.576   5.292   5.718
 5743WAT     H217472   5.587   5.430   5.805
 5744WAT      O17473   9.864   7.366   0.580
 5744WAT     H117474   9.937   7.423   0.541
 5744WAT     H217475   9.778   7.417   0.578
 5745WAT      O17476   1.060   7.583   5.321
 5745WAT     H117477   1.042   7.571   5.223
 5745WAT     H217478   1.093   7.676   5.338
 5746WAT      O17479   9.339   3.796   1.198
 5746WAT     H117480   9.341   3.830   1.104
 5746WAT     H217481   9.301   3.703   1.199
 5747WAT      O17482   3.718   4.380   0.206
 5747WAT     H117483   3.805   4.430   0.208
 5747WAT     H217484   3.663   4.407   0.285
 5748WAT      O17485   0.702   9.115   7.759
 5748WAT     H117486   0.652   9.202   7.754
 5748WAT     H217487   0.717   9.092   7.855
 5749WAT      O17488   1.330   4.113   7.689
 5749WAT     H117489   1.324   4.133   7.786
 5749WAT     H217490   1.328   4.198   7.637
 5750WAT      O17491   5.342   4.582   9.172
 5750WAT     H117492   5.416   4.614   9.113
 5750WAT     H217493   5.356   4.618   9.264
 5751WAT      O17494   6.402   9.230   8.563
 5751WAT     H117495   6.308   9.246   8.593
 5751WAT     H217496   6.430   9.138   8.589
 5752WAT      O17497   7.882   5.326   6.214
 5752WAT     H117498   7.890   5.412   6.264
 5752WAT     H217499   7.866   5.345   6.117
 5753WAT      O17500   3.727   2.618   6.109
 5753WAT     H117501   3.686   2.699   6.150
 5753WAT     H217502   3.748   2.551   6.180
 5754WAT      O17503   9.668   0.364   8.070
 5754WAT     H117504   9.704   0.413   8.150
 5754WAT     H217505   9.629   0.430   8.006
 5755WAT      O17506   4.170   5.165   9.492
 5755WAT     H117507   4.248   5.111   9.524
 5755WAT     H217508   4.119   5.113   9.423
 5756WAT      O17509   4.018   0.716   2.770
 5756WAT     H117510   4.032   0.761   2.858
 5756WAT     H217511   3.971   0.629   2.784
 5757WAT      O17512   7.488   9.644   7.678
 5757WAT     H117513   7.437   9.719   7.635
 5757WAT     H217514   7.431   9.600   7.748
 5758WAT      O17515   3.436   7.314   9.385
 5758WAT     H117516   3.382   7.394   9.408
 5758WAT     H217517   3.413   7.283   9.293
 5759WAT      O17518   4.708   6.112   8.100
 5759WAT     H117519   4.770   6.182   8.133
 5759WAT     H217520   4.745   6.022   8.121
 5760WAT      O17521   7.438   1.519   5.287
 5760WAT     H117522   7.454   1.421   5.302
 5760WAT     H217523   7.524   1.564   5.261
 5761WAT      O17524   6.283   2.841   8.836
 5761WAT     H117525   6.329   2.842   8.746
 5761WAT     H217526   6.184   2.846   8.823
 5762WAT      O17527   5.698   1.480   2.562
 5762WAT     H117528   5.755   1.541   2.507
 5762WAT     H217529   5.681   1.522   2.651
 5763WAT      O17530   0.543   5.546   9.550
 5763WAT     H117531   0.580   5.510   9.464
 5763WAT     H217532   0.561   5.645   9.554
 5764WAT      O17533   5.485   7.921   6.522
 5764WAT     H117534   5.583   7.926   6.503
 5764WAT     H217535   5.458   7.827   6.541
 5765WAT      O17536   1.987   7.784   6.177
 5765WAT     H117537   1.893   7.812   6.156
 5765WAT     H217538   1.988   7.688   6.203
 5766WAT      O17539   0.836   6.127   9.621
 5766WAT     H117540   0.927   6.088   9.604
 5766WAT     H217541   0.798   6.161   9.536
 5767WAT      O17542   5.431   6.747   6.905
 5767WAT     H117543   5.372   6.678   6.864
 5767WAT     H217544   5.519   6.705   6.929
 5768WAT      O17545   2.316   2.357   1.375
 5768WAT     H117546   2.237   2.414   1.353
 5768WAT     H217547   2.303   2.266   1.335
 5769WAT      O17548   8.296   5.046   6.404
 5769WAT     H117549   8.258   5.107   6.335
 5769WAT     H217550   8.280   5.085   6.495
 5770WAT      O17551   1.535   4.952   7.700
 5770WAT     H117552   1.542   5.019   7.626
 5770WAT     H217553   1.458   4.977   7.759
 5771WAT      O17554   0.913   6.130   7.778
 5771WAT     H117555   0.860   6.172   7.704
 5771WAT     H217556   0.960   6.200   7.830
 5772WAT      O17557   6.925   1.254   9.323
 5772WAT     H117558   6.865   1.250   9.243
 5772WAT     H217559   6.907   1.339   9.374
 5773WAT      O17560   8.453   2.298   6.399
 5773WAT     H117561   8.539   2.267   6.439
 5773WAT     H217562   8.395   2.338   6.470
 5774WAT      O17563   4.902   9.126   4.441
 5774WAT     H117564   4.920   9.209   4.388
 5774WAT     H217565   4.966   9.055   4.413
 5775WAT      O17566   3.751   1.548   7.836
 5775WAT     H117567   3.776   1.576   7.744
 5775WAT     H217568   3.693   1.466   7.832
 5776WAT      O17569   9.423   6.888   5.642
 5776WAT     H117570   9.425   6.922   5.736
 5776WAT     H217571   9.437   6.789   5.642
 5777WAT      O17572   8.017   6.887   9.729
 5777WAT     H117573   7.989   6.972   9.773
 5777WAT     H217574   8.117   6.883   9.724
 5778WAT      O17575   9.381   1.392   1.152
 5778WAT     H117576   9.334   1.314   1.194
 5778WAT     H217577   9.422   1.364   1.066
 5779WAT      O17578   6.921   0.410   4.089
 5779WAT     H117579   6.856   0.461   4.033
 5779WAT     H217580   7.013   0.419   4.050
 5780WAT      O17581   6.801   7.518   6.468
 5780WAT     H117582   6.859   7.568   6.532
 5780WAT     H217583   6.708   7.515   6.503
 5781WAT      O17584   8.940   6.678   8.383
 5781WAT     H117585   8.993   6.617   8.440
 5781WAT     H217586   8.843   6.663   8.399
 5782WAT      O17587   9.157   1.920   3.374
 5782WAT     H117588   9.105   1.966   3.302
 5782WAT     H217589   9.220   1.854   3.333
 5783WAT      O17590   1.342   0.412   4.623
 5783WAT     H117591   1.360   0.381   4.717
 5783WAT     H217592   1.419   0.467   4.591
 5784WAT      O17593   5.943   0.585   7.495
 5784WAT     H117594   5.888   0.504   7.471
 5784WAT     H217595   5.897   0.667   7.461
 5785WAT      O17596   5.397   8.434   6.130
 5785WAT     H117597   5.298   8.449   6.130
 5785WAT     H217598   5.417   8.343   6.165
 5786WAT      O17599   0.247   0.480   9.782
 5786WAT     H117600   0.177   0.444   9.720
 5786WAT     H217601   0.297   0.553   9.736
 5787WAT      O17602   0.469   6.788   8.910
 5787WAT     H117603   0.410   6.868   8.894
 5787WAT     H217604   0.549   6.815   8.963
 5788WAT      O17605   8.747   3.062   6.586
 5788WAT     H117606   8.750   2.996   6.511
 5788WAT     H217607   8.739   3.154   6.550
 5789WAT      O17608   4.702   2.774   5.724
 5789WAT     H117609   4.690   2.849   5.790
 5789WAT     H217610   4.618   2.766   5.669
 5790WAT      O17611   3.782   8.261   7.571
 5790WAT     H117612   3.803   8.206   7.491
 5790WAT     H217613   3.860   8.320   7.593
 5791WAT      O17614   3.170   9.791   0.462
 5791WAT     H117615   3.191   9.720   0.394
 5791WAT     H217616   3.220   9.772   0.547
 5792WAT      O17617   5.362   2.770   7.879
 5792WAT     H117618   5.348   2.868   7.896
 5792WAT     H217619   5.277   2.729   7.845
 5793WAT      O17620   5.733   1.346   8.481
 5793WAT     H117621   5.762   1.257   8.445
 5793WAT     H217622   5.809   1.410   8.477
 5794WAT      O17623   3.187   1.194   1.643
 5794WAT     H117624   3.165   1.129   1.716
 5794WAT     H217625   3.280   1.179   1.611
 5795WAT      O17626   7.498   7.996   1.562
 5795WAT     H117627   7.478   8.047   1.646
 5795WAT     H217628   7.578   8.036   1.518
 5796WAT      O17629   8.716   6.862   3.360
 5796WAT     H117630   8.730   6.917   3.442
 5796WAT     H217631   8.733   6.917   3.279
 5797WAT      O17632   8.683   6.385   2.400
 5797WAT     H117633   8.685   6.298   2.351
 5797WAT     H217634   8.735   6.377   2.485
 5798WAT      O17635   4.884   2.523   6.469
 5798WAT     H117636   4.868   2.524   6.568
 5798WAT     H217637   4.803   2.489   6.422
 5799WAT      O17638   3.946   0.102   6.042
 5799WAT     H117639   3.879   0.176   6.050
 5799WAT     H217640   3.899   0.018   6.013
 5800WAT      O17641   7.804   7.353   0.862
 5800WAT     H117642   7.893   7.394   0.843
 5800WAT     H217643   7.808   7.300   0.947
 5801WAT      O17644   0.067   5.373   8.139
 5801WAT     H117645   0.160   5.354   8.108
 5801WAT     H217646   0.070   5.428   8.223
 5802WAT      O17647   3.261   2.140   1.953
 5802WAT     H117648   3.276   2.165   2.049
 5802WAT     H217649   3.313   2.057   1.932
 5803WAT      O17650   4.034   4.397   7.935
 5803WAT     H117651   3.968   4.323   7.945
 5803WAT     H217652   4.048   4.442   8.024
 5804WAT      O17653   4.560   5.834   8.466
 5804WAT     H117654   4.530   5.861   8.558
 5804WAT     H217655   4.499   5.764   8.430
 5805WAT      O17656   7.497   3.170   7.111
 5805WAT     H117657   7.562   3.096   7.128
 5805WAT     H217658   7.547   3.256   7.098
 5806WAT      O17659   4.175   7.447   2.020
 5806WAT     H117660   4.207   7.468   2.112
 5806WAT     H217661   4.252   7.422   1.961
 5807WAT      O17662   3.012   6.936   3.808
 5807WAT     H117663   2.961   6.851   3.799
 5807WAT     H217664   2.952   7.007   3.843
 5808WAT      O17665   4.903   4.921   6.922
 5808WAT     H117666   4.910   4.899   7.019
 5808WAT     H217667   4.816   4.968   6.905
 5809WAT      O17668   3.951   6.128   2.358
 5809WAT     H117669   3.900   6.045   2.381
 5809WAT     H217670   3.895   6.208   2.378
 5810WAT      O17671   5.734   6.796   0.567
 5810WAT     H117672   5.640   6.799   0.603
 5810WAT     H217673   5.730   6.799   0.467
 5811WAT      O17674   6.650   1.036   2.323
 5811WAT     H117675   6.630   0.943   2.292
 5811WAT     H217676   6.573   1.096   2.299
 5812WAT      O17677   2.112   1.671   7.367
 5812WAT     H117678   2.078   1.601   7.305
 5812WAT     H217679   2.058   1.754   7.356
 5813WAT      O17680   2.196   8.474   7.214
 5813WAT     H117681   2.266   8.430   7.271
 5813WAT     H217682   2.162   8.408   7.147
 5814WAT      O17683   2.863   1.424   6.839
 5814WAT     H117684   2.858   1.408   6.938
 5814WAT     H217685   2.903   1.345   6.794
 5815WAT      O17686   0.939   8.270   6.930
 5815WAT     H117687   0.880   8.347   6.954
 5815WAT     H217688   1.034   8.300   6.927
 5816WAT      O17689   6.091   5.072   4.533
 5816WAT     H117690   5.993   5.072   4.511
 5816WAT     H217691   6.108   5.009   4.608
 5817WAT      O17692   7.327   1.415   6.661
 5817WAT     H117693   7.403   1.365   6.703
 5817WAT     H217694   7.241   1.369   6.684
 5818WAT      O17695   1.727   6.877   4.932
 5818WAT     H117696   1.719   6.942   4.857
 5818WAT     H217697   1.637   6.863   4.974
 5819WAT      O17698   6.621   9.466   8.640
 5819WAT     H117699   6.669   9.524   8.573
 5819WAT     H217700   6.540   9.427   8.597
 5820WAT      O17701   1.679   1.132   9.419
 5820WAT     H117702   1.702   1.206   9.483
 5820WAT     H217703   1.630   1.170   9.341
 5821WAT      O17704   6.820   3.645   4.532
 5821WAT     H117705   6.840   3.601   4.444
 5821WAT     H217706   6.803   3.743   4.517
 5822WAT      O17707   3.313   2.228   6.496
 5822WAT     H117708   3.325   2.278   6.582
 5822WAT     H217709   3.395   2.174   6.477
 5823WAT      O17710   5.648   5.963   1.429
 5823WAT     H117711   5.680   5.874   1.397
 5823WAT     H217712   5.649   5.965   1.529
 5824WAT      O17713   8.359   6.695   0.707
 5824WAT     H117714   8.404   6.760   0.646
 5824WAT     H217715   8.261   6.693   0.687
 5825WAT      O17716   3.278   7.052   0.081
 5825WAT     H117717   3.271   7.016  -0.012
 5825WAT     H217718   3.271   6.978   0.147
 5826WAT      O17719   0.592   6.101   2.573
 5826WAT     H117720   0.611   6.010   2.536
 5826WAT     H217721   0.541   6.093   2.658
 5827WAT      O17722   0.449   6.136   0.561
 5827WAT     H117723   0.377   6.200   0.591
 5827WAT     H217724   0.410   6.070   0.497
 5828WAT      O17725   7.106   1.275   1.028
 5828WAT     H117726   7.203   1.296   1.037
 5828WAT     H217727   7.052   1.357   1.044
 5829WAT      O17728   1.195   1.696   8.592
 5829WAT     H117729   1.289   1.707   8.561
 5829WAT     H217730   1.154   1.616   8.549
 5830WAT      O17731   1.683   7.928   0.986
 5830WAT     H117732   1.592   7.905   1.021
 5830WAT     H217733   1.716   7.853   0.929
 5831WAT      O17734   6.578   1.914   4.314
 5831WAT     H117735   6.526   1.985   4.361
 5831WAT     H217736   6.637   1.957   4.245
 5832WAT      O17737   3.617   6.634   6.213
 5832WAT     H117738   3.667   6.610   6.130
 5832WAT     H217739   3.575   6.553   6.252
 5833WAT      O17740   6.266   8.053   6.709
 5833WAT     H117741   6.322   8.039   6.628
 5833WAT     H217742   6.174   8.082   6.682
 5834WAT      O17743   5.901   0.992   7.713
 5834WAT     H117744   5.884   0.966   7.808
 5834WAT     H217745   5.997   1.016   7.701
 5835WAT      O17746   9.215   8.967   9.180
 5835WAT     H117747   9.137   8.999   9.126
 5835WAT     H217748   9.240   9.038   9.246
 5836WAT      O17749   2.948   1.889   3.514
 5836WAT     H117750   2.989   1.802   3.540
 5836WAT     H217751   2.878   1.873   3.444
 5837WAT      O17752   7.083   0.782   2.493
 5837WAT     H117753   7.133   0.868   2.498
 5837WAT     H217754   7.002   0.787   2.551
 5838WAT      O17755   9.180   7.209   6.431
 5838WAT     H117756   9.133   7.286   6.386
 5838WAT     H217757   9.242   7.244   6.500
 5839WAT      O17758   4.838   4.490   1.896
 5839WAT     H117759   4.905   4.509   1.968
 5839WAT     H217760   4.767   4.560   1.896
 5840WAT      O17761   9.290   6.091   5.942
 5840WAT     H117762   9.199   6.065   5.972
 5840WAT     H217763   9.288   6.185   5.907
 5841WAT      O17764   4.304   2.034   1.320
 5841WAT     H117765   4.325   1.962   1.388
 5841WAT     H217766   4.311   1.995   1.228
 5842WAT      O17767   2.932   6.222   1.729
 5842WAT     H117768   2.872   6.290   1.769
 5842WAT     H217769   2.986   6.263   1.655
 5843WAT      O17770   9.019   3.625   1.261
 5843WAT     H117771   9.007   3.656   1.166
 5843WAT     H217772   9.098   3.565   1.266
 5844WAT      O17773   5.080   6.683   3.542
 5844WAT     H117774   5.037   6.642   3.462
 5844WAT     H217775   5.078   6.617   3.618
 5845WAT      O17776   9.563   1.497   1.972
 5845WAT     H117777   9.583   1.594   1.956
 5845WAT     H217778   9.638   1.441   1.935
 5846WAT      O17779   5.378   6.171   7.261
 5846WAT     H117780   5.334   6.127   7.182
 5846WAT     H217781   5.334   6.258   7.279
 5847WAT      O17782   8.508   6.445   3.945
 5847WAT     H117783   8.452   6.405   4.017
 5847WAT     H217784   8.460   6.437   3.857
 5848WAT      O17785   3.183   4.042   7.732
 5848WAT     H117786   3.177   4.057   7.633
 5848WAT     H217787   3.118   3.971   7.759
 5849WAT      O17788   9.208   6.520   1.915
 5849WAT     H117789   9.259   6.440   1.882
 5849WAT     H217790   9.134   6.490   1.976
 5850WAT      O17791   7.015   9.510   5.481
 5850WAT     H117792   7.101   9.507   5.430
 5850WAT     H217793   7.029   9.477   5.574
 5851WAT      O17794   2.952   1.432   9.190
 5851WAT     H117795   2.941   1.456   9.286
 5851WAT     H217796   2.980   1.512   9.138
 5852WAT      O17797   8.211   6.611   2.000
 5852WAT     H117798   8.173   6.643   1.914
 5852WAT     H217799   8.147   6.547   2.044
 5853WAT      O17800   3.732   0.033   6.937
 5853WAT     H117801   3.784   0.058   7.018
 5853WAT     H217802   3.639   0.070   6.945
 5854WAT      O17803   7.763   4.069   3.773
 5854WAT     H117804   7.697   4.129   3.726
 5854WAT     H217805   7.729   3.975   3.772
 5855WAT      O17806   5.056   0.687   8.723
 5855WAT     H117807   5.017   0.611   8.775
 5855WAT     H217808   5.103   0.651   8.642
 5856WAT      O17809   3.106   4.124   8.622
 5856WAT     H117810   3.139   4.069   8.546
 5856WAT     H217811   3.042   4.071   8.677
 5857WAT      O17812   6.571   7.464   3.025
 5857WAT     H117813   6.552   7.380   3.075
 5857WAT     H217814   6.628   7.524   3.082
 5858WAT      O17815   4.019   2.472   0.713
 5858WAT     H117816   3.954   2.479   0.638
 5858WAT     H217817   3.971   2.480   0.800
 5859WAT      O17818   8.517   6.196   0.673
 5859WAT     H117819   8.514   6.137   0.753
 5859WAT     H217820   8.461   6.157   0.600
 5860WAT      O17821   5.508   6.776   4.870
 5860WAT     H117822   5.520   6.796   4.772
 5860WAT     H217823   5.550   6.848   4.924
 5861WAT      O17824   1.870   3.140   8.190
 5861WAT     H117825   1.967   3.134   8.215
 5861WAT     H217826   1.835   3.048   8.170
 5862WAT      O17827   0.999   4.593   1.571
 5862WAT     H117828   1.061   4.562   1.642
 5862WAT     H217829   1.040   4.575   1.481
 5863WAT      O17830   6.895   8.844   5.665
 5863WAT     H117831   6.798   8.849   5.689
 5863WAT     H217832   6.908   8.874   5.571
 5864WAT      O17833   4.350   7.519   7.734
 5864WAT     H117834   4.391   7.537   7.645
 5864WAT     H217835   4.411   7.549   7.806
 5865WAT      O17836   1.772   1.785   7.912
 5865WAT     H117837   1.731   1.702   7.874
 5865WAT     H217838   1.705   1.859   7.909
 5866WAT      O17839   6.372   1.713   3.076
 5866WAT     H117840   6.418   1.709   2.987
 5866WAT     H217841   6.419   1.778   3.135
 5867WAT      O17842   6.999   2.601   0.400
 5867WAT     H117843   6.977   2.679   0.459
 5867WAT     H217844   7.094   2.574   0.414
 5868WAT      O17845   4.584   8.409   1.012
 5868WAT     H117846   4.584   8.323   0.962
 5868WAT     H217847   4.634   8.479   0.961
 5869WAT      O17848   9.538   5.094   6.311
 5869WAT     H117849   9.539   5.184   6.267
 5869WAT     H217850   9.515   5.104   6.407
 5870WAT      O17851   1.666   3.923   9.547
 5870WAT     H117852   1.597   3.988   9.581
 5870WAT     H217853   1.755   3.969   9.544
 5871WAT      O17854   9.041   5.242   2.949
 5871WAT     H117855   9.041   5.235   3.049
 5871WAT     H217856   9.113   5.185   2.911
 5872WAT      O17857   1.931   0.303   8.757
 5872WAT     H117858   1.855   0.362   8.731
 5872WAT     H217859   1.929   0.287   8.856
 5873WAT      O17860   1.877   6.039   7.988
 5873WAT     H117861   1.821   6.008   7.911
 5873WAT     H217862   1.937   5.965   8.018
 5874WAT      O17863   5.112   3.318   0.473
 5874WAT     H117864   5.206   3.352   0.476
 5874WAT     H217865   5.068   3.333   0.561
 5875WAT      O17866   6.368   7.270   3.680
 5875WAT     H117867   6.324   7.204   3.741
 5875WAT     H217868   6.300   7.329   3.637
 5876WAT      O17869   6.886   5.713   8.979
 5876WAT     H117870   6.857   5.767   9.058
 5876WAT     H217871   6.983   5.730   8.961
 5877WAT      O17872   7.920   4.900   9.475
 5877WAT     H117873   7.943   4.833   9.404
 5877WAT     H217874   7.851   4.964   9.439
 5878WAT      O17875   7.772   7.659   9.792
 5878WAT     H117876   7.702   7.610   9.739
 5878WAT     H217877   7.727   7.724   9.854
 5879WAT      O17878   5.046   9.571   5.259
 5879WAT     H117879   5.128   9.541   5.308
 5879WAT     H217880   5.053   9.547   5.163
 5880WAT      O17881   0.939   9.095   6.365
 5880WAT     H117882   0.892   9.017   6.407
 5880WAT     H217883   0.894   9.180   6.394
 5881WAT      O17884   7.940   8.746   3.164
 5881WAT     H117885   8.034   8.717   3.182
 5881WAT     H217886   7.925   8.754   3.066
 5882WAT      O17887   0.082   0.841   4.400
 5882WAT     H117888   0.106   0.911   4.332
 5882WAT     H217889   0.116   0.752   4.370
 5883WAT      O17890   9.161   6.467   1.161
 5883WAT     H117891   9.242   6.416   1.190
 5883WAT     H217892   9.182   6.565   1.160
 5884WAT      O17893   0.769   4.260   6.085
 5884WAT     H117894   0.764   4.343   6.028
 5884WAT     H217895   0.703   4.266   6.159
 5885WAT      O17896   2.229   0.460   1.366
 5885WAT     H117897   2.131   0.461   1.346
 5885WAT     H217898   2.277   0.414   1.291
 5886WAT      O17899   2.741   7.528   4.737
 5886WAT     H117900   2.673   7.487   4.798
 5886WAT     H217901   2.818   7.562   4.791
 5887WAT      O17902   7.840   0.731   2.886
 5887WAT     H117903   7.881   0.720   2.795
 5887WAT     H217904   7.803   0.823   2.895
 5888WAT      O17905   2.489   6.585   7.126
 5888WAT     H117906   2.446   6.519   7.065
 5888WAT     H217907   2.505   6.671   7.078
 5889WAT      O17908   8.760   2.316   4.796
 5889WAT     H117909   8.819   2.259   4.739
 5889WAT     H217910   8.722   2.391   4.742
 5890WAT      O17911   8.496   3.114   1.737
 5890WAT     H117912   8.478   3.135   1.833
 5890WAT     H217913   8.574   3.052   1.731
 5891WAT      O17914   9.166   1.166   0.899
 5891WAT     H117915   9.255   1.126   0.877
 5891WAT     H217916   9.177   1.264   0.916
 5892WAT      O17917   2.880   8.926   4.419
 5892WAT     H117918   2.872   9.023   4.442
 5892WAT     H217919   2.813   8.902   4.350
 5893WAT      O17920   0.592   4.535   2.220
 5893WAT     H117921   0.578   4.478   2.139
 5893WAT     H217922   0.522   4.607   2.222
 5894WAT      O17923   5.626   2.733   9.792
 5894WAT     H117924   5.716   2.701   9.818
 5894WAT     H217925   5.615   2.829   9.819
 5895WAT      O17926   7.109   6.233   5.222
 5895WAT     H117927   7.066   6.239   5.312
 5895WAT     H217928   7.201   6.196   5.231
 5896WAT      O17929   8.231   7.818   0.302
 5896WAT     H117930   8.203   7.817   0.206
 5896WAT     H217931   8.302   7.748   0.317
 5897WAT      O17932   9.420   4.263   9.233
 5897WAT     H117933   9.416   4.263   9.133
 5897WAT     H217934   9.384   4.177   9.268
 5898WAT      O17935   8.069   2.724   6.512
 5898WAT     H117936   8.098   2.654   6.447
 5898WAT     H217937   7.971   2.740   6.503
 5899WAT      O17938   7.641   6.007   2.854
 5899WAT     H117939   7.600   6.058   2.930
 5899WAT     H217940   7.587   6.024   2.771
 5900WAT      O17941   6.068   7.998   0.203
 5900WAT     H117942   6.142   8.028   0.143
 5900WAT     H217943   6.083   7.904   0.232
 5901WAT      O17944   6.664   0.022   3.838
 5901WAT     H117945   6.739  -0.042   3.825
 5901WAT     H217946   6.699   0.116   3.832
 5902WAT      O17947   1.232   1.278   2.537
 5902WAT     H117948   1.216   1.184   2.568
 5902WAT     H217949   1.179   1.295   2.454
 5903WAT      O17950   1.197   4.337   2.852
 5903WAT     H117951   1.158   4.376   2.769
 5903WAT     H217952   1.277   4.389   2.880
 5904WAT      O17953   0.736   7.791   5.169
 5904WAT     H117954   0.648   7.747   5.183
 5904WAT     H217955   0.780   7.753   5.087
 5905WAT      O17956   5.692   3.525   1.979
 5905WAT     H117957   5.668   3.459   1.908
 5905WAT     H217958   5.677   3.618   1.945
 5906WAT      O17959   3.984   9.156   4.011
 5906WAT     H117960   3.889   9.184   4.000
 5906WAT     H217961   4.044   9.222   3.965
 5907WAT      O17962   9.337   0.452   6.462
 5907WAT     H117963   9.424   0.419   6.423
 5907WAT     H217964   9.291   0.376   6.508
 5908WAT      O17965   4.954   7.692   5.740
 5908WAT     H117966   4.885   7.681   5.811
 5908WAT     H217967   4.995   7.783   5.748
 5909WAT      O17968   5.919   7.752   8.144
 5909WAT     H117969   6.001   7.789   8.187
 5909WAT     H217970   5.879   7.682   8.203
 5910WAT      O17971   0.939   9.679   0.895
 5910WAT     H117972   0.878   9.758   0.906
 5910WAT     H217973   0.888   9.595   0.916
 5911WAT      O17974   4.228   1.560   0.182
 5911WAT     H117975   4.253   1.539   0.277
 5911WAT     H217976   4.296   1.519   0.120
 5912WAT      O17977   6.358   8.468   5.213
 5912WAT     H117978   6.269   8.499   5.180
 5912WAT     H217979   6.426   8.541   5.202
 5913WAT      O17980   0.929   4.570   6.325
 5913WAT     H117981   1.018   4.527   6.343
 5913WAT     H217982   0.868   4.503   6.281
 5914WAT      O17983   9.771   6.508   9.040
 5914WAT     H117984   9.870   6.506   9.058
 5914WAT     H217985   9.738   6.414   9.029
 5915WAT      O17986   3.482   2.498   2.445
 5915WAT     H117987   3.450   2.430   2.379
 5915WAT     H217988   3.442   2.479   2.535
 5916WAT      O17989   6.886   5.544   1.263
 5916WAT     H117990   6.808   5.486   1.282
 5916WAT     H217991   6.855   5.635   1.235
 5917WAT      O17992   6.823   0.987   2.880
 5917WAT     H117993   6.759   0.941   2.818
 5917WAT     H217994   6.773   1.054   2.935
 5918WAT      O17995   8.376   6.936   0.566
 5918WAT     H117996   8.298   6.926   0.505
 5918WAT     H217997   8.453   6.977   0.517
 5919WAT      O17998   6.033   1.046   2.118
 5919WAT     H117999   6.085   1.012   2.196
 5919WAT     H218000   5.936   1.029   2.132
 5920WAT      O18001   1.504   7.250   6.721
 5920WAT     H118002   1.577   7.248   6.653
 5920WAT     H218003   1.471   7.344   6.731
 5921WAT      O18004   3.097   8.814   4.895
 5921WAT     H118005   3.094   8.829   4.796
 5921WAT     H218006   3.024   8.867   4.939
 5922WAT      O18007   9.606   0.045   8.503
 5922WAT     H118008   9.662   0.126   8.519
 5922WAT     H218009   9.624   0.010   8.411
 5923WAT      O18010   8.327   5.820   8.721
 5923WAT     H118011   8.395   5.882   8.760
 5923WAT     H218012   8.242   5.869   8.705
 5924WAT      O18013   6.248   2.448   9.865
 5924WAT     H118014   6.306   2.389   9.922
 5924WAT     H218015   6.296   2.535   9.848
 5925WAT      O18016   6.581   4.489   3.709
 5925WAT     H118017   6.594   4.401   3.663
 5925WAT     H218018   6.485   4.500   3.733
 5926WAT      O18019   3.248   6.882   3.633
 5926WAT     H118020   3.166   6.924   3.671
 5926WAT     H218021   3.228   6.787   3.607
 5927WAT      O18022   0.337   1.008   3.112
 5927WAT     H118023   0.334   0.945   3.190
 5927WAT     H218024   0.259   0.990   3.052
 5928WAT      O18025   2.607   0.042   7.762
 5928WAT     H118026   2.572  -0.024   7.828
 5928WAT     H218027   2.559   0.031   7.675
 5929WAT      O18028   9.291   7.920   1.268
 5929WAT     H118029   9.370   7.859   1.274
 5929WAT     H218030   9.258   7.941   1.360
 5930WAT      O18031   1.449   2.043   1.627
 5930WAT     H118032   1.432   2.122   1.687
 5930WAT     H218033   1.463   1.962   1.683
 5931WAT      O18034   5.490   3.698   1.408
 5931WAT     H118035   5.402   3.672   1.448
 5931WAT     H218036   5.496   3.663   1.314
 5932WAT      O18037   3.321   8.228   3.041
 5932WAT     H118038   3.290   8.227   2.946
 5932WAT     H218039   3.273   8.301   3.091
 5933WAT      O18040   3.110   2.151   7.339
 5933WAT     H118041   3.037   2.119   7.280
 5933WAT     H218042   3.092   2.246   7.366
 5934WAT      O18043   7.113   8.590   2.899
 5934WAT     H118044   7.126   8.632   2.988
 5934WAT     H218045   7.018   8.560   2.890
 5935WAT      O18046   4.409   5.901   5.174
 5935WAT     H118047   4.493   5.925   5.224
 5935WAT     H218048   4.433   5.872   5.081
 5936WAT      O18049   5.528   7.864   3.178
 5936WAT     H118050   5.591   7.937   3.151
 5936WAT     H218051   5.504   7.809   3.098
 5937WAT      O18052   5.053   6.413   5.452
 5937WAT     H118053   4.956   6.436   5.447
 5937WAT     H218054   5.107   6.497   5.457
 5938WAT      O18055   5.153   8.098   2.425
 5938WAT     H118056   5.131   8.178   2.369
 5938WAT     H218057   5.222   8.122   2.493
 5939WAT      O18058   5.270   0.412   8.957
 5939WAT     H118059   5.303   0.319   8.937
 5939WAT     H218060   5.185   0.407   9.008
 5940WAT      O18061   2.898   8.931   6.741
 5940WAT     H118062   2.989   8.955   6.773
 5940WAT     H218063   2.876   8.984   6.659
 5941WAT      O18064   9.811   3.312   2.321
 5941WAT     H118065   9.883   3.242   2.317
 5941WAT     H218066   9.734   3.277   2.375
 5942WAT      O18067   5.138   5.178   2.693
 5942WAT     H118068   5.223   5.230   2.699
 5942WAT     H218069   5.067   5.236   2.653
 5943WAT      O18070   6.721   1.338   6.142
 5943WAT     H118071   6.656   1.342   6.067
 5943WAT     H218072   6.810   1.371   6.111
 5944WAT      O18073   6.101   7.561   6.407
 5944WAT     H118074   6.052   7.640   6.444
 5944WAT     H218075   6.053   7.528   6.326
 5945WAT      O18076   0.075   6.715   4.694
 5945WAT     H118077   0.038   6.696   4.785
 5945WAT     H218078   0.138   6.792   4.700
 5946WAT      O18079   8.048   2.162   1.236
 5946WAT     H118080   8.100   2.090   1.190
 5946WAT     H218081   8.077   2.251   1.200
 5947WAT      O18082   0.063   6.873   6.694
 5947WAT     H118083   0.132   6.885   6.623
 5947WAT     H218084  -0.027   6.897   6.658
 5948WAT      O18085   7.146   8.903   4.919
 5948WAT     H118086   7.197   8.857   4.846
 5948WAT     H218087   7.091   8.835   4.968
 5949WAT      O18088   5.848   5.556   6.168
 5949WAT     H118089   5.918   5.520   6.105
 5949WAT     H218090   5.893   5.592   6.250
 5950WAT      O18091   3.653   7.307   8.021
 5950WAT     H118092   3.640   7.234   7.954
 5950WAT     H218093   3.567   7.323   8.071
 5951WAT      O18094   3.234   4.995   5.520
 5951WAT     H118095   3.228   5.093   5.538
 5951WAT     H218096   3.150   4.950   5.549
 5952WAT      O18097   9.275   5.698   4.323
 5952WAT     H118098   9.186   5.652   4.325
 5952WAT     H218099   9.344   5.634   4.287
 5953WAT      O18100   1.902   2.952   3.839
 5953WAT     H118101   1.922   2.866   3.886
 5953WAT     H218102   1.979   2.977   3.780
 5954WAT      O18103   9.816   8.673   5.783
 5954WAT     H118104   9.860   8.587   5.809
 5954WAT     H218105   9.717   8.658   5.776
 5955WAT      O18106   3.858   9.806   9.768
 5955WAT     H118107   3.833   9.727   9.711
 5955WAT     H218108   3.820   9.794   9.860
 5956WAT      O18109   1.454   8.415   1.477
 5956WAT     H118110   1.398   8.430   1.558
 5956WAT     H218111   1.421   8.334   1.428
 5957WAT      O18112   8.721   4.526   5.178
 5957WAT     H118113   8.669   4.443   5.199
 5957WAT     H218114   8.810   4.521   5.224
 5958WAT      O18115   6.730   9.203   3.045
 5958WAT     H118116   6.768   9.167   3.130
 5958WAT     H218117   6.637   9.168   3.032
 5959WAT      O18118   9.172   6.674   6.029
 5959WAT     H118119   9.247   6.641   6.087
 5959WAT     H218120   9.189   6.769   6.004
 5960WAT      O18121   5.110   5.846   9.663
 5960WAT     H118122   5.063   5.881   9.581
 5960WAT     H218123   5.050   5.856   9.742
 5961WAT      O18124   0.651   8.596   3.324
 5961WAT     H118125   0.649   8.693   3.347
 5961WAT     H218126   0.740   8.558   3.350
 5962WAT      O18127   5.959   7.439   2.079
 5962WAT     H118128   5.878   7.448   2.021
 5962WAT     H218129   6.040   7.467   2.027
 5963WAT      O18130   9.815   8.532   0.258
 5963WAT     H118131   9.890   8.564   0.200
 5963WAT     H218132   9.766   8.458   0.212
 5964WAT      O18133   1.209   1.613   3.535
 5964WAT     H118134   1.125   1.577   3.495
 5964WAT     H218135   1.286   1.555   3.509
 5965WAT      O18136   5.010   3.384   8.007
 5965WAT     H118137   5.036   3.356   7.915
 5965WAT     H218138   5.046   3.476   8.025
 5966WAT      O18139   0.491   6.830   5.298
 5966WAT     H118140   0.578   6.797   5.261
 5966WAT     H218141   0.473   6.922   5.266
 5967WAT      O18142   1.712   0.005   0.319
 5967WAT     H118143   1.665   0.047   0.241
 5967WAT     H218144   1.659   0.023   0.402
 5968WAT      O18145   4.231   7.779   4.169
 5968WAT     H118146   4.267   7.763   4.077
 5968WAT     H218147   4.303   7.764   4.236
 5969WAT      O18148   3.901   8.582   3.068
 5969WAT     H118149   3.916   8.516   3.142
 5969WAT     H218150   3.904   8.674   3.106
 5970WAT      O18151   4.396   9.089   7.146
 5970WAT     H118152   4.368   9.121   7.056
 5970WAT     H218153   4.352   9.000   7.165
 5971WAT      O18154   0.438   3.781   3.476
 5971WAT     H118155   0.413   3.866   3.522
 5971WAT     H218156   0.412   3.703   3.533
 5972WAT      O18157   3.627   6.737   3.194
 5972WAT     H118158   3.683   6.804   3.146
 5972WAT     H218159   3.531   6.749   3.168
 5973WAT      O18160   7.081   3.597   4.142
 5973WAT     H118161   7.117   3.639   4.058
 5973WAT     H218162   7.156   3.582   4.206
 5974WAT      O18163   6.232   8.369   0.042
 5974WAT     H118164   6.302   8.427   0.085
 5974WAT     H218165   6.264   8.340  -0.048
 5975WAT      O18166   1.967   4.304   1.710
 5975WAT     H118167   2.000   4.269   1.797
 5975WAT     H218168   1.899   4.241   1.672
 5976WAT      O18169   4.113   9.687   5.395
 5976WAT     H118170   4.015   9.704   5.382
 5976WAT     H218171   4.165   9.760   5.351
 5977WAT      O18172   8.289   5.475   4.866
 5977WAT     H118173   8.360   5.462   4.935
 5977WAT     H218174   8.235   5.556   4.888
 5978WAT      O18175   0.632   7.889   3.667
 5978WAT     H118176   0.680   7.929   3.745
 5978WAT     H218177   0.697   7.875   3.592
 5979WAT      O18178   3.151   1.304   6.535
 5979WAT     H118179   3.113   1.268   6.621
 5979WAT     H218180   3.126   1.400   6.526
 5980WAT      O18181   4.617   6.627   0.140
 5980WAT     H118182   4.638   6.653   0.234
 5980WAT     H218183   4.641   6.702   0.078
 5981WAT      O18184   1.902   5.252   0.018
 5981WAT     H118185   1.852   5.323  -0.031
 5981WAT     H218186   1.977   5.294   0.070
 5982WAT      O18187   3.557   6.950   3.991
 5982WAT     H118188   3.468   6.906   3.979
 5982WAT     H218189   3.615   6.929   3.912
 5983WAT      O18190   0.279   8.010   3.885
 5983WAT     H118191   0.330   8.006   3.971
 5983WAT     H218192   0.207   7.941   3.887
 5984WAT      O18193   0.751   6.741   5.266
 5984WAT     H118194   0.796   6.654   5.244
 5984WAT     H218195   0.783   6.812   5.205
 5985WAT      O18196   4.323   3.662   8.419
 5985WAT     H118197   4.243   3.661   8.478
 5985WAT     H218198   4.370   3.750   8.427
 5986WAT      O18199   8.920   3.177   3.427
 5986WAT     H118200   8.857   3.181   3.503
 5986WAT     H218201   9.013   3.194   3.459
 5987WAT      O18202   4.915   2.166   2.089
 5987WAT     H118203   5.004   2.181   2.132
 5987WAT     H218204   4.909   2.220   2.005
 5988WAT      O18205   3.343   3.804   6.168
 5988WAT     H118206   3.287   3.788   6.087
 5988WAT     H218207   3.291   3.859   6.234
 5989WAT      O18208   2.990   0.854   6.869
 5989WAT     H118209   2.961   0.947   6.894
 5989WAT     H218210   2.997   0.847   6.769
 5990WAT      O18211   8.812   6.927   7.821
 5990WAT     H118212   8.866   6.998   7.867
 5990WAT     H218213   8.866   6.844   7.812
 5991WAT      O18214   0.432   1.342   0.724
 5991WAT     H118215   0.349   1.397   0.724
 5991WAT     H218216   0.421   1.264   0.786
 5992WAT      O18217   0.354   8.839   0.015
 5992WAT     H118218   0.267   8.790   0.008
 5992WAT     H218219   0.340   8.927   0.061
 5993WAT      O18220   7.314   3.423   7.156
 5993WAT     H118221   7.399   3.393   7.112
 5993WAT     H218222   7.305   3.522   7.146
 5994WAT      O18223   6.443   7.895   2.575
 5994WAT     H118224   6.486   7.813   2.613
 5994WAT     H218225   6.406   7.875   2.484
 5995WAT      O18226   2.211   9.210   1.469
 5995WAT     H118227   2.193   9.152   1.390
 5995WAT     H218228   2.155   9.180   1.546
 5996WAT      O18229   9.712   6.229   1.417
 5996WAT     H118230   9.725   6.138   1.376
 5996WAT     H218231   9.630   6.270   1.379
 5997WAT      O18232   8.995   0.310   4.447
 5997WAT     H118233   9.056   0.239   4.414
 5997WAT     H218234   8.998   0.314   4.547
 5998WAT      O18235   7.447   5.716   0.725
 5998WAT     H118236   7.440   5.807   0.684
 5998WAT     H218237   7.502   5.721   0.808
 5999WAT      O18238   9.600   0.806   7.475
 5999WAT     H118239   9.559   0.715   7.486
 5999WAT     H218240   9.578   0.841   7.384
 6000WAT      O18241   1.661   8.633   4.240
 6000WAT     H118242   1.663   8.687   4.324
 6000WAT     H218243   1.705   8.684   4.166
 6001WAT      O18244   5.493   0.491   2.469
 6001WAT     H118245   5.409   0.487   2.525
 6001WAT     H218246   5.565   0.536   2.522
 6002WAT      O18247   6.684   3.048   9.148
 6002WAT     H118248   6.661   3.046   9.051
 6002WAT     H218249   6.617   2.993   9.199
 6003WAT      O18250   1.487   8.746   3.502
 6003WAT     H118251   1.566   8.689   3.526
 6003WAT     H218252   1.403   8.700   3.531
 6004WAT      O18253   1.413   5.436   4.381
 6004WAT     H118254   1.375   5.498   4.450
 6004WAT     H218255   1.476   5.487   4.322
 6005WAT      O18256   2.496   8.946   0.218
 6005WAT     H118257   2.592   8.947   0.245
 6005WAT     H218258   2.488   8.921   0.122
 6006WAT      O18259   6.419   8.785   3.390
 6006WAT     H118260   6.324   8.772   3.360
 6006WAT     H218261   6.455   8.869   3.349
 6007WAT      O18262   5.776   9.285   8.210
 6007WAT     H118263   5.706   9.248   8.148
 6007WAT     H218264   5.737   9.295   8.302
 6008WAT      O18265   1.728   5.942   6.897
 6008WAT     H118266   1.770   6.029   6.873
 6008WAT     H218267   1.632   5.956   6.922
 6009WAT      O18268   5.596   4.977   4.393
 6009WAT     H118269   5.507   4.956   4.434
 6009WAT     H218270   5.653   4.895   4.391
 6010WAT      O18271   8.448   3.182   5.969
 6010WAT     H118272   8.541   3.212   5.990
 6010WAT     H218273   8.441   3.083   5.980
 6011WAT      O18274   5.267   1.010   8.085
 6011WAT     H118275   5.235   0.944   8.153
 6011WAT     H218276   5.366   0.998   8.071
 6012WAT      O18277   3.325   2.824   0.601
 6012WAT     H118278   3.245   2.767   0.583
 6012WAT     H218279   3.407   2.767   0.600
 6013WAT      O18280   5.337   6.479   1.070
 6013WAT     H118281   5.333   6.578   1.057
 6013WAT     H218282   5.248   6.439   1.049
 6014WAT      O18283   1.485   0.854   6.141
 6014WAT     H118284   1.583   0.839   6.144
 6014WAT     H218285   1.466   0.944   6.102
 6015WAT      O18286   4.058   0.058   7.365
 6015WAT     H118287   4.053   0.146   7.412
 6015WAT     H218288   3.998  -0.008   7.410
 6016WAT      O18289   3.469   8.381   7.030
 6016WAT     H118290   3.403   8.306   7.020
 6016WAT     H218291   3.432   8.464   6.987
 6017WAT      O18292   1.650   0.801   2.354
 6017WAT     H118293   1.640   0.860   2.275
 6017WAT     H218294   1.691   0.852   2.430
 6018WAT      O18295   3.747   6.104   7.478
 6018WAT     H118296   3.706   6.019   7.512
 6018WAT     H218297   3.674   6.171   7.463
 6019WAT      O18298   1.492   7.182   8.443
 6019WAT     H118299   1.542   7.152   8.524
 6019WAT     H218300   1.401   7.214   8.470
 6020WAT      O18301   3.235   9.121   5.046
 6020WAT     H118302   3.325   9.078   5.051
 6020WAT     H218303   3.245   9.220   5.054
 6021WAT      O18304   0.241   4.298   5.870
 6021WAT     H118305   0.318   4.360   5.864
 6021WAT     H218306   0.190   4.314   5.955
 6022WAT      O18307   0.236   5.982   5.119
 6022WAT     H118308   0.211   5.940   5.032
 6022WAT     H218309   0.200   6.075   5.123
 6023WAT      O18310   0.233   0.932   9.221
 6023WAT     H118311   0.333   0.937   9.229
 6023WAT     H218312   0.195   1.023   9.210
 6024WAT      O18313   0.086   1.983   5.652
 6024WAT     H118314   0.097   1.884   5.643
 6024WAT     H218315   0.077   2.007   5.749
 6025WAT      O18316   7.297   6.412   7.684
 6025WAT     H118317   7.289   6.490   7.622
 6025WAT     H218318   7.212   6.359   7.681
 6026WAT      O18319   3.688   8.589   4.634
 6026WAT     H118320   3.704   8.573   4.732
 6026WAT     H218321   3.702   8.686   4.614
 6027WAT      O18322   8.542   4.930   7.936
 6027WAT     H118323   8.492   4.843   7.937
 6027WAT     H218324   8.495   4.994   7.875
 6028WAT      O18325   8.154   2.283   4.378
 6028WAT     H118326   8.057   2.278   4.356
 6028WAT     H218327   8.206   2.234   4.308
 6029WAT      O18328   9.456   9.567   7.277
 6029WAT     H118329   9.498   9.493   7.225
 6029WAT     H218330   9.432   9.534   7.368
 6030WAT      O18331   7.300   8.452   2.401
 6030WAT     H118332   7.390   8.493   2.412
 6030WAT     H218333   7.250   8.458   2.488
 6031WAT      O18334   2.579   8.902   5.094
 6031WAT     H118335   2.653   8.855   5.142
 6031WAT     H218336   2.527   8.835   5.041
 6032WAT      O18337   9.118   9.820   1.307
 6032WAT     H118338   9.184   9.880   1.261
 6032WAT     H218339   9.168   9.751   1.360
 6033WAT      O18340   1.143   3.410   9.115
 6033WAT     H118341   1.138   3.313   9.089
 6033WAT     H218342   1.110   3.466   9.039
 6034WAT      O18343   0.936   2.904   8.706
 6034WAT     H118344   0.916   2.808   8.724
 6034WAT     H218345   1.023   2.911   8.658
 6035WAT      O18346   3.957   7.541   2.221
 6035WAT     H118347   4.001   7.559   2.133
 6035WAT     H218348   4.008   7.470   2.270
 6036WAT      O18349   9.734   5.198   7.647
 6036WAT     H118350   9.673   5.161   7.577
 6036WAT     H218351   9.691   5.278   7.689
 6037WAT      O18352   1.935   5.565   9.271
 6037WAT     H118353   1.964   5.552   9.367
 6037WAT     H218354   1.948   5.479   9.222
 6038WAT      O18355   6.490   1.861   7.855
 6038WAT     H118356   6.508   1.914   7.939
 6038WAT     H218357   6.392   1.858   7.838
 6039WAT      O18358   4.111   4.755   4.909
 6039WAT     H118359   4.044   4.822   4.878
 6039WAT     H218360   4.089   4.665   4.869
 6040WAT      O18361   9.123   8.233   5.027
 6040WAT     H118362   9.093   8.140   5.006
 6040WAT     H218363   9.122   8.289   4.944
 6041WAT      O18364   6.356   6.819   5.806
 6041WAT     H118365   6.389   6.776   5.722
 6041WAT     H218366   6.385   6.914   5.809
 6042WAT      O18367   9.858   5.221   2.525
 6042WAT     H118368   9.882   5.303   2.472
 6042WAT     H218369   9.908   5.142   2.490
 6043WAT      O18370   0.177   6.938   1.021
 6043WAT     H118371   0.114   7.016   1.012
 6043WAT     H218372   0.131   6.863   1.068
 6044WAT      O18373   4.736   3.131   6.429
 6044WAT     H118374   4.731   3.230   6.443
 6044WAT     H218375   4.811   3.110   6.367
 6045WAT      O18376   9.742   0.714   7.027
 6045WAT     H118377   9.793   0.666   7.099
 6045WAT     H218378   9.690   0.789   7.068
 6046WAT      O18379   6.776   3.353   1.635
 6046WAT     H118380   6.715   3.431   1.652
 6046WAT     H218381   6.869   3.376   1.665
 6047WAT      O18382   8.971   5.731   6.567
 6047WAT     H118383   8.998   5.666   6.638
 6047WAT     H218384   8.898   5.691   6.511
 6048WAT      O18385   1.166   8.668   4.999
 6048WAT     H118386   1.068   8.648   4.996
 6048WAT     H218387   1.207   8.643   4.911
 6049WAT      O18388   0.128   0.870   2.982
 6049WAT     H118389   0.064   0.947   2.976
 6049WAT     H218390   0.104   0.801   2.914
 6050WAT      O18391   2.601   5.935   6.631
 6050WAT     H118392   2.568   5.977   6.715
 6050WAT     H218393   2.628   6.006   6.566
 6051WAT      O18394   2.537   3.942   1.830
 6051WAT     H118395   2.514   3.845   1.843
 6051WAT     H218396   2.559   3.958   1.734
 6052WAT      O18397   1.210   9.077   6.391
 6052WAT     H118398   1.224   9.058   6.489
 6052WAT     H218399   1.112   9.076   6.372
 6053WAT      O18400   5.318   9.601   3.831
 6053WAT     H118401   5.251   9.582   3.903
 6053WAT     H218402   5.332   9.699   3.822
 6054WAT      O18403   4.408   7.059   3.310
 6054WAT     H118404   4.399   7.122   3.233
 6054WAT     H218405   4.503   7.057   3.340
 6055WAT      O18406   6.332   2.489   4.861
 6055WAT     H118407   6.253   2.545   4.889
 6055WAT     H218408   6.392   2.543   4.802
 6056WAT      O18409   2.846   9.798   1.540
 6056WAT     H118410   2.873   9.850   1.459
 6056WAT     H218411   2.839   9.701   1.517
 6057WAT      O18412   6.746   6.028   3.006
 6057WAT     H118413   6.760   5.974   2.922
 6057WAT     H218414   6.764   6.125   2.986
 6058WAT      O18415   5.962   4.339   8.051
 6058WAT     H118416   5.965   4.399   8.131
 6058WAT     H218417   5.872   4.295   8.045
 6059WAT      O18418   3.790   0.407   3.406
 6059WAT     H118419   3.839   0.354   3.475
 6059WAT     H218420   3.728   0.471   3.451
 6060WAT      O18421   4.447   6.556   1.588
 6060WAT     H118422   4.480   6.597   1.502
 6060WAT     H218423   4.451   6.456   1.581
 6061WAT      O18424   4.658   0.422   0.533
 6061WAT     H118425   4.684   0.333   0.571
 6061WAT     H218426   4.623   0.409   0.440
 6062WAT      O18427   4.520   1.273   4.766
 6062WAT     H118428   4.465   1.321   4.833
 6062WAT     H218429   4.573   1.201   4.811
 6063WAT      O18430   2.624   2.431   6.123
 6063WAT     H118431   2.537   2.476   6.144
 6063WAT     H218432   2.699   2.496   6.132
 6064WAT      O18433   8.172   8.349   3.034
 6064WAT     H118434   8.100   8.417   3.024
 6064WAT     H218435   8.234   8.354   2.956
 6065WAT      O18436   9.792   8.939   1.642
 6065WAT     H118437   9.705   8.985   1.665
 6065WAT     H218438   9.866   9.007   1.642
 6066WAT      O18439   2.471   8.860   9.200
 6066WAT     H118440   2.431   8.828   9.286
 6066WAT     H218441   2.540   8.794   9.168
 6067WAT      O18442   1.126   2.009   9.167
 6067WAT     H118443   1.169   2.046   9.249
 6067WAT     H218444   1.142   1.910   9.163
 6068WAT      O18445   0.531   8.449   7.097
 6068WAT     H118446   0.453   8.402   7.139
 6068WAT     H218447   0.557   8.402   7.013
 6069WAT      O18448   0.127   6.071   5.855
 6069WAT     H118449   0.177   6.118   5.927
 6069WAT     H218450   0.183   6.068   5.772
 6070WAT      O18451   0.956   5.489   0.622
 6070WAT     H118452   0.900   5.516   0.699
 6070WAT     H218453   0.916   5.524   0.537
 6071WAT      O18454   9.761   7.859   9.148
 6071WAT     H118455   9.667   7.838   9.123
 6071WAT     H218456   9.786   7.808   9.230
 6072WAT      O18457   8.365   0.920   5.005
 6072WAT     H118458   8.370   0.939   4.907
 6072WAT     H218459   8.274   0.886   5.028
 6073WAT      O18460   5.341   3.679   9.402
 6073WAT     H118461   5.309   3.591   9.438
 6073WAT     H218462   5.432   3.699   9.438
 6074WAT      O18463   0.582   5.151   3.561
 6074WAT     H118464   0.495   5.196   3.543
 6074WAT     H218465   0.657   5.216   3.551
 6075WAT      O18466   1.752   2.738   9.516
 6075WAT     H118467   1.741   2.837   9.519
 6075WAT     H218468   1.664   2.694   9.531
 6076WAT      O18469   2.831   8.764   2.063
 6076WAT     H118470   2.807   8.799   2.154
 6076WAT     H218471   2.905   8.820   2.025
 6077WAT      O18472   6.723   9.182   8.465
 6077WAT     H118473   6.797   9.248   8.455
 6077WAT     H218474   6.657   9.216   8.532
 6078WAT      O18475   4.284   9.345   8.143
 6078WAT     H118476   4.283   9.327   8.242
 6078WAT     H218477   4.359   9.294   8.101
 6079WAT      O18478   1.565   8.894   8.729
 6079WAT     H118479   1.519   8.975   8.691
 6079WAT     H218480   1.496   8.828   8.760
 6080WAT      O18481   0.805   3.806   9.434
 6080WAT     H118482   0.900   3.815   9.406
 6080WAT     H218483   0.794   3.841   9.527
 6081WAT      O18484   8.323   9.601   6.301
 6081WAT     H118485   8.378   9.545   6.363
 6081WAT     H218486   8.376   9.623   6.219
 6082WAT      O18487   8.756   7.676   7.730
 6082WAT     H118488   8.783   7.735   7.653
 6082WAT     H218489   8.759   7.580   7.702
 6083WAT      O18490   7.381   2.812   6.838
 6083WAT     H118491   7.339   2.821   6.929
 6083WAT     H218492   7.480   2.818   6.847
 6084WAT      O18493   9.016   8.245   6.217
 6084WAT     H118494   8.918   8.255   6.230
 6084WAT     H218495   9.035   8.155   6.178
 6085WAT      O18496   5.640   1.877   1.035
 6085WAT     H118497   5.559   1.874   1.093
 6085WAT     H218498   5.668   1.972   1.022
 6086WAT      O18499   2.710   9.122   9.696
 6086WAT     H118500   2.670   9.210   9.671
 6086WAT     H218501   2.723   9.066   9.614
 6087WAT      O18502   4.532   8.983   9.570
 6087WAT     H118503   4.599   8.918   9.603
 6087WAT     H218504   4.576   9.048   9.508
 6088WAT      O18505   6.694   8.758   0.054
 6088WAT     H118506   6.727   8.663   0.049
 6088WAT     H218507   6.648   8.781  -0.032
 6089WAT      O18508   2.602   7.987   2.634
 6089WAT     H118509   2.592   8.071   2.687
 6089WAT     H218510   2.524   7.927   2.653
 6090WAT      O18511   5.622   9.487   9.012
 6090WAT     H118512   5.536   9.514   8.968
 6090WAT     H218513   5.692   9.471   8.942
 6091WAT      O18514   5.950   3.722   1.752
 6091WAT     H118515   5.868   3.673   1.724
 6091WAT     H218516   5.977   3.787   1.681
 6092WAT      O18517   4.951   7.941   9.655
 6092WAT     H118518   4.970   8.000   9.734
 6092WAT     H218519   5.013   7.863   9.656
 6093WAT      O18520   5.426   5.526   1.186
 6093WAT     H118521   5.461   5.526   1.092
 6093WAT     H218522   5.356   5.597   1.195
 6094WAT      O18523   7.639   0.425   5.369
 6094WAT     H118524   7.634   0.345   5.430
 6094WAT     H218525   7.726   0.424   5.320
 6095WAT      O18526   2.065   9.817   7.308
 6095WAT     H118527   2.032   9.899   7.354
 6095WAT     H218528   2.014   9.805   7.222
 6096WAT      O18529   1.486   9.609   0.635
 6096WAT     H118530   1.435   9.666   0.698
 6096WAT     H218531   1.579   9.594   0.669
 6097WAT      O18532   3.760   7.061   5.226
 6097WAT     H118533   3.826   7.095   5.159
 6097WAT     H218534   3.793   6.976   5.266
 6098WAT      O18535   7.633   1.856   4.185
 6098WAT     H118536   7.583   1.771   4.205
 6098WAT     H218537   7.568   1.931   4.173
 6099WAT      O18538   4.052   2.965   4.645
 6099WAT     H118539   4.044   2.903   4.723
 6099WAT     H218540   4.024   2.916   4.562
 6100WAT      O18541   3.879   4.959   2.019
 6100WAT     H118542   3.857   4.993   2.111
 6100WAT     H218543   3.863   4.861   2.016
 6101WAT      O18544   7.266   9.818   1.018
 6101WAT     H118545   7.266   9.916   1.036
 6101WAT     H218546   7.230   9.770   1.099
 6102WAT      O18547   5.622   8.973   8.461
 6102WAT     H118548   5.676   8.889   8.467
 6102WAT     H218549   5.671   9.047   8.508
 6103WAT      O18550   7.580   5.400   3.948
 6103WAT     H118551   7.527   5.371   3.868
 6103WAT     H218552   7.671   5.428   3.919
 6104WAT      O18553   9.053   0.130   5.613
 6104WAT     H118554   9.131   0.077   5.647
 6104WAT     H218555   9.048   0.121   5.514
 6105WAT      O18556   7.376   6.810   5.282
 6105WAT     H118557   7.436   6.811   5.202
 6105WAT     H218558   7.286   6.775   5.255
 6106WAT      O18559   2.104   8.367   3.783
 6106WAT     H118560   2.026   8.413   3.826
 6106WAT     H218561   2.087   8.269   3.779
 6107WAT      O18562   6.418   6.207   5.909
 6107WAT     H118563   6.377   6.292   5.878
 6107WAT     H218564   6.352   6.132   5.899
 6108WAT      O18565   4.319   2.601   3.067
 6108WAT     H118566   4.391   2.669   3.053
 6108WAT     H218567   4.354   2.510   3.046
 6109WAT      O18568   9.241   6.797   1.930
 6109WAT     H118569   9.219   6.808   2.027
 6109WAT     H218570   9.212   6.707   1.898
 6110WAT      O18571   8.288   7.976   1.401
 6110WAT     H118572   8.230   7.972   1.320
 6110WAT     H218573   8.232   7.994   1.481
 6111WAT      O18574   9.320   3.719   9.032
 6111WAT     H118575   9.293   3.637   9.083
 6111WAT     H218576   9.415   3.711   9.003
 6112WAT      O18577   7.102   5.388   3.454
 6112WAT     H118578   7.164   5.319   3.490
 6112WAT     H218579   7.097   5.380   3.355
 6113WAT      O18580   6.886   6.965   3.009
 6113WAT     H118581   6.970   6.973   3.062
 6113WAT     H218582   6.908   6.969   2.911
 6114WAT      O18583   5.560   3.123   5.651
 6114WAT     H118584   5.509   3.038   5.666
 6114WAT     H218585   5.500   3.191   5.610
 6115WAT      O18586   0.330   9.620   5.500
 6115WAT     H118587   0.412   9.664   5.464
 6115WAT     H218588   0.302   9.665   5.584
 6116WAT      O18589   6.303   0.151   4.376
 6116WAT     H118590   6.206   0.136   4.396
 6116WAT     H218591   6.345   0.201   4.451
 6117WAT      O18592   8.218   5.725   2.595
 6117WAT     H118593   8.275   5.671   2.656
 6117WAT     H218594   8.216   5.683   2.504
 6118WAT      O18595   5.007   9.622   3.021
 6118WAT     H118596   5.065   9.702   3.007
 6118WAT     H218597   4.985   9.580   2.932
 6119WAT      O18598   4.847   1.761   3.624
 6119WAT     H118599   4.894   1.673   3.630
 6119WAT     H218600   4.894   1.828   3.682
 6120WAT      O18601   6.326   9.840   4.772
 6120WAT     H118602   6.343   9.742   4.788
 6120WAT     H218603   6.240   9.850   4.723
 6121WAT      O18604   3.703   0.027   3.579
 6121WAT     H118605   3.649   0.092   3.633
 6121WAT     H218606   3.674  -0.066   3.599
 6122WAT      O18607   5.626   7.798   1.536
 6122WAT     H118608   5.535   7.816   1.572
 6122WAT     H218609   5.668   7.884   1.506
 6123WAT      O18610   1.085   6.569   3.192
 6123WAT     H118611   1.103   6.595   3.097
 6123WAT     H218612   1.059   6.473   3.196
 6124WAT      O18613   3.597   0.614   1.232
 6124WAT     H118614   3.622   0.538   1.172
 6124WAT     H218615   3.635   0.699   1.196
 6125WAT      O18616   8.367   0.558   2.102
 6125WAT     H118617   8.358   0.467   2.142
 6125WAT     H218618   8.292   0.574   2.038
 6126WAT      O18619   0.099   2.297   1.864
 6126WAT     H118620   0.060   2.215   1.822
 6126WAT     H218621   0.030   2.340   1.923
 6127WAT      O18622   8.478   0.603   3.490
 6127WAT     H118623   8.516   0.628   3.401
 6127WAT     H218624   8.551   0.567   3.549
 6128WAT      O18625   8.979   5.477   5.052
 6128WAT     H118626   9.023   5.392   5.025
 6128WAT     H218627   9.034   5.523   5.121
 6129WAT      O18628   4.532   7.957   8.230
 6129WAT     H118629   4.591   7.949   8.149
 6129WAT     H218630   4.485   8.045   8.228
 6130WAT      O18631   5.858   6.665   1.003
 6130WAT     H118632   5.897   6.690   0.914
 6130WAT     H218633   5.786   6.597   0.989
 6131WAT      O18634   1.227   2.608   7.900
 6131WAT     H118635   1.283   2.691   7.907
 6131WAT     H218636   1.163   2.603   7.976
 6132WAT      O18637   7.567   5.769   5.961
 6132WAT     H118638   7.525   5.682   5.986
 6132WAT     H218639   7.600   5.764   5.867
 6133WAT      O18640   8.593   9.642   8.536
 6133WAT     H118641   8.512   9.657   8.479
 6133WAT     H218642   8.589   9.552   8.579
 6134WAT      O18643   8.398   6.679   5.714
 6134WAT     H118644   8.365   6.590   5.746
 6134WAT     H218645   8.336   6.713   5.643
 6135WAT      O18646   1.765   7.910   7.163
 6135WAT     H118647   1.711   7.991   7.142
 6135WAT     H218648   1.847   7.909   7.106
 6136WAT      O18649   1.383   6.525   0.070
 6136WAT     H118650   1.358   6.431   0.092
 6136WAT     H218651   1.402   6.533  -0.027
 6137WAT      O18652   0.847   3.111   3.235
 6137WAT     H118653   0.885   3.168   3.307
 6137WAT     H218654   0.837   3.017   3.269
 6138WAT      O18655   8.701   8.260   4.278
 6138WAT     H118656   8.643   8.183   4.250
 6138WAT     H218657   8.658   8.309   4.354
 6139WAT      O18658   3.395   8.116   3.982
 6139WAT     H118659   3.494   8.126   3.986
 6139WAT     H218660   3.371   8.021   3.961
 6140WAT      O18661   0.451   9.221   8.105
 6140WAT     H118662   0.520   9.165   8.152
 6140WAT     H218663   0.360   9.182   8.121
 6141WAT      O18664   6.846   7.122   0.727
 6141WAT     H118665   6.889   7.140   0.816
 6141WAT     H218666   6.752   7.092   0.741
 6142WAT      O18667   1.867   7.466   8.797
 6142WAT     H118668   1.890   7.537   8.863
 6142WAT     H218669   1.899   7.493   8.706
 6143WAT      O18670   0.169   8.125   3.229
 6143WAT     H118671   0.251   8.079   3.264
 6143WAT     H218672   0.171   8.221   3.258
 6144WAT      O18673   6.224   2.243   1.832
 6144WAT     H118674   6.244   2.334   1.869
 6144WAT     H218675   6.173   2.252   1.747
 6145WAT      O18676   5.870   4.574   4.612
 6145WAT     H118677   5.837   4.501   4.552
 6145WAT     H218678   5.969   4.585   4.600
 6146WAT      O18679   0.786   2.397   6.308
 6146WAT     H118680   0.882   2.396   6.282
 6146WAT     H218681   0.768   2.475   6.368
 6147WAT      O18682   7.313   5.732   5.648
 6147WAT     H118683   7.319   5.638   5.681
 6147WAT     H218684   7.217   5.759   5.640
 6148WAT      O18685   5.033   5.466   8.470
 6148WAT     H118686   5.132   5.460   8.457
 6148WAT     H218687   4.988   5.466   8.381
 6149WAT      O18688   9.121   0.967   8.851
 6149WAT     H118689   9.177   0.886   8.869
 6149WAT     H218690   9.045   0.941   8.791
 6150WAT      O18691   2.045   7.495   9.337
 6150WAT     H118692   1.973   7.564   9.324
 6150WAT     H218693   2.071   7.456   9.249
 6151WAT      O18694   1.971   0.744   2.302
 6151WAT     H118695   2.016   0.726   2.214
 6151WAT     H218696   1.872   0.731   2.291
 6152WAT      O18697   4.775   9.488   2.064
 6152WAT     H118698   4.825   9.574   2.067
 6152WAT     H218699   4.839   9.412   2.068
 6153WAT      O18700   7.063   9.406   4.259
 6153WAT     H118701   7.086   9.490   4.209
 6153WAT     H218702   7.093   9.326   4.207
 6154WAT      O18703   9.647   5.281   7.034
 6154WAT     H118704   9.567   5.266   7.093
 6154WAT     H218705   9.646   5.374   6.998
 6155WAT      O18706   9.710   7.094   4.548
 6155WAT     H118707   9.619   7.104   4.509
 6155WAT     H218708   9.703   7.054   4.640
 6156WAT      O18709   5.157   2.794   7.592
 6156WAT     H118710   5.225   2.721   7.595
 6156WAT     H218711   5.072   2.763   7.634
 6157WAT      O18712   3.232   0.674   3.827
 6157WAT     H118713   3.210   0.772   3.830
 6157WAT     H218714   3.309   0.656   3.888
 6158WAT      O18715   0.355   8.303   1.181
 6158WAT     H118716   0.426   8.247   1.138
 6158WAT     H218717   0.306   8.355   1.111
 6159WAT      O18718   9.166   7.601   1.787
 6159WAT     H118719   9.193   7.614   1.692
 6159WAT     H218720   9.203   7.675   1.843
 6160WAT      O18721   8.317   7.526   3.299
 6160WAT     H118722   8.245   7.595   3.287
 6160WAT     H218723   8.373   7.551   3.378
 6161WAT      O18724   4.263   0.477   8.485
 6161WAT     H118725   4.268   0.387   8.442
 6161WAT     H218726   4.355   0.508   8.507
 6162WAT      O18727   9.293   9.379   5.583
 6162WAT     H118728   9.230   9.448   5.618
 6162WAT     H218729   9.261   9.288   5.609
 6163WAT      O18730   6.109   4.732   3.484
 6163WAT     H118731   6.164   4.786   3.420
 6163WAT     H218732   6.034   4.787   3.518
 6164WAT      O18733   2.785   2.307   5.439
 6164WAT     H118734   2.784   2.407   5.439
 6164WAT     H218735   2.788   2.274   5.534
 6165WAT      O18736   6.787   8.535   3.631
 6165WAT     H118737   6.718   8.528   3.703
 6165WAT     H218738   6.773   8.620   3.580
 6166WAT      O18739   2.322   1.845   2.135
 6166WAT     H118740   2.367   1.878   2.218
 6166WAT     H218741   2.306   1.923   2.074
 6167WAT      O18742   9.436   9.276   8.143
 6167WAT     H118743   9.520   9.323   8.117
 6167WAT     H218744   9.399   9.316   8.227
 6168WAT      O18745   3.666   6.294   5.186
 6168WAT     H118746   3.569   6.270   5.177
 6168WAT     H218747   3.690   6.364   5.118
 6169WAT      O18748   9.203   7.809   3.951
 6169WAT     H118749   9.239   7.753   3.876
 6169WAT     H218750   9.156   7.889   3.913
 6170WAT      O18751   1.035   2.293   1.762
 6170WAT     H118752   1.041   2.386   1.798
 6170WAT     H218753   1.004   2.231   1.835
 6171WAT      O18754   7.954   4.514   7.989
 6171WAT     H118755   7.948   4.459   8.073
 6171WAT     H218756   7.920   4.460   7.912
 6172WAT      O18757   0.289   5.074   7.855
 6172WAT     H118758   0.233   5.062   7.938
 6172WAT     H218759   0.384   5.092   7.881
 6173WAT      O18760   1.517   4.670   1.804
 6173WAT     H118761   1.558   4.697   1.892
 6173WAT     H218762   1.524   4.571   1.793
 6174WAT      O18763   0.746   3.192   6.356
 6174WAT     H118764   0.829   3.136   6.357
 6174WAT     H218765   0.706   3.190   6.264
 6175WAT      O18766   3.454   0.229   3.364
 6175WAT     H118767   3.539   0.178   3.372
 6175WAT     H218768   3.464   0.318   3.407
 6176WAT      O18769   3.451   5.836   1.227
 6176WAT     H118770   3.521   5.896   1.265
 6176WAT     H218771   3.414   5.778   1.300
 6177WAT      O18772   7.501   4.146   4.575
 6177WAT     H118773   7.434   4.072   4.579
 6177WAT     H218774   7.593   4.108   4.590
 6178WAT      O18775   1.043   6.722   0.737
 6178WAT     H118776   0.953   6.684   0.759
 6178WAT     H218777   1.062   6.710   0.640
 6179WAT      O18778   8.305   1.063   8.328
 6179WAT     H118779   8.329   0.991   8.263
 6179WAT     H218780   8.227   1.114   8.293
 6180WAT      O18781   0.123   0.673   2.039
 6180WAT     H118782   0.102   0.578   2.015
 6180WAT     H218783   0.217   0.694   2.014
 6181WAT      O18784   5.867   8.030   6.736
 6181WAT     H118785   5.913   7.945   6.709
 6181WAT     H218786   5.907   8.107   6.687
 6182WAT      O18787   0.033   1.699   8.417
 6182WAT     H118788   0.090   1.620   8.442
 6182WAT     H218789  -0.015   1.732   8.498
 6183WAT      O18790   2.006   6.573   6.416
 6183WAT     H118791   1.948   6.500   6.378
 6183WAT     H218792   2.096   6.535   6.439
 6184WAT      O18793   2.691   6.223   0.106
 6184WAT     H118794   2.776   6.177   0.081
 6184WAT     H218795   2.647   6.174   0.181
 6185WAT      O18796   8.869   5.558   6.173
 6185WAT     H118797   8.939   5.536   6.106
 6185WAT     H218798   8.799   5.486   6.173
 6186WAT      O18799   4.395   3.216   9.760
 6186WAT     H118800   4.334   3.190   9.685
 6186WAT     H218801   4.418   3.136   9.815
 6187WAT      O18802   1.572   9.814   8.353
 6187WAT     H118803   1.583   9.744   8.282
 6187WAT     H218804   1.646   9.807   8.419
 6188WAT      O18805   6.477   4.294   9.440
 6188WAT     H118806   6.525   4.263   9.523
 6188WAT     H218807   6.406   4.228   9.417
 6189WAT      O18808   4.564   6.097   7.363
 6189WAT     H118809   4.482   6.052   7.329
 6189WAT     H218810   4.581   6.069   7.458
 6190WAT      O18811   1.793   9.716   8.512
 6190WAT     H118812   1.831   9.639   8.462
 6190WAT     H218813   1.864   9.785   8.526
 6191WAT      O18814   4.312   3.537   2.747
 6191WAT     H118815   4.300   3.492   2.658
 6191WAT     H218816   4.403   3.579   2.750
 6192WAT      O18817   7.958   3.062   1.564
 6192WAT     H118818   7.926   3.155   1.579
 6192WAT     H218819   8.040   3.046   1.620
 6193WAT      O18820   0.525   3.849   2.937
 6193WAT     H118821   0.561   3.770   2.888
 6193WAT     H218822   0.534   3.834   3.035
 6194WAT      O18823   8.397   5.455   7.559
 6194WAT     H118824   8.441   5.396   7.492
 6194WAT     H218825   8.301   5.470   7.533
 6195WAT      O18826   5.741   3.781   5.808
 6195WAT     H118827   5.655   3.779   5.859
 6195WAT     H218828   5.748   3.867   5.758
 6196WAT      O18829   7.289   1.841   2.905
 6196WAT     H118830   7.260   1.748   2.929
 6196WAT     H218831   7.234   1.875   2.829
 6197WAT      O18832   5.236   4.419   3.442
 6197WAT     H118833   5.157   4.481   3.444
 6197WAT     H218834   5.232   4.363   3.359
 6198WAT      O18835   7.979   6.791   6.107
 6198WAT     H118836   7.988   6.841   6.020
 6198WAT     H218837   7.900   6.730   6.102
 6199WAT      O18838   8.476   8.271   5.633
 6199WAT     H118839   8.452   8.233   5.543
 6199WAT     H218840   8.417   8.349   5.654
 6200WAT      O18841   9.500   5.982   2.467
 6200WAT     H118842   9.495   5.973   2.567
 6200WAT     H218843   9.492   6.078   2.442
 6201WAT      O18844   4.680   2.174   5.492
 6201WAT     H118845   4.650   2.210   5.580
 6201WAT     H218846   4.776   2.198   5.477
 6202WAT      O18847   2.823   2.178   3.176
 6202WAT     H118848   2.731   2.169   3.213
 6202WAT     H218849   2.860   2.088   3.153
 6203WAT      O18850   8.491   1.384   4.801
 6203WAT     H118851   8.495   1.470   4.851
 6203WAT     H218852   8.430   1.394   4.722
 6204WAT      O18853   5.059   8.340   0.933
 6204WAT     H118854   5.106   8.360   1.018
 6204WAT     H218855   5.012   8.422   0.900
 6205WAT      O18856   9.618   8.134   5.909
 6205WAT     H118857   9.624   8.102   6.003
 6205WAT     H218858   9.593   8.057   5.850
 6206WAT      O18859   8.425   2.384   2.726
 6206WAT     H118860   8.455   2.419   2.637
 6206WAT     H218861   8.327   2.397   2.735
 6207WAT      O18862   9.418   7.255   3.601
 6207WAT     H118863   9.436   7.220   3.693
 6207WAT     H218864   9.370   7.343   3.608
 6208WAT      O18865   2.128   5.312   3.331
 6208WAT     H118866   2.195   5.328   3.404
 6208WAT     H218867   2.065   5.240   3.360
 6209WAT      O18868   2.211   0.460   1.634
 6209WAT     H118869   2.217   0.452   1.534
 6209WAT     H218870   2.263   0.387   1.677
 6210WAT      O18871   5.090   9.249   2.294
 6210WAT     H118872   5.035   9.240   2.377
 6210WAT     H218873   5.145   9.332   2.299
 6211WAT      O18874   2.358   4.387   4.886
 6211WAT     H118875   2.429   4.347   4.944
 6211WAT     H218876   2.340   4.325   4.809
 6212WAT      O18877   9.470   6.984   1.910
 6212WAT     H118878   9.401   6.924   1.951
 6212WAT     H218879   9.425   7.064   1.872
 6213WAT      O18880   1.379   3.705   6.459
 6213WAT     H118881   1.295   3.713   6.513
 6213WAT     H218882   1.373   3.624   6.401
 6214WAT      O18883   0.763   4.648   9.388
 6214WAT     H118884   0.674   4.687   9.362
 6214WAT     H218885   0.803   4.601   9.310
 6215WAT      O18886   3.483   8.778   3.962
 6215WAT     H118887   3.469   8.769   4.060
 6215WAT     H218888   3.533   8.698   3.928
 6216WAT      O18889   0.885   1.306   3.510
 6216WAT     H118890   0.797   1.322   3.465
 6216WAT     H218891   0.950   1.376   3.480
 6217WAT      O18892   3.789   5.423   2.583
 6217WAT     H118893   3.836   5.488   2.642
 6217WAT     H218894   3.721   5.372   2.636
 6218WAT      O18895   7.326   3.717   1.947
 6218WAT     H118896   7.382   3.672   2.017
 6218WAT     H218897   7.344   3.816   1.949
 6219WAT      O18898   7.460   3.939   1.413
 6219WAT     H118899   7.410   3.855   1.391
 6219WAT     H218900   7.402   4.018   1.392
 6220WAT      O18901   6.970   0.798   9.470
 6220WAT     H118902   6.945   0.701   9.475
 6220WAT     H218903   6.891   0.852   9.441
 6221WAT      O18904   2.348   5.302   6.610
 6221WAT     H118905   2.417   5.350   6.662
 6221WAT     H218906   2.360   5.203   6.622
 6222WAT      O18907   5.725   2.383   3.793
 6222WAT     H118908   5.735   2.384   3.693
 6222WAT     H218909   5.669   2.461   3.821
 6223WAT      O18910   0.011   7.199   2.379
 6223WAT     H118911   0.040   7.154   2.294
 6223WAT     H218912  -0.069   7.256   2.360
 6224WAT      O18913   9.380   5.786   6.323
 6224WAT     H118914   9.280   5.790   6.325
 6224WAT     H218915   9.412   5.807   6.230
 6225WAT      O18916   7.297   5.211   9.514
 6225WAT     H118917   7.271   5.226   9.418
 6225WAT     H218918   7.298   5.299   9.561
 6226WAT      O18919   9.257   1.630   4.489
 6226WAT     H118920   9.300   1.609   4.401
 6226WAT     H218921   9.293   1.570   4.560
 6227WAT      O18922   2.398   7.585   5.166
 6227WAT     H118923   2.312   7.582   5.115
 6227WAT     H218924   2.473   7.609   5.103
 6228WAT      O18925   7.478   5.310   7.989
 6228WAT     H118926   7.492   5.310   8.088
 6228WAT     H218927   7.563   5.335   7.943
 6229WAT      O18928   2.425   8.460   9.811
 6229WAT     H118929   2.361   8.472   9.887
 6229WAT     H218930   2.509   8.510   9.831
 6230WAT      O18931   0.086   1.235   2.182
 6230WAT     H118932   0.104   1.169   2.109
 6230WAT     H218933   0.082   1.327   2.144
 6231WAT      O18934   9.243   3.072   0.331
 6231WAT     H118935   9.145   3.053   0.341
 6231WAT     H218936   9.267   3.152   0.385
 6232WAT      O18937   4.491   2.108   2.561
 6232WAT     H118938   4.408   2.054   2.578
 6232WAT     H218939   4.475   2.168   2.482
 6233WAT      O18940   8.573   8.471   0.390
 6233WAT     H118941   8.530   8.494   0.477
 6233WAT     H218942   8.632   8.391   0.402
 6234WAT      O18943   3.691   1.780   1.165
 6234WAT     H118944   3.766   1.725   1.202
 6234WAT     H218945   3.638   1.819   1.241
 6235WAT      O18946   5.031   7.443   0.381
 6235WAT     H118947   5.049   7.538   0.405
 6235WAT     H218948   4.962   7.439   0.308
 6236WAT      O18949   9.291   7.509   9.460
 6236WAT     H118950   9.374   7.555   9.428
 6236WAT     H218951   9.288   7.417   9.422
 6237WAT      O18952   9.379   4.888   3.955
 6237WAT     H118953   9.347   4.801   3.991
 6237WAT     H218954   9.472   4.905   3.988
 6238WAT      O18955   2.553   4.158   9.226
 6238WAT     H118956   2.646   4.121   9.235
 6238WAT     H218957   2.519   4.141   9.133
 6239WAT      O18958   0.736   2.558   1.933
 6239WAT     H118959   0.795   2.597   2.003
 6239WAT     H218960   0.660   2.509   1.976
 6240WAT      O18961   2.817   9.336   4.355
 6240WAT     H118962   2.742   9.274   4.333
 6240WAT     H218963   2.893   9.321   4.292
 6241WAT      O18964   6.323   9.204   6.396
 6241WAT     H118965   6.305   9.277   6.330
 6241WAT     H218966   6.271   9.123   6.370
 6242WAT      O18967   8.572   8.688   6.728
 6242WAT     H118968   8.598   8.765   6.787
 6242WAT     H218969   8.584   8.714   6.632
 6243WAT      O18970   8.366   1.224   1.943
 6243WAT     H118971   8.392   1.141   1.893
 6243WAT     H218972   8.342   1.199   2.037
 6244WAT      O18973   0.997   7.476   0.818
 6244WAT     H118974   1.057   7.396   0.824
 6244WAT     H218975   0.995   7.510   0.724
 6245WAT      O18976   9.776   5.563   6.471
 6245WAT     H118977   9.836   5.642   6.486
 6245WAT     H218978   9.829   5.479   6.480
 6246WAT      O18979   7.117   2.254   5.564
 6246WAT     H118980   7.112   2.352   5.544
 6246WAT     H218981   7.050   2.230   5.634
 6247WAT      O18982   9.358   6.344   2.752
 6247WAT     H118983   9.298   6.270   2.783
 6247WAT     H218984   9.355   6.349   2.652
 6248WAT      O18985   0.163   5.598   8.646
 6248WAT     H118986   0.130   5.684   8.685
 6248WAT     H218987   0.144   5.524   8.710
 6249WAT      O18988   5.997   7.527   2.615
 6249WAT     H118989   5.983   7.465   2.537
 6249WAT     H218990   6.039   7.477   2.690
 6250WAT      O18991   2.922   8.641   8.480
 6250WAT     H118992   2.909   8.696   8.563
 6250WAT     H218993   2.841   8.649   8.422
 6251WAT      O18994   7.570   5.796   9.714
 6251WAT     H118995   7.541   5.884   9.676
 6251WAT     H218996   7.490   5.736   9.724
 6252WAT      O18997   0.434   5.861   1.084
 6252WAT     H118998   0.429   5.796   1.159
 6252WAT     H218999   0.344   5.868   1.040
 6253WAT      O19000   7.175   8.908   7.896
 6253WAT     H119001   7.158   8.811   7.916
 6253WAT     H219002   7.268   8.919   7.862
 6254WAT      O19003   4.049   1.662   5.124
 6254WAT     H119004   4.068   1.727   5.050
 6254WAT     H219005   4.018   1.712   5.205
 6255WAT      O19006   2.603   5.000   8.678
 6255WAT     H119007   2.641   4.991   8.586
 6255WAT     H219008   2.509   5.035   8.672
 6256WAT      O19009   3.422   6.183   1.800
 6256WAT     H119010   3.443   6.116   1.729
 6256WAT     H219011   3.340   6.153   1.850
 6257WAT      O19012   2.650   7.290   3.600
 6257WAT     H119013   2.746   7.276   3.622
 6257WAT     H219014   2.594   7.226   3.652
 6258WAT      O19015   5.867   6.453   2.957
 6258WAT     H119016   5.814   6.535   2.935
 6258WAT     H219017   5.933   6.436   2.884
 6259WAT      O19018   2.436   0.898   4.294
 6259WAT     H119019   2.395   0.812   4.263
 6259WAT     H219020   2.483   0.883   4.381
 6260WAT      O19021   2.830   4.042   4.272
 6260WAT     H119022   2.817   3.943   4.275
 6260WAT     H219023   2.908   4.064   4.213
 6261WAT      O19024   9.123   8.495   0.954
 6261WAT     H119025   9.060   8.541   0.892
 6261WAT     H219026   9.182   8.562   0.998
 6262WAT      O19027   5.564   9.197   5.148
 6262WAT     H119028   5.473   9.192   5.190
 6262WAT     H219029   5.616   9.270   5.191
 6263WAT      O19030   8.469   7.180   8.811
 6263WAT     H119031   8.435   7.225   8.728
 6263WAT     H219032   8.468   7.245   8.887
 6264WAT      O19033   1.926   8.701   3.729
 6264WAT     H119034   1.956   8.637   3.800
 6264WAT     H219035   1.951   8.794   3.756
 6265WAT      O19036   7.949   0.733   8.361
 6265WAT     H119037   8.013   0.740   8.285
 6265WAT     H219038   7.946   0.638   8.393
 6266WAT      O19039   5.698   2.896   3.203
 6266WAT     H119040   5.664   2.823   3.262
 6266WAT     H219041   5.623   2.960   3.182
 6267WAT      O19042   7.715   1.103   3.632
 6267WAT     H119043   7.698   1.197   3.662
 6267WAT     H219044   7.796   1.068   3.680
 6268WAT      O19045   7.475   1.066   2.443
 6268WAT     H119046   7.517   1.017   2.366
 6268WAT     H219047   7.471   1.164   2.422
 6269WAT      O19048   0.146   9.295   8.990
 6269WAT     H119049   0.138   9.220   8.926
 6269WAT     H219050   0.202   9.267   9.068
 6270WAT      O19051   1.842   2.853   4.592
 6270WAT     H119052   1.760   2.905   4.566
 6270WAT     H219053   1.838   2.830   4.689
 6271WAT      O19054   2.247   6.072   0.596
 6271WAT     H119055   2.278   6.157   0.554
 6271WAT     H219056   2.320   6.034   0.654
 6272WAT      O19057   9.127   9.635   0.739
 6272WAT     H119058   9.106   9.715   0.684
 6272WAT     H219059   9.081   9.642   0.828
 6273WAT      O19060   9.589   1.669   2.835
 6273WAT     H119061   9.604   1.763   2.803
 6273WAT     H219062   9.631   1.657   2.925
 6274WAT      O19063   9.258   9.067   8.560
 6274WAT     H119064   9.214   9.147   8.601
 6274WAT     H219065   9.294   9.008   8.633
 6275WAT      O19066   3.913   1.587   2.335
 6275WAT     H119067   3.903   1.686   2.325
 6275WAT     H219068   4.001   1.566   2.378
 6276WAT      O19069   8.635   7.180   4.498
 6276WAT     H119070   8.731   7.162   4.478
 6276WAT     H219071   8.623   7.278   4.513
 6277WAT      O19072   7.441   8.199   4.937
 6277WAT     H119073   7.455   8.255   4.856
 6277WAT     H219074   7.348   8.164   4.938
 6278WAT      O19075   4.176   6.197   5.636
 6278WAT     H119076   4.122   6.149   5.566
 6278WAT     H219077   4.116   6.255   5.691
 6279WAT      O19078   8.360   9.449   2.833
 6279WAT     H119079   8.268   9.463   2.796
 6279WAT     H219080   8.359   9.467   2.931
 6280WAT      O19081   9.416   0.160   0.016
 6280WAT     H119082   9.471   0.119  -0.057
 6280WAT     H219083   9.472   0.223   0.068
 6281WAT      O19084   6.846   2.210   0.250
 6281WAT     H119085   6.866   2.210   0.152
 6281WAT     H219086   6.910   2.150   0.297
 6282WAT      O19087   8.914   1.390   6.217
 6282WAT     H119088   8.917   1.291   6.202
 6282WAT     H219089   8.969   1.413   6.298
 6283WAT      O19090   9.029   4.201   5.772
 6283WAT     H119091   9.006   4.194   5.675
 6283WAT     H219092   8.985   4.127   5.823
 6284WAT      O19093   6.135   5.752   0.110
 6284WAT     H119094   6.053   5.796   0.145
 6284WAT     H219095   6.168   5.684   0.176
 6285WAT      O19096   4.847   4.143   9.047
 6285WAT     H119097   4.925   4.184   9.094
 6285WAT     H219098   4.774   4.126   9.114
 6286WAT      O19099   5.573   4.503   4.389
 6286WAT     H119100   5.615   4.594   4.390
 6286WAT     H219101   5.643   4.434   4.405
 6287WAT      O19102   9.277   0.312   1.562
 6287WAT     H119103   9.227   0.272   1.639
 6287WAT     H219104   9.317   0.240   1.506
 6288WAT      O19105   9.840   8.393   6.161
 6288WAT     H119106   9.908   8.447   6.211
 6288WAT     H219107   9.827   8.432   6.070
 6289WAT      O19108   9.849   4.314   8.936
 6289WAT     H119109   9.918   4.256   8.893
 6289WAT     H219110   9.820   4.385   8.871
 6290WAT      O19111   5.510   0.432   3.180
 6290WAT     H119112   5.539   0.429   3.275
 6290WAT     H219113   5.572   0.377   3.124
 6291WAT      O19114   3.409   2.862   8.128
 6291WAT     H119115   3.477   2.854   8.201
 6291WAT     H219116   3.318   2.843   8.165
 6292WAT      O19117   9.554   7.638   5.757
 6292WAT     H119118   9.538   7.714   5.819
 6292WAT     H219119   9.633   7.658   5.699
 6293WAT      O19120   8.859   9.840   0.859
 6293WAT     H119121   8.770   9.797   0.850
 6293WAT     H219122   8.917   9.786   0.920
 6294WAT      O19123   8.253   2.613   7.368
 6294WAT     H119124   8.193   2.537   7.345
 6294WAT     H219125   8.346   2.593   7.338
 6295WAT      O19126   5.425   8.914   3.909
 6295WAT     H119127   5.479   8.837   3.944
 6295WAT     H219128   5.328   8.899   3.932
 6296WAT      O19129   0.763   2.580   0.764
 6296WAT     H119130   0.754   2.540   0.855
 6296WAT     H219131   0.787   2.677   0.772
 6297WAT      O19132   3.420   3.836   7.895
 6297WAT     H119133   3.451   3.842   7.990
 6297WAT     H219134   3.452   3.916   7.845
 6298WAT      O19135   3.762   7.010   4.186
 6298WAT     H119136   3.859   7.013   4.164
 6298WAT     H219137   3.716   6.943   4.128
 6299WAT      O19138   3.524   6.184   8.096
 6299WAT     H119139   3.565   6.128   8.024
 6299WAT     H219140   3.436   6.144   8.123
 6300WAT      O19141   8.718   4.764   3.290
 6300WAT     H119142   8.807   4.727   3.265
 6300WAT     H219143   8.718   4.789   3.387
 6301WAT      O19144   1.258   4.770   8.943
 6301WAT     H119145   1.232   4.867   8.938
 6301WAT     H219146   1.329   4.759   9.013
 6302WAT      O19147   0.769   3.218   8.085
 6302WAT     H119148   0.860   3.243   8.054
 6302WAT     H219149   0.766   3.222   8.185
 6303WAT      O19150   9.851   4.145   2.925
 6303WAT     H119151   9.804   4.141   3.013
 6303WAT     H219152   9.950   4.151   2.939
 6304WAT      O19153   6.259   9.313   2.660
 6304WAT     H119154   6.324   9.237   2.655
 6304WAT     H219155   6.242   9.337   2.756
 6305WAT      O19156   1.549   7.128   3.470
 6305WAT     H119157   1.615   7.065   3.431
 6305WAT     H219158   1.483   7.155   3.401
 6306WAT      O19159   7.582   6.102   0.538
 6306WAT     H119160   7.597   6.004   0.530
 6306WAT     H219161   7.591   6.129   0.634
 6307WAT      O19162   9.059   2.181   9.379
 6307WAT     H119163   9.039   2.256   9.316
 6307WAT     H219164   9.119   2.114   9.335
 6308WAT      O19165   3.464   3.252   6.641
 6308WAT     H119166   3.455   3.239   6.740
 6308WAT     H219167   3.421   3.338   6.615
 6309WAT      O19168   3.471   4.440   5.370
 6309WAT     H119169   3.377   4.473   5.381
 6309WAT     H219170   3.532   4.517   5.352
 6310WAT      O19171   2.322   9.727   8.022
 6310WAT     H119172   2.261   9.731   7.942
 6310WAT     H219173   2.301   9.803   8.083
 6311WAT      O19174   0.152   9.566   8.530
 6311WAT     H119175   0.231   9.552   8.469
 6311WAT     H219176   0.133   9.663   8.537
 6312WAT      O19177   2.972   4.592   7.436
 6312WAT     H119178   2.965   4.516   7.501
 6312WAT     H219179   3.065   4.597   7.400
 6313WAT      O19180   2.503   0.185   5.364
 6313WAT     H119181   2.596   0.210   5.337
 6313WAT     H219182   2.440   0.205   5.289
 6314WAT      O19183   3.746   6.892   5.651
 6314WAT     H119184   3.669   6.833   5.627
 6314WAT     H219185   3.832   6.848   5.623
 6315WAT      O19186   6.584   5.726   6.734
 6315WAT     H119187   6.560   5.803   6.675
 6315WAT     H219188   6.505   5.702   6.791
 6316WAT      O19189   8.660   4.636   0.019
 6316WAT     H119190   8.604   4.692  -0.042
 6316WAT     H219191   8.666   4.543  -0.017
 6317WAT      O19192   8.637   1.378   7.524
 6317WAT     H119193   8.608   1.359   7.430
 6317WAT     H219194   8.562   1.361   7.587
 6318WAT      O19195   1.873   4.116   6.152
 6318WAT     H119196   1.816   4.198   6.154
 6318WAT     H219197   1.816   4.036   6.174
 6319WAT      O19198   2.547   3.507   5.340
 6319WAT     H119199   2.592   3.472   5.423
 6319WAT     H219200   2.542   3.434   5.272
 6320WAT      O19201   7.842   2.150   6.100
 6320WAT     H119202   7.939   2.170   6.115
 6320WAT     H219203   7.832   2.057   6.066
 6321WAT      O19204   6.609   3.118   4.904
 6321WAT     H119205   6.665   3.078   4.977
 6321WAT     H219206   6.656   3.198   4.866
 6322WAT      O19207   7.846   1.113   0.867
 6322WAT     H119208   7.897   1.190   0.905
 6322WAT     H219209   7.834   1.125   0.769
 6323WAT      O19210   7.742   7.313   5.742
 6323WAT     H119211   7.728   7.214   5.738
 6323WAT     H219212   7.658   7.358   5.771
 6324WAT      O19213   1.699   6.399   0.798
 6324WAT     H119214   1.633   6.324   0.806
 6324WAT     H219215   1.684   6.448   0.711
 6325WAT      O19216   3.228   4.659   5.541
 6325WAT     H119217   3.146   4.663   5.598
 6325WAT     H219218   3.301   4.611   5.591
 6326WAT      O19219   9.213   3.482   7.140
 6326WAT     H119220   9.158   3.443   7.214
 6326WAT     H219221   9.178   3.450   7.052
 6327WAT      O19222   7.298   0.120   1.866
 6327WAT     H119223   7.343   0.209   1.860
 6327WAT     H219224   7.201   0.133   1.886
 6328WAT      O19225   5.915   2.344   4.713
 6328WAT     H119226   5.902   2.442   4.730
 6328WAT     H219227   6.010   2.328   4.685
 6329WAT      O19228   9.052   9.437   7.186
 6329WAT     H119229   9.144   9.399   7.181
 6329WAT     H219230   8.989   9.378   7.134
 6330WAT      O19231   3.791   1.303   0.377
 6330WAT     H119232   3.715   1.281   0.315
 6330WAT     H219233   3.813   1.400   0.370
 6331WAT      O19234   1.643   9.713   5.858
 6331WAT     H119235   1.623   9.765   5.775
 6331WAT     H219236   1.710   9.641   5.836
 6332WAT      O19237   3.522   5.788   3.045
 6332WAT     H119238   3.494   5.883   3.034
 6332WAT     H219239   3.456   5.728   3.000
 6333WAT      O19240   3.186   5.825   6.773
 6333WAT     H119241   3.274   5.870   6.794
 6333WAT     H219242   3.199   5.760   6.698
 6334WAT      O19243   0.512   9.260   1.701
 6334WAT     H119244   0.559   9.248   1.789
 6334WAT     H219245   0.524   9.178   1.645
 6335WAT      O19246   3.230   7.740   4.182
 6335WAT     H119247   3.139   7.767   4.214
 6335WAT     H219248   3.259   7.657   4.229
 6336WAT      O19249   0.838   9.697   3.335
 6336WAT     H119250   0.880   9.735   3.253
 6336WAT     H219251   0.767   9.760   3.369
 6337WAT      O19252   6.152   5.574   3.808
 6337WAT     H119253   6.092   5.506   3.767
 6337WAT     H219254   6.153   5.562   3.907
 6338WAT      O19255   0.724   1.953   8.297
 6338WAT     H119256   0.772   1.870   8.327
 6338WAT     H219257   0.626   1.942   8.313
 6339WAT      O19258   9.429   2.160   0.150
 6339WAT     H119259   9.423   2.082   0.088
 6339WAT     H219260   9.354   2.156   0.216
 6340WAT      O19261   5.743   8.038   1.768
 6340WAT     H119262   5.665   8.009   1.824
 6340WAT     H219263   5.821   8.058   1.826
 6341WAT      O19264   0.579   2.649   7.623
 6341WAT     H119265   0.583   2.743   7.657
 6341WAT     H219266   0.492   2.608   7.649
 6342WAT      O19267   7.067   6.907   7.822
 6342WAT     H119268   7.007   6.975   7.780
 6342WAT     H219269   7.016   6.823   7.839
 6343WAT      O19270   8.017   0.658   3.535
 6343WAT     H119271   7.985   0.745   3.499
 6343WAT     H219272   8.012   0.589   3.463
 6344WAT      O19273   4.535   1.306   9.343
 6344WAT     H119274   4.548   1.219   9.389
 6344WAT     H219275   4.568   1.299   9.249
 6345WAT      O19276   7.803   3.058   7.994
 6345WAT     H119277   7.764   2.998   7.924
 6345WAT     H219278   7.776   3.153   7.975
 6346WAT      O19279   9.645   3.714   4.536
 6346WAT     H119280   9.651   3.730   4.634
 6346WAT     H219281   9.736   3.720   4.495
 6347WAT      O19282   2.185   2.191   5.730
 6347WAT     H119283   2.228   2.184   5.640
 6347WAT     H219284   2.214   2.276   5.774
 6348WAT      O19285   1.661   2.914   1.531
 6348WAT     H119286   1.664   2.816   1.514
 6348WAT     H219287   1.607   2.959   1.460
 6349WAT      O19288   2.392   0.705   6.230
 6349WAT     H119289   2.451   0.637   6.273
 6349WAT     H219290   2.314   0.660   6.187
 6350WAT      O19291   1.321   9.111   8.340
 6350WAT     H119292   1.372   9.058   8.273
 6350WAT     H219293   1.289   9.052   8.414
 6351WAT      O19294   4.852   5.721   7.643
 6351WAT     H119295   4.760   5.757   7.658
 6351WAT     H219296   4.916   5.760   7.709
 6352WAT      O19297   8.838   5.392   9.273
 6352WAT     H119298   8.874   5.482   9.297
 6352WAT     H219299   8.911   5.336   9.234
 6353WAT      O19300   6.514   5.108   5.430
 6353WAT     H119301   6.591   5.111   5.493
 6353WAT     H219302   6.541   5.147   5.342
 6354WAT      O19303   8.844   6.247   7.181
 6354WAT     H119304   8.748   6.219   7.180
 6354WAT     H219305   8.873   6.266   7.087
 6355WAT      O19306   6.193   0.123   3.363
 6355WAT     H119307   6.109   0.067   3.357
 6355WAT     H219308   6.271   0.063   3.382
 6356WAT      O19309   3.671   9.183   4.886
 6356WAT     H119310   3.656   9.258   4.950
 6356WAT     H219311   3.586   9.163   4.837
 6357WAT      O19312   4.668   6.905   8.722
 6357WAT     H119313   4.650   6.807   8.729
 6357WAT     H219314   4.601   6.955   8.777
 6358WAT      O19315   4.571   4.490   7.264
 6358WAT     H119316   4.555   4.562   7.196
 6358WAT     H219317   4.484   4.443   7.283
 6359WAT      O19318   1.680   1.109   1.772
 6359WAT     H119319   1.702   1.174   1.845
 6359WAT     H219320   1.633   1.157   1.698
 6360WAT      O19321   0.881   2.066   0.752
 6360WAT     H119322   0.860   2.117   0.668
 6360WAT     H219323   0.797   2.049   0.802
 6361WAT      O19324   0.415   2.727   9.581
 6361WAT     H119325   0.348   2.653   9.577
 6361WAT     H219326   0.367   2.815   9.586
 6362WAT      O19327   4.122   0.540   7.856
 6362WAT     H119328   4.198   0.523   7.920
 6362WAT     H219329   4.047   0.585   7.904
 6363WAT      O19330   3.088   9.487   5.833
 6363WAT     H119331   3.094   9.556   5.761
 6363WAT     H219332   3.052   9.530   5.917
 6364WAT      O19333   9.870   9.611   8.323
 6364WAT     H119334   9.955   9.594   8.372
 6364WAT     H219335   9.794   9.569   8.371
 6365WAT      O19336   7.462   7.673   3.486
 6365WAT     H119337   7.417   7.685   3.397
 6365WAT     H219338   7.465   7.761   3.533
 6366WAT      O19339   2.449   4.160   2.427
 6366WAT     H119340   2.493   4.247   2.450
 6366WAT     H219341   2.441   4.105   2.511
 6367WAT      O19342   7.525   9.361   5.670
 6367WAT     H119343   7.469   9.321   5.743
 6367WAT     H219344   7.493   9.329   5.582
 6368WAT      O19345   0.216   4.521   5.159
 6368WAT     H119346   0.218   4.473   5.247
 6368WAT     H219347   0.308   4.522   5.120
 6369WAT      O19348   3.358   4.919   6.074
 6369WAT     H119349   3.388   4.941   6.167
 6369WAT     H219350   3.325   4.825   6.071
 6370WAT      O19351   5.723   8.932   2.690
 6370WAT     H119352   5.674   8.991   2.626
 6370WAT     H219353   5.754   8.986   2.768
 6371WAT      O19354   6.682   5.356   9.158
 6371WAT     H119355   6.749   5.404   9.215
 6371WAT     H219356   6.599   5.339   9.210
 6372WAT      O19357   9.200   8.211   2.508
 6372WAT     H119358   9.170   8.286   2.566
 6372WAT     H219359   9.165   8.125   2.545
 6373WAT      O19360   0.047   5.362   3.510
 6373WAT     H119361   0.133   5.409   3.529
 6373WAT     H219362   0.054   5.316   3.421
 6374WAT      O19363   2.582   8.464   5.900
 6374WAT     H119364   2.625   8.376   5.921
 6374WAT     H219365   2.653   8.532   5.881
 6375WAT      O19366   8.254   9.013   2.165
 6375WAT     H119367   8.180   9.006   2.098
 6375WAT     H219368   8.340   8.987   2.121
 6376WAT      O19369   5.567   1.794   0.764
 6376WAT     H119370   5.638   1.741   0.717
 6376WAT     H219371   5.601   1.824   0.853
 6377WAT      O19372   3.492   6.274   9.454
 6377WAT     H119373   3.503   6.190   9.508
 6377WAT     H219374   3.422   6.260   9.385
 6378WAT      O19375   0.885   4.530   4.679
 6378WAT     H119376   0.942   4.485   4.748
 6378WAT     H219377   0.838   4.460   4.625
 6379WAT      O19378   1.598   6.823   4.120
 6379WAT     H119379   1.685   6.866   4.142
 6379WAT     H219380   1.525   6.891   4.125
 6380WAT      O19381   2.443   6.122   4.387
 6380WAT     H119382   2.451   6.205   4.331
 6380WAT     H219383   2.381   6.139   4.463
 6381WAT      O19384   0.029   8.771   7.738
 6381WAT     H119385   0.006   8.848   7.678
 6381WAT     H219386  -0.014   8.785   7.828
 6382WAT      O19387   9.100   4.556   7.805
 6382WAT     H119388   9.198   4.576   7.809
 6382WAT     H219389   9.080   4.502   7.724
 6383WAT      O19390   9.597   2.956   1.381
 6383WAT     H119391   9.695   2.950   1.363
 6383WAT     H219392   9.559   3.035   1.333
 6384WAT      O19393   4.120   7.003   1.348
 6384WAT     H119394   4.168   6.934   1.403
 6384WAT     H219395   4.108   7.086   1.402
 6385WAT      O19396   3.198   0.225   3.782
 6385WAT     H119397   3.171   0.157   3.714
 6385WAT     H219398   3.237   0.305   3.736
 6386WAT      O19399   5.725   5.761   8.245
 6386WAT     H119400   5.701   5.838   8.185
 6386WAT     H219401   5.691   5.676   8.205
 6387WAT      O19402   6.190   2.501   7.698
 6387WAT     H119403   6.176   2.460   7.608
 6387WAT     H219404   6.144   2.590   7.701
 6388WAT      O19405   7.214   0.074   5.537
 6388WAT     H119406   7.198   0.141   5.464
 6388WAT     H219407   7.261  -0.006   5.499
 6389WAT      O19408   6.615   5.439   1.881
 6389WAT     H119409   6.661   5.494   1.812
 6389WAT     H219410   6.676   5.366   1.913
 6390WAT      O19411   6.372   5.786   8.217
 6390WAT     H119412   6.284   5.822   8.245
 6390WAT     H219413   6.388   5.698   8.260
 6391WAT      O19414   6.205   8.509   1.428
 6391WAT     H119415   6.177   8.539   1.519
 6391WAT     H219416   6.274   8.572   1.392
 6392WAT      O19417   1.266   3.112   0.952
 6392WAT     H119418   1.191   3.076   0.895
 6392WAT     H219419   1.239   3.198   0.994
 6393WAT      O19420   9.433   4.982   1.061
 6393WAT     H119421   9.480   4.959   0.976
 6393WAT     H219422   9.335   4.988   1.044
 6394WAT      O19423   7.411   4.726   5.169
 6394WAT     H119424   7.414   4.666   5.090
 6394WAT     H219425   7.349   4.802   5.150
 6395WAT      O19426   9.403   1.054   7.128
 6395WAT     H119427   9.428   1.064   7.224
 6395WAT     H219428   9.420   1.140   7.080
 6396WAT      O19429   6.954   5.127   4.027
 6396WAT     H119430   6.855   5.135   4.038
 6396WAT     H219431   6.998   5.135   4.116
 6397WAT      O19432   9.074   2.685   2.105
 6397WAT     H119433   9.030   2.696   2.194
 6397WAT     H219434   9.148   2.618   2.113
 6398WAT      O19435   2.309   7.570   1.702
 6398WAT     H119436   2.331   7.498   1.636
 6398WAT     H219437   2.247   7.636   1.660
 6399WAT      O19438   6.785   3.076   5.124
 6399WAT     H119439   6.870   3.027   5.102
 6399WAT     H219440   6.756   3.051   5.216
 6400WAT      O19441   9.610   9.158   6.928
 6400WAT     H119442   9.633   9.189   6.836
 6400WAT     H219443   9.691   9.119   6.972
 6401WAT      O19444   9.876   9.136   8.482
 6401WAT     H119445   9.898   9.041   8.500
 6401WAT     H219446   9.917   9.194   8.553
 6402WAT      O19447   5.705   5.487   7.923
 6402WAT     H119448   5.769   5.421   7.961
 6402WAT     H219449   5.753   5.549   7.861
 6403WAT      O19450   8.934   6.970   2.601
 6403WAT     H119451   8.933   7.007   2.694
 6403WAT     H219452   8.919   7.044   2.536
 6404WAT      O19453   6.977   1.455   6.084
 6404WAT     H119454   7.009   1.529   6.025
 6404WAT     H219455   7.046   1.383   6.088
 6405WAT      O19456   1.199   0.164   1.204
 6405WAT     H119457   1.107   0.130   1.182
 6405WAT     H219458   1.208   0.175   1.303
 6406WAT      O19459   9.164   4.067   5.358
 6406WAT     H119460   9.237   4.037   5.297
 6406WAT     H219461   9.154   4.002   5.433
 6407WAT      O19462   4.881   6.463   6.453
 6407WAT     H119463   4.792   6.460   6.409
 6407WAT     H219464   4.880   6.404   6.534
 6408WAT      O19465   2.829   7.582   0.171
 6408WAT     H119466   2.738   7.565   0.132
 6408WAT     H219467   2.897   7.576   0.099
 6409WAT      O19468   4.626   5.059   8.382
 6409WAT     H119469   4.663   5.115   8.456
 6409WAT     H219470   4.699   5.038   8.317
 6410WAT      O19471   3.117   0.821   7.328
 6410WAT     H119472   3.044   0.889   7.324
 6410WAT     H219473   3.152   0.814   7.422
 6411WAT      O19474   7.322   2.941   9.316
 6411WAT     H119475   7.387   2.865   9.314
 6411WAT     H219476   7.291   2.956   9.410
 6412WAT      O19477   2.579   8.075   4.719
 6412WAT     H119478   2.569   8.022   4.634
 6412WAT     H219479   2.515   8.152   4.719
 6413WAT      O19480   9.269   7.647   6.447
 6413WAT     H119481   9.219   7.729   6.474
 6413WAT     H219482   9.329   7.619   6.522
 6414WAT      O19483   0.866   8.537   7.363
 6414WAT     H119484   0.766   8.539   7.367
 6414WAT     H219485   0.903   8.586   7.443
 6415WAT      O19486   5.829   3.025   1.787
 6415WAT     H119487   5.832   3.117   1.747
 6415WAT     H219488   5.921   2.999   1.815
 6416WAT      O19489   5.699   1.718   1.636
 6416WAT     H119490   5.777   1.670   1.595
 6416WAT     H219491   5.678   1.799   1.581
 6417WAT      O19492   6.660   1.827   9.041
 6417WAT     H119493   6.569   1.788   9.024
 6417WAT     H219494   6.660   1.874   9.129
 6418WAT      O19495   3.459   3.967   1.438
 6418WAT     H119496   3.482   3.899   1.507
 6418WAT     H219497   3.425   3.921   1.355
 6419WAT      O19498   8.732   6.056   0.364
 6419WAT     H119499   8.762   6.151   0.370
 6419WAT     H219500   8.687   6.041   0.276
 6420WAT      O19501   7.283   4.838   4.095
 6420WAT     H119502   7.257   4.743   4.074
 6420WAT     H219503   7.215   4.900   4.055
 6421WAT      O19504   8.280   5.443   8.515
 6421WAT     H119505   8.335   5.488   8.587
 6421WAT     H219506   8.330   5.365   8.480
 6422WAT      O19507   0.269   2.243   9.644
 6422WAT     H119508   0.337   2.244   9.718
 6422WAT     H219509   0.275   2.157   9.594
 6423WAT      O19510   2.005   8.213   0.336
 6423WAT     H119511   1.943   8.244   0.264
 6423WAT     H219512   2.036   8.291   0.391
 6424WAT      O19513   3.863   5.969   6.897
 6424WAT     H119514   3.949   5.970   6.847
 6424WAT     H219515   3.865   5.896   6.965
 6425WAT      O19516   2.783   6.967   2.576
 6425WAT     H119517   2.752   6.970   2.481
 6425WAT     H219518   2.879   6.993   2.581
 6426WAT      O19519   6.023   9.686   8.233
 6426WAT     H119520   5.981   9.754   8.293
 6426WAT     H219521   6.046   9.729   8.145
 6427WAT      O19522   0.359   7.999   4.853
 6427WAT     H119523   0.451   7.972   4.881
 6427WAT     H219524   0.338   8.090   4.887
 6428WAT      O19525   6.903   1.245   3.610
 6428WAT     H119526   6.845   1.252   3.692
 6428WAT     H219527   6.846   1.253   3.528
 6429WAT      O19528   1.112   0.506   7.886
 6429WAT     H119529   1.164   0.536   7.806
 6429WAT     H219530   1.069   0.586   7.929
 6430WAT      O19531   2.093   2.904   8.731
 6430WAT     H119532   2.078   2.984   8.789
 6430WAT     H219533   2.070   2.927   8.636
 6431WAT      O19534   5.215   6.637   5.462
 6431WAT     H119535   5.211   6.717   5.402
 6431WAT     H219536   5.309   6.606   5.470
 6432WAT      O19537   7.561   0.695   8.871
 6432WAT     H119538   7.553   0.706   8.970
 6432WAT     H219539   7.477   0.655   8.836
 6433WAT      O19540   5.385   0.650   9.707
 6433WAT     H119541   5.330   0.732   9.720
 6433WAT     H219542   5.394   0.601   9.793
 6434WAT      O19543   9.043   3.656   0.986
 6434WAT     H119544   9.019   3.572   0.938
 6434WAT     H219545   9.066   3.728   0.920
 6435WAT      O19546   2.928   3.259   3.759
 6435WAT     H119547   2.906   3.349   3.721
 6435WAT     H219548   2.914   3.261   3.858
 6436WAT      O19549   1.012   2.659   8.057
 6436WAT     H119550   0.936   2.678   7.996
 6436WAT     H219551   0.981   2.665   8.152
 6437WAT      O19552   0.501   2.468   3.998
 6437WAT     H119553   0.449   2.549   4.026
 6437WAT     H219554   0.598   2.484   4.013
 6438WAT      O19555   1.055   3.820   4.934
 6438WAT     H119556   1.153   3.840   4.939
 6438WAT     H219557   1.018   3.856   4.848
 6439WAT      O19558   8.300   3.839   9.607
 6439WAT     H119559   8.385   3.787   9.601
 6439WAT     H219560   8.268   3.838   9.702
 6440WAT      O19561   1.248   9.229   9.778
 6440WAT     H119562   1.306   9.162   9.732
 6440WAT     H219563   1.279   9.242   9.872
 6441WAT      O19564   0.795   8.520   8.989
 6441WAT     H119565   0.791   8.495   9.086
 6441WAT     H219566   0.732   8.595   8.972
 6442WAT      O19567   4.267   0.706   5.663
 6442WAT     H119568   4.267   0.704   5.763
 6442WAT     H219569   4.355   0.739   5.631
 6443WAT      O19570   1.460   0.626   2.978
 6443WAT     H119571   1.372   0.671   2.958
 6443WAT     H219572   1.477   0.555   2.910
 6444WAT      O19573   5.516   2.396   6.726
 6444WAT     H119574   5.538   2.361   6.817
 6444WAT     H219575   5.559   2.485   6.714
 6445WAT      O19576   1.618   3.153   5.858
 6445WAT     H119577   1.690   3.091   5.827
 6445WAT     H219578   1.660   3.233   5.901
 6446WAT      O19579   1.049   6.280   2.885
 6446WAT     H119580   1.136   6.230   2.886
 6446WAT     H219581   1.024   6.305   2.979
 6447WAT      O19582   7.484   4.657   3.764
 6447WAT     H119583   7.500   4.744   3.810
 6447WAT     H219584   7.397   4.618   3.794
 6448WAT      O19585   5.355   9.117   6.489
 6448WAT     H119586   5.358   9.017   6.491
 6448WAT     H219587   5.314   9.148   6.403
 6449WAT      O19588   4.436   5.524   7.569
 6449WAT     H119589   4.468   5.446   7.515
 6449WAT     H219590   4.337   5.528   7.567
 6450WAT      O19591   0.677   1.060   7.287
 6450WAT     H119592   0.658   1.151   7.322
 6450WAT     H219593   0.741   1.013   7.347
 6451WAT      O19594   4.585   5.276   3.020
 6451WAT     H119595   4.497   5.244   3.054
 6451WAT     H219596   4.610   5.361   3.067
 6452WAT      O19597   0.471   0.541   6.050
 6452WAT     H119598   0.507   0.615   5.993
 6452WAT     H219599   0.458   0.574   6.144
 6453WAT      O19600   7.397   7.034   8.034
 6453WAT     H119601   7.426   7.126   8.010
 6453WAT     H219602   7.299   7.033   8.054
 6454WAT      O19603   1.548   5.609   1.260
 6454WAT     H119604   1.555   5.610   1.360
 6454WAT     H219605   1.640   5.612   1.221
 6455WAT      O19606   4.313   1.822   3.930
 6455WAT     H119607   4.265   1.780   3.853
 6455WAT     H219608   4.248   1.838   4.004
 6456WAT      O19609   0.018   3.675   8.510
 6456WAT     H119610   0.040   3.661   8.607
 6456WAT     H219611   0.102   3.676   8.456
 6457WAT      O19612   6.775   4.483   4.132
 6457WAT     H119613   6.687   4.436   4.142
 6457WAT     H219614   6.794   4.498   4.035
 6458WAT      O19615   8.596   8.562   5.886
 6458WAT     H119616   8.497   8.568   5.895
 6458WAT     H219617   8.640   8.610   5.961
 6459WAT      O19618   2.447   7.947   4.439
 6459WAT     H119619   2.546   7.933   4.451
 6459WAT     H219620   2.429   7.976   4.346
 6460WAT      O19621   3.404   9.326   3.273
 6460WAT     H119622   3.306   9.306   3.267
 6460WAT     H219623   3.441   9.336   3.181
 6461WAT      O19624   4.460   4.577   1.599
 6461WAT     H119625   4.449   4.519   1.518
 6461WAT     H219626   4.493   4.667   1.572
 6462WAT      O19627   7.227   4.490   8.386
 6462WAT     H119628   7.197   4.459   8.476
 6462WAT     H219629   7.236   4.411   8.325
 6463WAT      O19630   0.971   4.431   3.994
 6463WAT     H119631   0.896   4.365   4.002
 6463WAT     H219632   0.935   4.518   3.961
 6464WAT      O19633   8.757   9.557   4.589
 6464WAT     H119634   8.796   9.638   4.631
 6464WAT     H219635   8.731   9.491   4.660
 6465WAT      O19636   2.557   5.970   1.616
 6465WAT     H119637   2.609   5.954   1.700
 6465WAT     H219638   2.513   5.885   1.588
 6466WAT      O19639   7.862   4.976   7.368
 6466WAT     H119640   7.767   4.944   7.359
 6466WAT     H219641   7.892   4.965   7.462
 6467WAT      O19642   0.223   8.665   1.640
 6467WAT     H119643   0.221   8.587   1.702
 6467WAT     H219644   0.137   8.670   1.590
 6468WAT      O19645   1.786   9.121   3.953
 6468WAT     H119646   1.800   9.216   3.924
 6468WAT     H219647   1.866   9.066   3.931
 6469WAT      O19648   8.783   8.023   1.645
 6469WAT     H119649   8.826   7.984   1.563
 6469WAT     H219650   8.689   8.049   1.625
 6470WAT      O19651   9.513   2.471   0.990
 6470WAT     H119652   9.443   2.404   1.015
 6470WAT     H219653   9.531   2.465   0.892
 6471WAT      O19654   5.570   2.970   8.589
 6471WAT     H119655   5.486   2.978   8.642
 6471WAT     H219656   5.649   2.979   8.650
 6472WAT      O19657   3.579   2.258   4.147
 6472WAT     H119658   3.564   2.319   4.225
 6472WAT     H219659   3.561   2.307   4.062
 6473WAT      O19660   7.050   4.528   3.866
 6473WAT     H119661   6.950   4.525   3.868
 6473WAT     H219662   7.084   4.476   3.788
 6474WAT      O19663   1.374   4.105   0.397
 6474WAT     H119664   1.333   4.194   0.418
 6474WAT     H219665   1.324   4.033   0.447
 6475WAT      O19666   9.043   0.795   7.471
 6475WAT     H119667   9.081   0.737   7.543
 6475WAT     H219668   9.052   0.750   7.383
 6476WAT      O19669   1.542   8.238   5.934
 6476WAT     H119670   1.481   8.200   5.865
 6476WAT     H219671   1.490   8.298   5.995
 6477WAT      O19672   8.246   1.952   9.237
 6477WAT     H119673   8.286   1.860   9.238
 6477WAT     H219674   8.147   1.945   9.241
 6478WAT      O19675   7.508   5.300   3.146
 6478WAT     H119676   7.462   5.239   3.211
 6478WAT     H219677   7.450   5.380   3.128
 6479WAT      O19678   8.658   7.504   0.069
 6479WAT     H119679   8.721   7.562   0.121
 6479WAT     H219680   8.709   7.434   0.020
 6480WAT      O19681   4.108   4.444   9.030
 6480WAT     H119682   4.030   4.413   9.084
 6480WAT     H219683   4.124   4.380   8.955
 6481WAT      O19684   9.624   8.884   6.607
 6481WAT     H119685   9.673   8.850   6.688
 6481WAT     H219686   9.531   8.846   6.606
 6482WAT      O19687   8.315   2.082   0.165
 6482WAT     H119688   8.288   1.985   0.165
 6482WAT     H219689   8.250   2.135   0.219
 6483WAT      O19690   6.777   5.067   8.532
 6483WAT     H119691   6.719   5.079   8.612
 6483WAT     H219692   6.838   5.145   8.522
 6484WAT      O19693   7.122   3.450   0.347
 6484WAT     H119694   7.130   3.397   0.431
 6484WAT     H219695   7.213   3.469   0.311
 6485WAT      O19696   7.803   5.605   7.431
 6485WAT     H119697   7.802   5.506   7.449
 6485WAT     H219698   7.709   5.639   7.429
 6486WAT      O19699   3.335   5.104   3.530
 6486WAT     H119700   3.290   5.106   3.619
 6486WAT     H219701   3.374   5.194   3.510
 6487WAT      O19702   3.609   1.838   5.578
 6487WAT     H119703   3.655   1.758   5.538
 6487WAT     H219704   3.546   1.877   5.511
 6488WAT      O19705   7.314   0.115   9.042
 6488WAT     H119706   7.406   0.089   9.072
 6488WAT     H219707   7.307   0.106   8.943
 6489WAT      O19708   9.002   3.234   8.717
 6489WAT     H119709   9.045   3.162   8.773
 6489WAT     H219710   8.904   3.236   8.737
 6490WAT      O19711   7.452   0.464   6.494
 6490WAT     H119712   7.392   0.437   6.570
 6490WAT     H219713   7.431   0.409   6.414
 6491WAT      O19714   5.777   7.134   3.475
 6491WAT     H119715   5.722   7.123   3.558
 6491WAT     H219716   5.855   7.071   3.479
 6492WAT      O19717   1.342   6.682   7.158
 6492WAT     H119718   1.338   6.763   7.217
 6492WAT     H219719   1.318   6.601   7.211
 6493WAT      O19720   6.251   8.548   9.521
 6493WAT     H119721   6.183   8.572   9.452
 6493WAT     H219722   6.280   8.631   9.569
 6494WAT      O19723   4.107   5.131   4.220
 6494WAT     H119724   4.167   5.058   4.255
 6494WAT     H219725   4.143   5.219   4.249
 6495WAT      O19726   8.454   3.698   4.121
 6495WAT     H119727   8.496   3.788   4.119
 6495WAT     H219728   8.359   3.706   4.153
 6496WAT      O19729   4.540   5.661   4.244
 6496WAT     H119730   4.485   5.642   4.325
 6496WAT     H219731   4.481   5.691   4.169
 6497WAT      O19732   6.369   6.186   3.123
 6497WAT     H119733   6.303   6.237   3.178
 6497WAT     H219734   6.458   6.230   3.126
 6498WAT      O19735   6.573   2.390   0.557
 6498WAT     H119736   6.634   2.412   0.480
 6498WAT     H219737   6.485   2.359   0.521
 6499WAT      O19738   5.657   3.013   9.561
 6499WAT     H119739   5.635   3.108   9.538
 6499WAT     H219740   5.638   2.996   9.657
 6500WAT      O19741   1.339   5.268   0.420
 6500WAT     H119742   1.395   5.186   0.432
 6500WAT     H219743   1.380   5.327   0.350
 6501WAT      O19744   9.485   1.743   9.170
 6501WAT     H119745   9.447   1.718   9.259
 6501WAT     H219746   9.480   1.665   9.109
 6502WAT      O19747   6.904   6.293   7.299
 6502WAT     H119748   6.905   6.213   7.239
 6502WAT     H219749   6.839   6.279   7.373
 6503WAT      O19750   3.606   3.643   4.179
 6503WAT     H119751   3.703   3.667   4.188
 6503WAT     H219752   3.594   3.547   4.201
 6504WAT      O19753   0.334   9.632   1.523
 6504WAT     H119754   0.413   9.583   1.559
 6504WAT     H219755   0.350   9.731   1.532
 6505WAT      O19756   2.839   0.239   0.520
 6505WAT     H119757   2.803   0.180   0.448
 6505WAT     H219758   2.823   0.335   0.496
 6506WAT      O19759   1.321   9.308   7.140
 6506WAT     H119760   1.388   9.371   7.103
 6506WAT     H219761   1.344   9.285   7.235
 6507WAT      O19762   0.810   4.824   0.291
 6507WAT     H119763   0.727   4.771   0.305
 6507WAT     H219764   0.847   4.853   0.379
 6508WAT      O19765   2.515   3.728   8.893
 6508WAT     H119766   2.590   3.680   8.848
 6508WAT     H219767   2.541   3.823   8.910
 6509WAT      O19768   8.932   7.706   9.143
 6509WAT     H119769   8.880   7.679   9.062
 6509WAT     H219770   9.014   7.755   9.114
 6510WAT      O19771   9.204   8.298   5.931
 6510WAT     H119772   9.180   8.393   5.911
 6510WAT     H219773   9.169   8.274   6.022
 6511WAT      O19774   7.438   2.495   5.319
 6511WAT     H119775   7.526   2.516   5.275
 6511WAT     H219776   7.415   2.399   5.302
 6512WAT      O19777   5.536   8.131   5.715
 6512WAT     H119778   5.447   8.177   5.719
 6512WAT     H219779   5.533   8.049   5.772
 6513WAT      O19780   0.189   3.078   5.431
 6513WAT     H119781   0.152   3.158   5.478
 6513WAT     H219782   0.279   3.101   5.393
 6514WAT      O19783   8.865   7.482   8.168
 6514WAT     H119784   8.886   7.551   8.098
 6514WAT     H219785   8.947   7.430   8.189
 6515WAT      O19786   9.437   7.992   7.400
 6515WAT     H119787   9.498   7.918   7.430
 6515WAT     H219788   9.411   8.048   7.479
 6516WAT      O19789   7.807   5.031   6.006
 6516WAT     H119790   7.841   5.117   5.969
 6516WAT     H219791   7.882   4.980   6.047
 6517WAT      O19792   2.170   8.315   8.939
 6517WAT     H119793   2.133   8.241   8.883
 6517WAT     H219794   2.200   8.390   8.880
 6518WAT      O19795   1.565   8.863   6.098
 6518WAT     H119796   1.612   8.777   6.078
 6518WAT     H219797   1.546   8.911   6.012
 6519WAT      O19798   0.479   0.690   6.508
 6519WAT     H119799   0.560   0.651   6.552
 6519WAT     H219800   0.437   0.758   6.570
 6520WAT      O19801   0.800   6.138   8.281
 6520WAT     H119802   0.886   6.092   8.301
 6520WAT     H219803   0.748   6.085   8.214
 6521WAT      O19804   3.860   5.464   2.019
 6521WAT     H119805   3.842   5.440   1.924
 6521WAT     H219806   3.899   5.557   2.023
 6522WAT      O19807   8.368   3.559   6.680
 6522WAT     H119808   8.420   3.478   6.709
 6522WAT     H219809   8.347   3.552   6.583
 6523WAT      O19810   7.739   5.999   7.085
 6523WAT     H119811   7.656   6.041   7.050
 6523WAT     H219812   7.773   5.932   7.019
 6524WAT      O19813   8.984   1.056   5.586
 6524WAT     H119814   8.954   1.005   5.666
 6524WAT     H219815   9.080   1.081   5.597
 6525WAT      O19816   7.409   4.586   6.852
 6525WAT     H119817   7.440   4.672   6.892
 6525WAT     H219818   7.402   4.597   6.753
 6526WAT      O19819   9.146   9.178   5.307
 6526WAT     H119820   9.127   9.250   5.374
 6526WAT     H219821   9.070   9.172   5.243
 6527WAT      O19822   9.714   9.618   8.540
 6527WAT     H119823   9.696   9.714   8.519
 6527WAT     H219824   9.756   9.611   8.631
 6528WAT      O19825   7.224   7.515   5.825
 6528WAT     H119826   7.176   7.560   5.901
 6528WAT     H219827   7.199   7.558   5.739
 6529WAT      O19828   0.420   3.208   2.286
 6529WAT     H119829   0.435   3.255   2.373
 6529WAT     H219830   0.442   3.111   2.297
 6530WAT      O19831   7.065   3.874   2.187
 6530WAT     H119832   7.058   3.774   2.183
 6530WAT     H219833   7.152   3.899   2.229
 6531WAT      O19834   7.716   5.912   9.307
 6531WAT     H119835   7.741   5.919   9.211
 6531WAT     H219836   7.672   5.997   9.337
 6532WAT      O19837   3.409   1.942   7.667
 6532WAT     H119838   3.349   1.875   7.710
 6532WAT     H219839   3.407   1.930   7.568
 6533WAT      O19840   3.532   9.304   8.937
 6533WAT     H119841   3.550   9.387   8.989
 6533WAT     H219842   3.570   9.225   8.985
 6534WAT      O19843   0.390   5.698   1.584
 6534WAT     H119844   0.443   5.688   1.669
 6534WAT     H219845   0.306   5.750   1.603
 6535WAT      O19846   6.680   9.359   3.687
 6535WAT     H119847   6.616   9.286   3.664
 6535WAT     H219848   6.767   9.318   3.716
 6536WAT      O19849   5.751   2.242   1.361
 6536WAT     H119850   5.775   2.232   1.265
 6536WAT     H219851   5.816   2.302   1.406
 6537WAT      O19852   1.649   6.244   7.501
 6537WAT     H119853   1.623   6.335   7.532
 6537WAT     H219854   1.726   6.251   7.437
 6538WAT      O19855   2.039   4.714   7.800
 6538WAT     H119856   2.018   4.622   7.831
 6538WAT     H219857   1.976   4.740   7.727
 6539WAT      O19858   0.557   3.297   2.874
 6539WAT     H119859   0.479   3.339   2.923
 6539WAT     H219860   0.633   3.286   2.938
 6540WAT      O19861   2.426   3.048   1.754
 6540WAT     H119862   2.510   3.094   1.726
 6540WAT     H219863   2.445   2.951   1.773
 6541WAT      O19864   6.266   2.334   1.274
 6541WAT     H119865   6.264   2.261   1.342
 6541WAT     H219866   6.290   2.296   1.185
 6542WAT      O19867   9.106   0.411   4.721
 6542WAT     H119868   9.104   0.431   4.819
 6542WAT     H219869   9.044   0.474   4.673
 6543WAT      O19870   4.119   2.779   7.750
 6543WAT     H119871   4.203   2.731   7.725
 6543WAT     H219872   4.143   2.861   7.803
 6544WAT      O19873   1.315   0.104   1.761
 6544WAT     H119874   1.382   0.107   1.687
 6544WAT     H219875   1.243   0.171   1.742
 6545WAT      O19876   7.719   2.452   0.458
 6545WAT     H119877   7.776   2.530   0.486
 6545WAT     H219878   7.771   2.367   0.469
 6546WAT      O19879   1.153   5.043   1.356
 6546WAT     H119880   1.193   4.955   1.383
 6546WAT     H219881   1.057   5.030   1.332
 6547WAT      O19882   4.300   5.769   4.119
 6547WAT     H119883   4.205   5.794   4.139
 6547WAT     H219884   4.304   5.720   4.033
 6548WAT      O19885   0.147   9.597   4.993
 6548WAT     H119886   0.246   9.607   4.984
 6548WAT     H219887   0.104   9.603   4.903
 6549WAT      O19888   5.284   6.080   6.479
 6549WAT     H119889   5.273   6.147   6.406
 6549WAT     H219890   5.257   6.122   6.566
 6550WAT      O19891   5.362   5.433   9.707
 6550WAT     H119892   5.377   5.449   9.805
 6550WAT     H219893   5.392   5.340   9.684
 6551WAT      O19894   4.793   8.249   3.655
 6551WAT     H119895   4.869   8.310   3.633
 6551WAT     H219896   4.817   8.193   3.734
 6552WAT      O19897   8.775   4.207   9.338
 6552WAT     H119898   8.686   4.252   9.328
 6552WAT     H219899   8.761   4.115   9.373
 6553WAT      O19900   1.567   6.175   3.165
 6553WAT     H119901   1.474   6.198   3.193
 6553WAT     H219902   1.609   6.117   3.235
 6554WAT      O19903   5.424   3.436   4.443
 6554WAT     H119904   5.396   3.512   4.384
 6554WAT     H219905   5.357   3.424   4.516
 6555WAT      O19906   7.396   6.927   6.397
 6555WAT     H119907   7.303   6.904   6.368
 6555WAT     H219908   7.405   6.907   6.495
 6556WAT      O19909   3.061   8.297   8.072
 6556WAT     H119910   3.060   8.392   8.102
 6556WAT     H219911   3.156   8.267   8.061
 6557WAT      O19912   6.140   6.729   6.197
 6557WAT     H119913   6.214   6.790   6.226
 6557WAT     H219914   6.106   6.758   6.108
 6558WAT      O19915   9.679   2.282   0.154
 6558WAT     H119916   9.744   2.206   0.162
 6558WAT     H219917   9.586   2.248   0.161
 6559WAT      O19918   1.769   0.616   8.978
 6559WAT     H119919   1.774   0.536   9.038
 6559WAT     H219920   1.698   0.602   8.909
 6560WAT      O19921   2.375   1.055   0.672
 6560WAT     H119922   2.406   1.128   0.733
 6560WAT     H219923   2.275   1.054   0.669
 6561WAT      O19924   1.326   6.823   0.968
 6561WAT     H119925   1.384   6.757   0.919
 6561WAT     H219926   1.383   6.898   1.002
 6562WAT      O19927   0.724   5.724   0.088
 6562WAT     H119928   0.777   5.757   0.011
 6562WAT     H219929   0.631   5.701   0.058
 6563WAT      O19930   5.516   5.358   1.371
 6563WAT     H119931   5.615   5.361   1.384
 6563WAT     H219932   5.490   5.418   1.295
 6564WAT      O19933   9.178   8.036   9.344
 6564WAT     H119934   9.112   8.038   9.420
 6564WAT     H219935   9.157   8.110   9.280
 6565WAT      O19936   0.323   3.702   2.673
 6565WAT     H119937   0.249   3.656   2.722
 6565WAT     H219938   0.402   3.642   2.667
 6566WAT      O19939   9.802   1.188   2.400
 6566WAT     H119940   9.844   1.206   2.311
 6566WAT     H219941   9.866   1.138   2.458
 6567WAT      O19942   2.163   9.180   3.438
 6567WAT     H119943   2.260   9.172   3.418
 6567WAT     H219944   2.111   9.178   3.353
 6568WAT      O19945   6.394   8.781   0.304
 6568WAT     H119946   6.419   8.878   0.299
 6568WAT     H219947   6.317   8.771   0.367
 6569WAT      O19948   7.260   7.739   2.113
 6569WAT     H119949   7.255   7.640   2.100
 6569WAT     H219950   7.271   7.784   2.024
 6570WAT      O19951   3.527   0.951   8.203
 6570WAT     H119952   3.454   0.889   8.232
 6570WAT     H219953   3.497   1.046   8.217
 6571WAT      O19954   5.870   4.116   1.279
 6571WAT     H119955   5.824   4.051   1.339
 6571WAT     H219956   5.938   4.069   1.223
 6572WAT      O19957   9.068   5.886   3.105
 6572WAT     H119958   9.108   5.794   3.100
 6572WAT     H219959   9.044   5.917   3.013
 6573WAT      O19960   0.623   5.840   5.049
 6573WAT     H119961   0.720   5.852   5.072
 6573WAT     H219962   0.602   5.742   5.044
 6574WAT      O19963   7.834   6.161   3.397
 6574WAT     H119964   7.920   6.129   3.359
 6574WAT     H219965   7.770   6.085   3.405
 6575WAT      O19966   0.088   5.922   3.094
 6575WAT     H119967   0.008   5.914   3.153
 6575WAT     H219968   0.081   6.005   3.039
 6576WAT      O19969   0.887   5.843   2.422
 6576WAT     H119970   0.919   5.937   2.430
 6576WAT     H219971   0.823   5.837   2.345
 6577WAT      O19972   4.919   1.383   9.350
 6577WAT     H119973   4.903   1.455   9.282
 6577WAT     H219974   4.950   1.300   9.304
 6578WAT      O19975   2.316   1.923   0.968
 6578WAT     H119976   2.249   1.860   1.007
 6578WAT     H219977   2.272   1.980   0.898
 6579WAT      O19978   4.944   0.902   6.741
 6579WAT     H119979   4.934   0.993   6.782
 6579WAT     H219980   5.024   0.857   6.782
 6580WAT      O19981   8.483   1.437   7.758
 6580WAT     H119982   8.549   1.432   7.833
 6580WAT     H219983   8.492   1.524   7.710
 6581WAT      O19984   7.818   2.495   7.258
 6581WAT     H119985   7.727   2.534   7.276
 6581WAT     H219986   7.808   2.400   7.229
 6582WAT      O19987   1.428   9.715   1.899
 6582WAT     H119988   1.386   9.804   1.882
 6582WAT     H219989   1.496   9.724   1.971
 6583WAT      O19990   4.976   2.671   7.016
 6583WAT     H119991   5.076   2.671   7.012
 6583WAT     H219992   4.942   2.764   7.002
 6584WAT      O19993   1.443   3.317   9.545
 6584WAT     H119994   1.448   3.392   9.611
 6584WAT     H219995   1.504   3.336   9.468
 6585WAT      O19996   0.732   1.480   9.079
 6585WAT     H119997   0.746   1.526   8.992
 6585WAT     H219998   0.785   1.526   9.150
 6586WAT      O19999   1.426   0.253   2.471
 6586WAT     H120000   1.426   0.311   2.390
 6586WAT     H220001   1.508   0.195   2.472
 6587WAT      O20002   6.897   1.784   3.952
 6587WAT     H120003   6.922   1.770   3.857
 6587WAT     H220004   6.963   1.738   4.011
 6588WAT      O20005   8.498   3.740   1.944
 6588WAT     H120006   8.576   3.693   1.985
 6588WAT     H220007   8.466   3.689   1.864
 6589WAT      O20008   3.818   1.663   9.805
 6589WAT     H120009   3.905   1.697   9.769
 6589WAT     H220010   3.822   1.563   9.813
 6590WAT      O20011   8.525   1.522   6.039
 6590WAT     H120012   8.571   1.496   6.124
 6590WAT     H220013   8.523   1.622   6.031
 6591WAT      O20014   6.744   5.269   0.344
 6591WAT     H120015   6.689   5.331   0.401
 6591WAT     H220016   6.812   5.223   0.401
 6592WAT      O20017   6.213   6.351   9.140
 6592WAT     H120018   6.237   6.448   9.135
 6592WAT     H220019   6.131   6.340   9.197
 6593WAT      O20020   5.114   3.520   6.682
 6593WAT     H120021   5.027   3.559   6.712
 6593WAT     H220022   5.098   3.428   6.645
 6594WAT      O20023   9.276   9.558   2.001
 6594WAT     H120024   9.250   9.549   2.098
 6594WAT     H220025   9.215   9.623   1.956
 6595WAT      O20026   1.758   2.658   3.153
 6595WAT     H120027   1.768   2.563   3.182
 6595WAT     H220028   1.693   2.705   3.214
 6596WAT      O20029   3.288   1.562   7.569
 6596WAT     H120030   3.388   1.563   7.566
 6596WAT     H220031   3.252   1.586   7.478
 6597WAT      O20032   2.826   1.137   9.666
 6597WAT     H120033   2.769   1.203   9.714
 6597WAT     H220034   2.773   1.054   9.649
 6598WAT      O20035   4.077   1.521   1.827
 6598WAT     H120036   4.109   1.430   1.854
 6598WAT     H220037   4.101   1.587   1.898
 6599WAT      O20038   2.397   0.979   6.115
 6599WAT     H120039   2.496   0.989   6.102
 6599WAT     H220040   2.377   0.887   6.150
 6600WAT      O20041   2.519   1.926   3.618
 6600WAT     H120042   2.564   1.884   3.538
 6600WAT     H220043   2.426   1.952   3.594
 6601WAT      O20044   7.945   6.603   2.644
 6601WAT     H120045   7.864   6.660   2.633
 6601WAT     H220046   8.025   6.661   2.660
 6602WAT      O20047   5.626   6.366   6.356
 6602WAT     H120048   5.652   6.275   6.324
 6602WAT     H220049   5.696   6.401   6.418
 6603WAT      O20050   7.467   9.072   4.182
 6603WAT     H120051   7.511   8.996   4.230
 6603WAT     H220052   7.536   9.142   4.161
 6604WAT      O20053   7.405   6.045   4.064
 6604WAT     H120054   7.421   5.993   4.148
 6604WAT     H220055   7.340   5.997   4.007
 6605WAT      O20056   8.421   2.779   8.645
 6605WAT     H120057   8.324   2.795   8.625
 6605WAT     H220058   8.477   2.814   8.570
 6606WAT      O20059   6.193   4.421   5.386
 6606WAT     H120060   6.122   4.454   5.324
 6606WAT     H220061   6.177   4.324   5.405
 6607WAT      O20062   7.638   0.456   9.436
 6607WAT     H120063   7.699   0.403   9.494
 6607WAT     H220064   7.657   0.553   9.448
 6608WAT      O20065   3.311   6.790   0.199
 6608WAT     H120066   3.236   6.743   0.246
 6608WAT     H220067   3.389   6.798   0.262
 6609WAT      O20068   5.395   9.195   6.754
 6609WAT     H120069   5.386   9.157   6.662
 6609WAT     H220070   5.478   9.251   6.758
 6610WAT      O20071   1.453   8.987   0.746
 6610WAT     H120072   1.398   8.954   0.669
 6610WAT     H220073   1.391   9.025   0.815
 6611WAT      O20074   7.682   3.312   3.914
 6611WAT     H120075   7.583   3.318   3.897
 6611WAT     H220076   7.705   3.371   3.991
 6612WAT      O20077   7.373   4.761   3.424
 6612WAT     H120078   7.369   4.740   3.522
 6612WAT     H220079   7.429   4.842   3.410
 6613WAT      O20080   9.721   2.223   4.227
 6613WAT     H120081   9.686   2.315   4.211
 6613WAT     H220082   9.817   2.219   4.201
 6614WAT      O20083   4.563   0.529   7.383
 6614WAT     H120084   4.590   0.497   7.474
 6614WAT     H220085   4.633   0.504   7.316
 6615WAT      O20086   0.309   1.663   7.644
 6615WAT     H120087   0.343   1.649   7.551
 6615WAT     H220088   0.295   1.761   7.660
 6616WAT      O20089   6.982   9.269   8.959
 6616WAT     H120090   7.063   9.240   8.909
 6616WAT     H220091   7.005   9.345   9.020
 6617WAT      O20092   9.171   7.726   5.203
 6617WAT     H120093   9.226   7.803   5.234
 6617WAT     H220094   9.228   7.665   5.148
 6618WAT      O20095   4.151   3.948   0.647
 6618WAT     H120096   4.221   4.013   0.616
 6618WAT     H220097   4.070   3.999   0.677
 6619WAT      O20098   8.785   5.607   6.845
 6619WAT     H120099   8.756   5.543   6.774
 6619WAT     H220100   8.880   5.634   6.830
 6620WAT      O20101   8.429   7.248   8.028
 6620WAT     H120102   8.426   7.204   7.938
 6620WAT     H220103   8.341   7.292   8.047
 6621WAT      O20104   2.485   7.789   9.811
 6621WAT     H120105   2.525   7.876   9.783
 6621WAT     H220106   2.484   7.727   9.733
 6622WAT      O20107   6.464   5.368   3.850
 6622WAT     H120108   6.499   5.461   3.843
 6622WAT     H220109   6.451   5.344   3.947
 6623WAT      O20110   0.365   5.790   2.046
 6623WAT     H120111   0.277   5.799   2.000
 6623WAT     H220112   0.436   5.770   1.979
 6624WAT      O20113   6.066   2.999   1.906
 6624WAT     H120114   6.158   2.966   1.887
 6624WAT     H220115   6.023   2.941   1.975
 6625WAT      O20116   5.995   8.297   0.108
 6625WAT     H120117   5.993   8.260   0.201
 6625WAT     H220118   6.090   8.313   0.081
 6626WAT      O20119   3.036   5.068   0.869
 6626WAT     H120120   3.079   5.076   0.779
 6626WAT     H220121   2.979   5.148   0.886
 6627WAT      O20122   3.233   6.838   6.355
 6627WAT     H120123   3.177   6.918   6.379
 6627WAT     H220124   3.174   6.763   6.326
 6628WAT      O20125   5.691   6.838   7.846
 6628WAT     H120126   5.743   6.904   7.791
 6628WAT     H220127   5.599   6.873   7.862
 6629WAT      O20128   0.251   6.956   1.361
 6629WAT     H120129   0.350   6.942   1.359
 6629WAT     H220130   0.206   6.884   1.308
 6630WAT      O20131   6.104   3.171   6.543
 6630WAT     H120132   6.198   3.172   6.510
 6630WAT     H220133   6.042   3.196   6.469
 6631WAT      O20134   6.641   2.029   2.795
 6631WAT     H120135   6.695   2.111   2.814
 6631WAT     H220136   6.702   1.952   2.775
 6632WAT      O20137   7.422   8.927   0.721
 6632WAT     H120138   7.457   9.013   0.759
 6632WAT     H220139   7.366   8.947   0.641
 6633WAT      O20140   3.592   4.683   5.349
 6633WAT     H120141   3.612   4.725   5.260
 6633WAT     H220142   3.531   4.743   5.401
 6634WAT      O20143   5.874   7.184   1.121
 6634WAT     H120144   5.914   7.092   1.118
 6634WAT     H220145   5.897   7.233   1.037
 6635WAT      O20146   7.832   6.782   6.894
 6635WAT     H120147   7.840   6.800   6.992
 6635WAT     H220148   7.914   6.737   6.860
 6636WAT      O20149   7.692   1.624   8.971
 6636WAT     H120150   7.619   1.667   9.024
 6636WAT     H220151   7.695   1.526   8.992
 6637WAT      O20152   9.420   0.751   0.298
 6637WAT     H120153   9.422   0.848   0.322
 6637WAT     H220154   9.488   0.702   0.353
 6638WAT      O20155   7.700   5.444   8.738
 6638WAT     H120156   7.745   5.481   8.657
 6638WAT     H220157   7.739   5.354   8.760
 6639WAT      O20158   9.618   6.303   4.608
 6639WAT     H120159   9.535   6.356   4.624
 6639WAT     H220160   9.642   6.307   4.511
 6640WAT      O20161   8.346   3.490   7.727
 6640WAT     H120162   8.253   3.488   7.765
 6640WAT     H220163   8.342   3.509   7.629
 6641WAT      O20164   0.441   1.944   9.286
 6641WAT     H120165   0.356   1.996   9.274
 6641WAT     H220166   0.422   1.860   9.337
 6642WAT      O20167   6.987   6.562   4.151
 6642WAT     H120168   6.986   6.561   4.051
 6642WAT     H220169   7.029   6.478   4.185
 6643WAT      O20170   9.236   1.029   7.452
 6643WAT     H120171   9.193   0.943   7.477
 6643WAT     H220172   9.165   1.100   7.443
 6644WAT      O20173   6.626   8.234   3.063
 6644WAT     H120174   6.636   8.311   3.001
 6644WAT     H220175   6.707   8.229   3.122
 6645WAT      O20176   0.734   6.058   0.798
 6645WAT     H120177   0.741   5.974   0.744
 6645WAT     H220178   0.639   6.072   0.825
 6646WAT      O20179   3.191   6.972   9.400
 6646WAT     H120180   3.282   6.984   9.359
 6646WAT     H220181   3.137   7.056   9.386
 6647WAT      O20182   4.326   0.232   6.422
 6647WAT     H120183   4.285   0.317   6.390
 6647WAT     H220184   4.403   0.208   6.362
 6648WAT      O20185   6.962   8.677   9.040
 6648WAT     H120186   6.907   8.593   9.043
 6648WAT     H220187   6.949   8.721   8.951
 6649WAT      O20188   0.147   3.746   6.511
 6649WAT     H120189   0.156   3.774   6.415
 6649WAT     H220190   0.229   3.773   6.562
 6650WAT      O20191   6.895   7.218   9.744
 6650WAT     H120192   6.879   7.142   9.808
 6650WAT     H220193   6.881   7.305   9.791
 6651WAT      O20194   8.338   1.000   7.421
 6651WAT     H120195   8.318   1.077   7.482
 6651WAT     H220196   8.279   1.006   7.340
 6652WAT      O20197   9.126   9.056   2.934
 6652WAT     H120198   9.131   9.146   2.978
 6652WAT     H220199   9.128   9.068   2.834
 6653WAT      O20200   5.481   4.693   6.591
 6653WAT     H120201   5.552   4.727   6.529
 6653WAT     H220202   5.437   4.613   6.550
 6654WAT      O20203   1.500   7.029   5.951
 6654WAT     H120204   1.441   7.101   5.915
 6654WAT     H220205   1.469   6.940   5.917
 6655WAT      O20206   9.758   2.686   2.675
 6655WAT     H120207   9.754   2.646   2.583
 6655WAT     H220208   9.747   2.785   2.669
 6656WAT      O20209   0.062   4.177   3.917
 6656WAT     H120210  -0.021   4.193   3.864
 6656WAT     H220211   0.141   4.175   3.856
 6657WAT      O20212   9.770   4.145   1.873
 6657WAT     H120213   9.780   4.186   1.782
 6657WAT     H220214   9.704   4.070   1.869
 6658WAT      O20215   3.812   3.305   5.930
 6658WAT     H120216   3.808   3.225   5.990
 6658WAT     H220217   3.897   3.354   5.946
 6659WAT      O20218   2.009   5.184   8.040
 6659WAT     H120219   2.046   5.235   8.118
 6659WAT     H220220   1.919   5.149   8.063
 6660WAT      O20221   7.234   4.573   9.465
 6660WAT     H120222   7.272   4.501   9.523
 6660WAT     H220223   7.253   4.662   9.504
 6661WAT      O20224   2.302   2.011   3.508
 6661WAT     H120225   2.337   2.091   3.558
 6661WAT     H220226   2.207   2.027   3.482
 6662WAT      O20227   4.496   6.649   9.086
 6662WAT     H120228   4.480   6.570   9.146
 6662WAT     H220229   4.452   6.730   9.126
 6663WAT      O20230   3.477   0.605   8.481
 6663WAT     H120231   3.423   0.523   8.504
 6663WAT     H220232   3.562   0.577   8.436
 6664WAT      O20233   7.752   0.665   5.474
 6664WAT     H120234   7.693   0.611   5.415
 6664WAT     H220235   7.842   0.676   5.431
 6665WAT      O20236   3.111   7.286   0.125
 6665WAT     H120237   3.190   7.226   0.114
 6665WAT     H220238   3.028   7.232   0.130
 6666WAT      O20239   0.238   0.720   0.898
 6666WAT     H120240   0.332   0.688   0.887
 6666WAT     H220241   0.231   0.813   0.862
 6667WAT      O20242   5.280   9.829   5.593
 6667WAT     H120243   5.209   9.765   5.624
 6667WAT     H220244   5.292   9.901   5.662
 6668WAT      O20245   1.203   3.544   4.960
 6668WAT     H120246   1.111   3.575   4.986
 6668WAT     H220247   1.217   3.451   4.993
 6669WAT      O20248   1.350   8.573   1.002
 6669WAT     H120249   1.308   8.607   1.087
 6669WAT     H220250   1.419   8.638   0.971
 6670WAT      O20251   1.553   0.744   3.429
 6670WAT     H120252   1.545   0.730   3.528
 6670WAT     H220253   1.634   0.696   3.395
 6671WAT      O20254   6.866   6.048   7.168
 6671WAT     H120255   6.906   6.027   7.079
 6671WAT     H220256   6.889   5.976   7.233
 6672WAT      O20257   7.429   4.837   4.710
 6672WAT     H120258   7.342   4.886   4.719
 6672WAT     H220259   7.413   4.739   4.721
 6673WAT      O20260   5.258   0.078   5.335
 6673WAT     H120261   5.267   0.037   5.425
 6673WAT     H220262   5.317   0.159   5.330
 6674WAT      O20263   3.579   7.271   7.691
 6674WAT     H120264   3.678   7.278   7.678
 6674WAT     H220265   3.550   7.176   7.679
 6675WAT      O20266   6.856   1.620   2.882
 6675WAT     H120267   6.954   1.640   2.875
 6675WAT     H220268   6.835   1.596   2.977
 6676WAT      O20269   6.080   9.520   5.500
 6676WAT     H120270   6.058   9.541   5.405
 6676WAT     H220271   6.063   9.601   5.557
 6677WAT      O20272   3.492   8.114   3.666
 6677WAT     H120273   3.589   8.092   3.655
 6677WAT     H220274   3.479   8.171   3.747
 6678WAT      O20275   8.758   0.382   2.261
 6678WAT     H120276   8.817   0.458   2.287
 6678WAT     H220277   8.703   0.408   2.181
 6679WAT      O20278   0.331   3.306   8.173
 6679WAT     H120279   0.304   3.367   8.098
 6679WAT     H220280   0.254   3.248   8.198
 6680WAT      O20281   9.708   5.807   5.006
 6680WAT     H120282   9.714   5.711   4.979
 6680WAT     H220283   9.784   5.858   4.967
 6681WAT      O20284   0.173   1.456   6.539
 6681WAT     H120285   0.234   1.379   6.560
 6681WAT     H220286   0.123   1.436   6.455
 6682WAT      O20287   8.900   4.570   6.007
 6682WAT     H120288   8.852   4.560   5.920
 6682WAT     H220289   8.998   4.579   5.990
 6683WAT      O20290   2.443   5.420   7.264
 6683WAT     H120291   2.440   5.321   7.252
 6683WAT     H220292   2.439   5.441   7.362
 6684WAT      O20293   5.626   7.906   3.828
 6684WAT     H120294   5.687   7.850   3.773
 6684WAT     H220295   5.649   7.895   3.925
 6685WAT      O20296   1.514   1.003   9.694
 6685WAT     H120297   1.579   0.971   9.625
 6685WAT     H220298   1.510   1.103   9.691
 6686WAT      O20299   3.075   9.484   4.014
 6686WAT     H120300   3.113   9.469   3.923
 6686WAT     H220301   3.110   9.571   4.050
 6687WAT      O20302   1.719   2.154   1.250
 6687WAT     H120303   1.799   2.118   1.201
 6687WAT     H220304   1.726   2.131   1.347
 6688WAT      O20305   1.274   3.450   5.918
 6688WAT     H120306   1.263   3.480   5.823
 6688WAT     H220307   1.193   3.476   5.970
 6689WAT      O20308   4.842   7.912   0.367
 6689WAT     H120309   4.837   7.903   0.267
 6689WAT     H220310   4.749   7.916   0.404
 6690WAT      O20311   0.883   7.396   6.482
 6690WAT     H120312   0.926   7.312   6.449
 6690WAT     H220313   0.938   7.434   6.556
 6691WAT      O20314   4.700   2.797   0.157
 6691WAT     H120315   4.700   2.751   0.246
 6691WAT     H220316   4.700   2.729   0.084
 6692WAT      O20317   8.221   8.350   6.022
 6692WAT     H120318   8.208   8.303   6.109
 6692WAT     H220319   8.291   8.421   6.033
 6693WAT      O20320   8.557   2.472   2.423
 6693WAT     H120321   8.638   2.441   2.374
 6693WAT     H220322   8.507   2.538   2.367
 6694WAT      O20323   9.221   5.924   3.965
 6694WAT     H120324   9.188   5.843   4.013
 6694WAT     H220325   9.317   5.912   3.941
 6695WAT      O20326   2.857   0.311   9.747
 6695WAT     H120327   2.906   0.378   9.691
 6695WAT     H220328   2.767   0.347   9.770
 6696WAT      O20329   3.880   0.569   3.167
 6696WAT     H120330   3.848   0.512   3.243
 6696WAT     H220331   3.807   0.581   3.101
 6697WAT      O20332   0.255   2.348   3.229
 6697WAT     H120333   0.332   2.388   3.180
 6697WAT     H220334   0.204   2.420   3.275
 6698WAT      O20335   1.186   1.890   7.585
 6698WAT     H120336   1.174   1.959   7.514
 6698WAT     H220337   1.256   1.920   7.650
 6699WAT      O20338   6.624   0.353   9.555
 6699WAT     H120339   6.563   0.305   9.618
 6699WAT     H220340   6.595   0.448   9.547
 6700WAT      O20341   7.637   7.865   5.549
 6700WAT     H120342   7.545   7.842   5.580
 6700WAT     H220343   7.699   7.790   5.569
 6701WAT      O20344   2.697   7.834   1.378
 6701WAT     H120345   2.726   7.739   1.388
 6701WAT     H220346   2.653   7.864   1.462
 6702WAT      O20347   5.020   0.121   6.157
 6702WAT     H120348   5.048   0.027   6.141
 6702WAT     H220349   5.100   0.180   6.160
 6703WAT      O20350   2.584   0.432   2.219
 6703WAT     H120351   2.522   0.412   2.294
 6703WAT     H220352   2.556   0.516   2.172
 6704WAT      O20353   0.577   3.171   0.107
 6704WAT     H120354   0.508   3.202   0.042
 6704WAT     H220355   0.646   3.117   0.058
 6705WAT      O20356   0.732   1.479   7.065
 6705WAT     H120357   0.651   1.532   7.091
 6705WAT     H220358   0.800   1.539   7.024
 6706WAT      O20359   1.991   6.544   7.571
 6706WAT     H120360   1.903   6.578   7.538
 6706WAT     H220361   2.056   6.539   7.495
 6707WAT      O20362   9.569   0.016   3.450
 6707WAT     H120363   9.475   0.044   3.430
 6707WAT     H220364   9.632   0.078   3.404
 6708WAT      O20365   6.911   2.821   6.090
 6708WAT     H120366   6.950   2.913   6.094
 6708WAT     H220367   6.832   2.816   6.151
 6709WAT      O20368   9.495   7.781   8.817
 6709WAT     H120369   9.420   7.749   8.759
 6709WAT     H220370   9.582   7.750   8.779
 6710WAT      O20371   0.448   2.742   0.854
 6710WAT     H120372   0.356   2.781   0.857
 6710WAT     H220373   0.503   2.792   0.786
 6711WAT      O20374   3.965   4.253   1.992
 6711WAT     H120375   4.010   4.180   1.941
 6711WAT     H220376   4.017   4.338   1.982
 6712WAT      O20377   4.855   5.596   0.071
 6712WAT     H120378   4.764   5.637   0.059
 6712WAT     H220379   4.915   5.624  -0.003
 6713WAT      O20380   9.709   1.782   1.272
 6713WAT     H120381   9.701   1.713   1.344
 6713WAT     H220382   9.652   1.861   1.295
 6714WAT      O20383   1.285   1.968   9.566
 6714WAT     H120384   1.224   1.889   9.566
 6714WAT     H220385   1.251   2.036   9.500
 6715WAT      O20386   2.972   2.425   8.049
 6715WAT     H120387   2.933   2.419   7.957
 6715WAT     H220388   2.984   2.333   8.087
 6716WAT      O20389   9.217   9.690   6.076
 6716WAT     H120390   9.181   9.782   6.062
 6716WAT     H220391   9.299   9.695   6.134
 6717WAT      O20392   3.473   7.031   7.170
 6717WAT     H120393   3.488   7.120   7.212
 6717WAT     H220394   3.453   7.043   7.072
 6718WAT      O20395   3.630   6.926   5.028
 6718WAT     H120396   3.694   6.850   5.016
 6718WAT     H220397   3.644   6.968   5.118
 6719WAT      O20398   4.255   5.102   2.519
 6719WAT     H120399   4.355   5.101   2.524
 6719WAT     H220400   4.226   5.078   2.426
 6720WAT      O20401   8.755   5.589   6.435
 6720WAT     H120402   8.773   5.579   6.337
 6720WAT     H220403   8.729   5.500   6.473
 6721WAT      O20404   6.014   9.180   8.087
 6721WAT     H120405   6.057   9.117   8.152
 6721WAT     H220406   5.927   9.212   8.124
 6722WAT      O20407   2.474   3.829   5.639
 6722WAT     H120408   2.437   3.863   5.725
 6722WAT     H220409   2.450   3.733   5.628
 6723WAT      O20410   7.960   0.815   4.299
 6723WAT     H120411   7.960   0.819   4.399
 6723WAT     H220412   8.050   0.783   4.268
 6724WAT      O20413   6.202   1.872   2.399
 6724WAT     H120414   6.247   1.907   2.317
 6724WAT     H220415   6.114   1.831   2.373
 6725WAT      O20416   6.225   1.504   3.175
 6725WAT     H120417   6.153   1.480   3.110
 6725WAT     H220418   6.264   1.593   3.149
 6726WAT      O20419   8.992   4.273   6.076
 6726WAT     H120420   9.080   4.251   6.035
 6726WAT     H220421   8.942   4.334   6.015
 6727WAT      O20422   5.095   5.728   7.787
 6727WAT     H120423   5.133   5.820   7.798
 6727WAT     H220424   5.127   5.670   7.863
 6728WAT      O20425   4.915   5.018   7.702
 6728WAT     H120426   4.946   5.093   7.645
 6728WAT     H220427   4.994   4.973   7.744
 6729WAT      O20428   6.685   7.979   7.477
 6729WAT     H120429   6.711   8.056   7.537
 6729WAT     H220430   6.668   8.013   7.385
 6730WAT      O20431   7.920   0.795   1.703
 6730WAT     H120432   7.840   0.736   1.702
 6730WAT     H220433   7.896   0.883   1.745
 6731WAT      O20434   6.803   7.648   6.220
 6731WAT     H120435   6.826   7.745   6.234
 6731WAT     H220436   6.809   7.600   6.307
 6732WAT      O20437   2.931   8.762   8.746
 6732WAT     H120438   2.966   8.756   8.839
 6732WAT     H220439   2.840   8.720   8.742
 6733WAT      O20440   8.810   1.206   8.720
 6733WAT     H120441   8.841   1.214   8.815
 6733WAT     H220442   8.843   1.285   8.668
 6734WAT      O20443   4.245   0.348   3.496
 6734WAT     H120444   4.281   0.369   3.405
 6734WAT     H220445   4.320   0.331   3.559
 6735WAT      O20446   9.562   0.386   8.654
 6735WAT     H120447   9.631   0.326   8.614
 6735WAT     H220448   9.562   0.474   8.605
 6736WAT      O20449   2.877   8.243   5.379
 6736WAT     H120450   2.903   8.271   5.471
 6736WAT     H220451   2.948   8.186   5.339
 6737WAT      O20452   1.239   4.568   3.275
 6737WAT     H120453   1.189   4.511   3.210
 6737WAT     H220454   1.331   4.532   3.287
 6738WAT      O20455   7.088   8.624   6.124
 6738WAT     H120456   7.093   8.648   6.027
 6738WAT     H220457   7.003   8.659   6.163
 6739WAT      O20458   3.787   0.850   8.633
 6739WAT     H120459   3.794   0.913   8.556
 6739WAT     H220460   3.702   0.798   8.626
 6740WAT      O20461   9.117   2.002   6.466
 6740WAT     H120462   9.202   1.984   6.517
 6740WAT     H220463   9.102   1.927   6.401
 6741WAT      O20464   6.951   3.980   9.480
 6741WAT     H120465   6.903   3.900   9.515
 6741WAT     H220466   6.901   4.063   9.505
 6742WAT      O20467   2.418   9.370   8.619
 6742WAT     H120468   2.458   9.457   8.650
 6742WAT     H220469   2.397   9.314   8.699
 6743WAT      O20470   6.979   8.300   0.092
 6743WAT     H120471   7.056   8.344   0.138
 6743WAT     H220472   6.915   8.264   0.160
 6744WAT      O20473   8.775   3.309   5.545
 6744WAT     H120474   8.785   3.209   5.538
 6744WAT     H220475   8.848   3.345   5.604
 6745WAT      O20476   3.546   5.489   2.451
 6745WAT     H120477   3.610   5.434   2.504
 6745WAT     H220478   3.549   5.460   2.355
 6746WAT      O20479   1.176   1.432   2.997
 6746WAT     H120480   1.212   1.522   3.020
 6746WAT     H220481   1.228   1.361   3.045
 6747WAT      O20482   8.304   8.714   2.953
 6747WAT     H120483   8.248   8.709   2.870
 6747WAT     H220484   8.399   8.694   2.930
 6748WAT      O20485   9.412   3.554   1.649
 6748WAT     H120486   9.374   3.495   1.721
 6748WAT     H220487   9.462   3.498   1.584
 6749WAT      O20488   1.949   3.753   2.076
 6749WAT     H120489   1.925   3.808   2.156
 6749WAT     H220490   1.866   3.730   2.026
 6750WAT      O20491   2.631   5.057   5.312
 6750WAT     H120492   2.617   4.992   5.386
 6750WAT     H220493   2.717   5.037   5.265
 6751WAT      O20494   7.520   2.727   9.377
 6751WAT     H120495   7.581   2.665   9.427
 6751WAT     H220496   7.503   2.691   9.285
 6752WAT      O20497   8.725   2.022   1.493
 6752WAT     H120498   8.755   2.027   1.397
 6752WAT     H220499   8.747   1.932   1.529
 6753WAT      O20500   3.987   8.601   0.068
 6753WAT     H120501   3.947   8.559   0.149
 6753WAT     H220502   4.047   8.535   0.023
 6754WAT      O20503   0.575   4.577   1.840
 6754WAT     H120504   0.648   4.556   1.775
 6754WAT     H220505   0.613   4.622   1.920
 6755WAT      O20506   8.631   4.802   1.317
 6755WAT     H120507   8.677   4.818   1.229
 6755WAT     H220508   8.598   4.708   1.321
 6756WAT      O20509   0.376   0.659   8.500
 6756WAT     H120510   0.396   0.561   8.489
 6756WAT     H220511   0.456   0.705   8.539
 6757WAT      O20512   5.265   3.437   2.331
 6757WAT     H120513   5.175   3.481   2.340
 6757WAT     H220514   5.311   3.437   2.419
 6758WAT      O20515   8.384   5.053   3.437
 6758WAT     H120516   8.422   4.977   3.384
 6758WAT     H220517   8.437   5.136   3.419
 6759WAT      O20518   1.363   3.695   2.953
 6759WAT     H120519   1.307   3.636   2.895
 6759WAT     H220520   1.384   3.648   3.038
 6760WAT      O20521   7.134   6.201   7.427
 6760WAT     H120522   7.131   6.201   7.527
 6760WAT     H220523   7.047   6.234   7.391
 6761WAT      O20524   7.826   7.036   3.090
 6761WAT     H120525   7.913   7.084   3.104
 6761WAT     H220526   7.831   6.981   3.007
 6762WAT      O20527   5.989   7.552   4.753
 6762WAT     H120528   6.085   7.525   4.767
 6762WAT     H220529   5.930   7.494   4.808
 6763WAT      O20530   9.259   7.920   4.194
 6763WAT     H120531   9.175   7.968   4.218
 6763WAT     H220532   9.245   7.870   4.108
 6764WAT      O20533   2.760   4.062   6.310
 6764WAT     H120534   2.719   4.142   6.355
 6764WAT     H220535   2.697   3.985   6.317
 6765WAT      O20536   4.917   5.706   6.737
 6765WAT     H120537   4.963   5.777   6.685
 6765WAT     H220538   4.913   5.732   6.834
 6766WAT      O20539   0.796   0.512   4.561
 6766WAT     H120540   0.854   0.589   4.586
 6766WAT     H220541   0.767   0.521   4.466
 6767WAT      O20542   0.411   3.065   2.629
 6767WAT     H120543   0.489   3.123   2.653
 6767WAT     H220544   0.368   3.031   2.712
 6768WAT      O20545   1.412   4.550   0.609
 6768WAT     H120546   1.366   4.525   0.695
 6768WAT     H220547   1.511   4.549   0.622
 6769WAT      O20548   4.384   3.546   1.934
 6769WAT     H120549   4.291   3.570   1.961
 6769WAT     H220550   4.405   3.585   1.845
 6770WAT      O20551   7.532   5.312   2.269
 6770WAT     H120552   7.600   5.347   2.204
 6770WAT     H220553   7.534   5.212   2.268
 6771WAT      O20554   6.746   6.164   1.681
 6771WAT     H120555   6.842   6.170   1.653
 6771WAT     H220556   6.691   6.132   1.604
 6772WAT      O20557   3.271   2.857   7.124
 6772WAT     H120558   3.190   2.833   7.071
 6772WAT     H220559   3.275   2.802   7.207
 6773WAT      O20560   7.027   3.702   4.881
 6773WAT     H120561   7.094   3.767   4.917
 6773WAT     H220562   6.955   3.688   4.948
 6774WAT      O20563   0.285   6.715   5.147
 6774WAT     H120564   0.323   6.661   5.072
 6774WAT     H220565   0.358   6.766   5.192
 6775WAT      O20566   3.760   0.138   7.442
 6775WAT     H120567   3.755   0.197   7.523
 6775WAT     H220568   3.751   0.193   7.360
 6776WAT      O20569   0.998   3.331   4.033
 6776WAT     H120570   0.965   3.424   4.018
 6776WAT     H220571   1.029   3.321   4.127
 6777WAT      O20572   9.372   3.315   8.706
 6777WAT     H120573   9.308   3.391   8.697
 6777WAT     H220574   9.371   3.261   8.622
 6778WAT      O20575   8.289   9.623   1.531
 6778WAT     H120576   8.348   9.553   1.491
 6778WAT     H220577   8.346   9.694   1.572
 6779WAT      O20578   6.954   9.829   8.564
 6779WAT     H120579   7.031   9.891   8.550
 6779WAT     H220580   6.888   9.840   8.489
 6780WAT      O20581   5.769   0.814   7.492
 6780WAT     H120582   5.722   0.866   7.421
 6780WAT     H220583   5.859   0.855   7.509
 6781WAT      O20584   0.049   9.295   1.156
 6781WAT     H120585   0.057   9.268   1.060
 6781WAT     H220586   0.116   9.367   1.175
 6782WAT      O20587   1.493   4.291   5.766
 6782WAT     H120588   1.459   4.232   5.693
 6782WAT     H220589   1.479   4.387   5.741
 6783WAT      O20590   7.982   4.584   3.051
 6783WAT     H120591   8.046   4.648   3.095
 6783WAT     H220592   8.031   4.501   3.025
 6784WAT      O20593   8.500   8.139   1.608
 6784WAT     H120594   8.471   8.102   1.520
 6784WAT     H220595   8.420   8.148   1.668
 6785WAT      O20596   5.000   7.491   1.227
 6785WAT     H120597   5.029   7.432   1.302
 6785WAT     H220598   5.068   7.563   1.213
 6786WAT      O20599   2.241   4.060   9.257
 6786WAT     H120600   2.166   4.036   9.319
 6786WAT     H220601   2.256   4.159   9.260
 6787WAT      O20602   8.636   7.552   3.809
 6787WAT     H120603   8.710   7.485   3.814
 6787WAT     H220604   8.553   7.514   3.849
 6788WAT      O20605   8.288   1.007   9.524
 6788WAT     H120606   8.364   1.020   9.462
 6788WAT     H220607   8.287   0.913   9.557
 6789WAT      O20608   7.719   3.927   5.484
 6789WAT     H120609   7.782   3.868   5.535
 6789WAT     H220610   7.747   3.931   5.388
 6790WAT      O20611   3.170   1.154   6.302
 6790WAT     H120612   3.264   1.163   6.267
 6790WAT     H220613   3.151   1.231   6.364
 6791WAT      O20614   2.546   1.383   6.180
 6791WAT     H120615   2.638   1.377   6.217
 6791WAT     H220616   2.480   1.349   6.248
 6792WAT      O20617   8.898   3.543   4.517
 6792WAT     H120618   8.861   3.597   4.441
 6792WAT     H220619   8.886   3.593   4.603
 6793WAT      O20620   7.475   0.790   3.924
 6793WAT     H120621   7.565   0.755   3.952
 6793WAT     H220622   7.480   0.890   3.915
 6794WAT      O20623   3.817   3.678   1.894
 6794WAT     H120624   3.861   3.687   1.984
 6794WAT     H220625   3.731   3.628   1.905
 6795WAT      O20626   6.977   9.595   8.392
 6795WAT     H120627   7.011   9.623   8.302
 6795WAT     H220628   7.000   9.666   8.459
 6796WAT      O20629   6.410   4.538   5.244
 6796WAT     H120630   6.358   4.497   5.319
 6796WAT     H220631   6.350   4.597   5.190
 6797WAT      O20632   6.780   1.801   2.704
 6797WAT     H120633   6.808   1.737   2.775
 6797WAT     H220634   6.854   1.811   2.637
 6798WAT      O20635   5.431   0.809   4.853
 6798WAT     H120636   5.359   0.862   4.807
 6798WAT     H220637   5.436   0.717   4.812
 6799WAT      O20638   6.430   1.367   0.479
 6799WAT     H120639   6.489   1.447   0.463
 6799WAT     H220640   6.451   1.297   0.411
 6800WAT      O20641   4.092   1.599   5.564
 6800WAT     H120642   4.105   1.552   5.477
 6800WAT     H220643   4.055   1.690   5.547
 6801WAT      O20644   7.645   8.305   8.615
 6801WAT     H120645   7.620   8.319   8.711
 6801WAT     H220646   7.735   8.346   8.599
 6802WAT      O20647   9.541   3.177   7.795
 6802WAT     H120648   9.526   3.082   7.821
 6802WAT     H220649   9.458   3.214   7.754
 6803WAT      O20650   4.050   8.281   7.052
 6803WAT     H120651   4.013   8.194   7.086
 6803WAT     H220652   3.984   8.354   7.071
 6804WAT      O20653   1.054   7.993   5.554
 6804WAT     H120654   1.009   7.933   5.488
 6804WAT     H220655   0.993   8.010   5.632
 6805WAT      O20656   6.101   4.036   6.838
 6805WAT     H120657   6.049   3.958   6.873
 6805WAT     H220658   6.125   4.097   6.913
 6806WAT      O20659   8.896   0.988   1.970
 6806WAT     H120660   8.992   0.997   1.944
 6806WAT     H220661   8.853   0.915   1.917
 6807WAT      O20662   1.530   1.371   8.987
 6807WAT     H120663   1.471   1.442   8.947
 6807WAT     H220664   1.577   1.323   8.914
 6808WAT      O20665   2.003   8.538   5.636
 6808WAT     H120666   2.097   8.566   5.657
 6808WAT     H220667   1.940   8.577   5.703
 6809WAT      O20668   6.301   0.044   6.461
 6809WAT     H120669   6.318  -0.054   6.455
 6809WAT     H220670   6.384   0.090   6.492
 6810WAT      O20671   7.397   4.045   6.947
 6810WAT     H120672   7.400   4.008   6.854
 6810WAT     H220673   7.369   4.141   6.944
 6811WAT      O20674   1.944   5.844   2.554
 6811WAT     H120675   2.020   5.881   2.500
 6811WAT     H220676   1.857   5.876   2.516
 6812WAT      O20677   6.985   0.275   7.632
 6812WAT     H120678   6.993   0.352   7.694
 6812WAT     H220679   7.022   0.193   7.675
 6813WAT      O20680   1.724   4.809   5.983
 6813WAT     H120681   1.675   4.896   5.991
 6813WAT     H220682   1.822   4.824   5.997
 6814WAT      O20683   6.745   6.849   9.571
 6814WAT     H120684   6.716   6.753   9.571
 6814WAT     H220685   6.669   6.907   9.541
 6815WAT      O20686   6.611   6.954   3.613
 6815WAT     H120687   6.536   6.889   3.608
 6815WAT     H220688   6.654   6.949   3.703
 6816WAT      O20689   9.440   6.366   4.872
 6816WAT     H120690   9.431   6.320   4.960
 6816WAT     H220691   9.349   6.376   4.830
 6817WAT      O20692   9.153   0.864   0.675
 6817WAT     H120693   9.231   0.926   0.667
 6817WAT     H220694   9.186   0.770   0.680
 6818WAT      O20695   3.108   4.658   6.116
 6818WAT     H120696   3.133   4.578   6.061
 6818WAT     H220697   3.060   4.724   6.058
 6819WAT      O20698   4.606   9.781   6.748
 6819WAT     H120699   4.680   9.721   6.778
 6819WAT     H220700   4.619   9.805   6.652
 6820WAT      O20701   6.754   6.762   9.278
 6820WAT     H120702   6.759   6.704   9.358
 6820WAT     H220703   6.824   6.735   9.212
 6821WAT      O20704   9.274   8.894   8.244
 6821WAT     H120705   9.337   8.942   8.305
 6821WAT     H220706   9.268   8.943   8.157
 6822WAT      O20707   4.925   9.204   7.587
 6822WAT     H120708   4.877   9.121   7.561
 6822WAT     H220709   4.965   9.247   7.505
 6823WAT      O20710   6.287   0.730   1.625
 6823WAT     H120711   6.219   0.734   1.698
 6823WAT     H220712   6.288   0.817   1.575
 6824WAT      O20713   8.629   8.619   7.344
 6824WAT     H120714   8.554   8.657   7.398
 6824WAT     H220715   8.601   8.613   7.248
 6825WAT      O20716   1.417   0.251   3.948
 6825WAT     H120717   1.395   0.331   4.003
 6825WAT     H220718   1.493   0.202   3.990
 6826WAT      O20719   4.631   0.338   0.275
 6826WAT     H120720   4.704   0.392   0.233
 6826WAT     H220721   4.548   0.346   0.220
 6827WAT      O20722   7.065   4.541   8.089
 6827WAT     H120723   7.006   4.481   8.036
 6827WAT     H220724   7.111   4.488   8.161
 6828WAT      O20725   6.767   8.757   0.955
 6828WAT     H120726   6.673   8.722   0.959
 6828WAT     H220727   6.826   8.700   1.011
 6829WAT      O20728   2.160   9.301   0.271
 6829WAT     H120729   2.182   9.383   0.218
 6829WAT     H220730   2.245   9.253   0.295
 6830WAT      O20731   6.554   3.908   2.838
 6830WAT     H120732   6.503   3.842   2.784
 6830WAT     H220733   6.558   3.877   2.933
 6831WAT      O20734   7.551   9.297   8.656
 6831WAT     H120735   7.553   9.228   8.583
 6831WAT     H220736   7.640   9.300   8.700
 6832WAT      O20737   8.797   6.079   2.975
 6832WAT     H120738   8.726   6.120   2.918
 6832WAT     H220739   8.847   6.010   2.922
 6833WAT      O20740   3.331   1.774   0.525
 6833WAT     H120741   3.306   1.812   0.436
 6833WAT     H220742   3.278   1.821   0.597
 6834WAT      O20743   1.036   5.886   7.805
 6834WAT     H120744   1.124   5.920   7.840
 6834WAT     H220745   0.982   5.962   7.771
 6835WAT      O20746   7.568   2.106   0.104
 6835WAT     H120747   7.539   2.030   0.161
 6835WAT     H220748   7.562   2.191   0.156
 6836WAT      O20749   0.889   0.200   4.064
 6836WAT     H120750   0.846   0.277   4.110
 6836WAT     H220751   0.840   0.116   4.087
 6837WAT      O20752   7.059   7.802   0.901
 6837WAT     H120753   7.070   7.799   1.001
 6837WAT     H220754   7.088   7.715   0.861
 6838WAT      O20755   7.292   2.914   6.605
 6838WAT     H120756   7.300   2.875   6.697
 6838WAT     H220757   7.341   2.857   6.540
 6839WAT      O20758   4.257   3.718   4.127
 6839WAT     H120759   4.299   3.785   4.065
 6839WAT     H220760   4.313   3.636   4.131
 6840WAT      O20761   2.081   2.318   2.425
 6840WAT     H120762   2.108   2.414   2.424
 6840WAT     H220763   2.090   2.281   2.517
 6841WAT      O20764   3.339   8.416   5.634
 6841WAT     H120765   3.259   8.363   5.604
 6841WAT     H220766   3.409   8.353   5.668
 6842WAT      O20767   1.992   2.267   7.454
 6842WAT     H120768   1.965   2.360   7.480
 6842WAT     H220769   1.912   2.206   7.459
 6843WAT      O20770   5.226   4.333   6.208
 6843WAT     H120771   5.152   4.353   6.272
 6843WAT     H220772   5.210   4.245   6.165
 6844WAT      O20773   9.527   5.721   3.651
 6844WAT     H120774   9.558   5.816   3.641
 6844WAT     H220775   9.594   5.660   3.609
 6845WAT      O20776   4.972   2.869   9.547
 6845WAT     H120777   4.893   2.831   9.500
 6845WAT     H220778   4.983   2.824   9.636
 6846WAT      O20779   5.087   4.856   1.778
 6846WAT     H120780   5.054   4.932   1.722
 6846WAT     H220781   5.172   4.821   1.740
 6847WAT      O20782   9.271   4.415   8.901
 6847WAT     H120783   9.282   4.457   8.810
 6847WAT     H220784   9.231   4.324   8.891
 6848WAT      O20785   1.003   2.440   4.930
 6848WAT     H120786   1.063   2.378   4.879
 6848WAT     H220787   0.910   2.431   4.896
 6849WAT      O20788   9.436   4.988   4.945
 6849WAT     H120789   9.429   5.039   4.859
 6849WAT     H220790   9.532   4.976   4.969
 6850WAT      O20791   6.097   7.365   8.190
 6850WAT     H120792   6.164   7.312   8.137
 6850WAT     H220793   6.050   7.429   8.129
 6851WAT      O20794   4.573   1.202   1.249
 6851WAT     H120795   4.649   1.265   1.264
 6851WAT     H220796   4.606   1.121   1.202
 6852WAT      O20797   6.619   8.588   6.846
 6852WAT     H120798   6.559   8.651   6.897
 6852WAT     H220799   6.714   8.612   6.863
 6853WAT      O20800   8.636   4.542   6.087
 6853WAT     H120801   8.736   4.542   6.082
 6853WAT     H220802   8.600   4.471   6.027
 6854WAT      O20803   2.922   3.911   9.491
 6854WAT     H120804   2.968   3.849   9.555
 6854WAT     H220805   2.840   3.948   9.533
 6855WAT      O20806   8.988   1.144   1.106
 6855WAT     H120807   9.039   1.151   1.020
 6855WAT     H220808   8.910   1.207   1.104
 6856WAT      O20809   3.711   1.303   9.288
 6856WAT     H120810   3.807   1.284   9.265
 6856WAT     H220811   3.666   1.346   9.210
 6857WAT      O20812   2.858   5.763   2.621
 6857WAT     H120813   2.889   5.750   2.715
 6857WAT     H220814   2.935   5.791   2.564
 6858WAT      O20815   4.808   3.897   0.888
 6858WAT     H120816   4.844   3.929   0.800
 6858WAT     H220817   4.833   3.802   0.901
 6859WAT      O20818   3.127   8.203   0.642
 6859WAT     H120819   3.101   8.209   0.738
 6859WAT     H220820   3.115   8.293   0.598
 6860WAT      O20821   0.719   3.180   9.526
 6860WAT     H120822   0.742   3.087   9.556
 6860WAT     H220823   0.636   3.178   9.471
 6861WAT      O20824   8.682   4.049   1.269
 6861WAT     H120825   8.741   4.122   1.236
 6861WAT     H220826   8.587   4.068   1.243
 6862WAT      O20827   9.539   5.064   7.502
 6862WAT     H120828   9.534   4.964   7.499
 6862WAT     H220829   9.497   5.097   7.587
 6863WAT      O20830   4.425   8.551   3.212
 6863WAT     H120831   4.474   8.618   3.269
 6863WAT     H220832   4.327   8.570   3.214
 6864WAT      O20833   1.939   0.097   8.517
 6864WAT     H120834   1.870   0.156   8.474
 6864WAT     H220835   1.971   0.140   8.602
 6865WAT      O20836   0.589   2.979   1.582
 6865WAT     H120837   0.585   2.963   1.681
 6865WAT     H220838   0.500   3.011   1.550
 6866WAT      O20839   6.879   0.306   4.958
 6866WAT     H120840   6.914   0.213   4.957
 6866WAT     H220841   6.862   0.334   5.053
 6867WAT      O20842   1.351   3.663   9.398
 6867WAT     H120843   1.361   3.741   9.337
 6867WAT     H220844   1.358   3.694   9.493
 6868WAT      O20845   5.028   8.856   1.413
 6868WAT     H120846   4.946   8.799   1.414
 6868WAT     H220847   5.072   8.851   1.323
 6869WAT      O20848   7.718   0.858   6.472
 6869WAT     H120849   7.791   0.918   6.505
 6869WAT     H220850   7.690   0.887   6.380
 6870WAT      O20851   0.698   8.713   7.957
 6870WAT     H120852   0.627   8.760   8.010
 6870WAT     H220853   0.662   8.691   7.866
 6871WAT      O20854   1.604   2.523   9.814
 6871WAT     H120855   1.681   2.465   9.790
 6871WAT     H220856   1.621   2.567   9.902
 6872WAT      O20857   1.370   5.020   2.773
 6872WAT     H120858   1.278   5.050   2.799
 6872WAT     H220859   1.381   4.924   2.799
 6873WAT      O20860   8.579   6.560   8.143
 6873WAT     H120861   8.612   6.466   8.135
 6873WAT     H220862   8.480   6.561   8.128
 6874WAT      O20863   9.032   4.544   1.975
 6874WAT     H120864   9.082   4.619   1.933
 6874WAT     H220865   8.968   4.504   1.909
 6875WAT      O20866   2.626   2.890   4.634
 6875WAT     H120867   2.682   2.863   4.556
 6875WAT     H220868   2.575   2.973   4.611
 6876WAT      O20869   7.591   2.559   6.480
 6876WAT     H120870   7.585   2.507   6.394
 6876WAT     H220871   7.554   2.503   6.555
 6877WAT      O20872   4.341   1.627   8.430
 6877WAT     H120873   4.283   1.616   8.510
 6877WAT     H220874   4.433   1.593   8.450
 6878WAT      O20875   9.515   4.366   2.608
 6878WAT     H120876   9.512   4.313   2.693
 6878WAT     H220877   9.423   4.373   2.570
 6879WAT      O20878   3.376   5.660   0.680
 6879WAT     H120879   3.404   5.712   0.760
 6879WAT     H220880   3.281   5.631   0.690
 6880WAT      O20881   7.147   8.183   9.772
 6880WAT     H120882   7.110   8.255   9.832
 6880WAT     H220883   7.148   8.216   9.677
 6881WAT      O20884   2.024   7.880   5.273
 6881WAT     H120885   1.994   7.844   5.185
 6881WAT     H220886   1.964   7.956   5.300
 6882WAT      O20887   2.846   9.611   0.565
 6882WAT     H120888   2.875   9.656   0.649
 6882WAT     H220889   2.919   9.551   0.533
 6883WAT      O20890   8.576   4.773   6.828
 6883WAT     H120891   8.609   4.786   6.734
 6883WAT     H220892   8.653   4.778   6.891
 6884WAT      O20893   7.427   9.653   3.779
 6884WAT     H120894   7.451   9.619   3.870
 6884WAT     H220895   7.414   9.576   3.717
 6885WAT      O20896   4.122   8.626   4.739
 6885WAT     H120897   4.069   8.669   4.812
 6885WAT     H220898   4.070   8.630   4.653
 6886WAT      O20899   5.993   0.157   5.875
 6886WAT     H120900   5.994   0.250   5.912
 6886WAT     H220901   5.957   0.094   5.943
 6887WAT      O20902   1.230   0.110   0.621
 6887WAT     H120903   1.218   0.161   0.706
 6887WAT     H220904   1.194   0.164   0.545
 6888WAT      O20905   4.255   1.968   0.313
 6888WAT     H120906   4.248   1.882   0.364
 6888WAT     H220907   4.216   2.042   0.367
 6889WAT      O20908   2.710   4.910   5.546
 6889WAT     H120909   2.792   4.859   5.520
 6889WAT     H220910   2.629   4.852   5.532
 6890WAT      O20911   3.708   1.215   6.502
 6890WAT     H120912   3.747   1.132   6.542
 6890WAT     H220913   3.729   1.294   6.559
 6891WAT      O20914   8.303   2.578   3.001
 6891WAT     H120915   8.374   2.639   2.966
 6891WAT     H220916   8.227   2.632   3.036
 6892WAT      O20917   4.747   1.455   3.960
 6892WAT     H120918   4.718   1.361   3.977
 6892WAT     H220919   4.703   1.516   4.027
 6893WAT      O20920   2.205   9.290   8.245
 6893WAT     H120921   2.169   9.207   8.204
 6893WAT     H220922   2.190   9.367   8.183
 6894WAT      O20923   5.497   8.769   0.276
 6894WAT     H120924   5.539   8.858   0.260
 6894WAT     H220925   5.425   8.778   0.345
 6895WAT      O20926   7.436   3.056   3.484
 6895WAT     H120927   7.429   3.126   3.555
 6895WAT     H220928   7.376   2.979   3.507
 6896WAT      O20929   1.743   4.129   8.317
 6896WAT     H120930   1.737   4.216   8.365
 6896WAT     H220931   1.759   4.055   8.382
 6897WAT      O20932   6.331   4.539   3.910
 6897WAT     H120933   6.334   4.611   3.841
 6897WAT     H220934   6.242   4.493   3.906
 6898WAT      O20935   4.483   8.737   5.761
 6898WAT     H120936   4.547   8.666   5.730
 6898WAT     H220937   4.460   8.721   5.857
 6899WAT      O20938   1.708   2.630   1.546
 6899WAT     H120939   1.667   2.620   1.456
 6899WAT     H220940   1.641   2.605   1.616
 6900WAT      O20941   4.667   8.126   4.534
 6900WAT     H120942   4.660   8.212   4.485
 6900WAT     H220943   4.594   8.120   4.603
 6901WAT      O20944   4.844   0.803   7.304
 6901WAT     H120945   4.840   0.764   7.212
 6901WAT     H220946   4.769   0.869   7.316
 6902WAT      O20947   5.077   3.514   9.045
 6902WAT     H120948   5.001   3.470   8.998
 6902WAT     H220949   5.161   3.504   8.991
 6903WAT      O20950   8.868   8.852   5.404
 6903WAT     H120951   8.850   8.763   5.360
 6903WAT     H220952   8.795   8.916   5.381
 6904WAT      O20953   4.527   3.835   9.179
 6904WAT     H120954   4.445   3.822   9.123
 6904WAT     H220955   4.597   3.769   9.152
 6905WAT      O20956   8.072   1.857   3.509
 6905WAT     H120957   8.138   1.864   3.434
 6905WAT     H220958   8.111   1.804   3.584
 6906WAT      O20959   7.236   6.720   7.940
 6906WAT     H120960   7.223   6.733   8.039
 6906WAT     H220961   7.181   6.787   7.890
 6907WAT      O20962   5.642   3.333   8.985
 6907WAT     H120963   5.583   3.252   8.979
 6907WAT     H220964   5.736   3.307   8.963
 6908WAT      O20965   9.175   2.158   5.960
 6908WAT     H120966   9.131   2.228   5.903
 6908WAT     H220967   9.122   2.073   5.954
 6909WAT      O20968   5.918   6.774   1.756
 6909WAT     H120969   6.012   6.770   1.788
 6909WAT     H220970   5.890   6.870   1.747
 6910WAT      O20971   9.328   9.212   2.042
 6910WAT     H120972   9.245   9.184   2.089
 6910WAT     H220973   9.306   9.280   1.972
 6911WAT      O20974   1.229   9.405   8.579
 6911WAT     H120975   1.211   9.329   8.642
 6911WAT     H220976   1.324   9.434   8.589
 6912WAT      O20977   1.168   5.606   6.160
 6912WAT     H120978   1.118   5.685   6.197
 6912WAT     H220979   1.263   5.610   6.191
 6913WAT      O20980   2.772   1.322   9.005
 6913WAT     H120981   2.837   1.340   9.078
 6913WAT     H220982   2.697   1.389   9.009
 6914WAT      O20983   9.091   8.937   1.913
 6914WAT     H120984   9.008   8.890   1.942
 6914WAT     H220985   9.168   8.907   1.969
 6915WAT      O20986   4.239   8.639   7.421
 6915WAT     H120987   4.254   8.567   7.353
 6915WAT     H220988   4.168   8.701   7.387
 6916WAT      O20989   9.059   2.312   9.810
 6916WAT     H120990   8.965   2.325   9.781
 6916WAT     H220991   9.063   2.303   9.909
 6917WAT      O20992   4.267   4.413   6.307
 6917WAT     H120993   4.250   4.512   6.301
 6917WAT     H220994   4.298   4.391   6.400
 6918WAT      O20995   0.257   7.027   9.146
 6918WAT     H120996   0.159   7.029   9.166
 6918WAT     H220997   0.309   7.021   9.231
 6919WAT      O20998   7.375   8.865   4.748
 6919WAT     H120999   7.404   8.941   4.689
 6919WAT     H221000   7.302   8.814   4.702
 6920WAT      O21001   0.766   7.387   4.381
 6920WAT     H121002   0.744   7.421   4.290
 6920WAT     H221003   0.850   7.333   4.378
 6921WAT      O21004   6.370   0.822   8.756
 6921WAT     H121005   6.370   0.897   8.822
 6921WAT     H221006   6.358   0.735   8.805
 6922WAT      O21007   4.148   5.903   3.231
 6922WAT     H121008   4.160   5.850   3.314
 6922WAT     H221009   4.237   5.917   3.187
 6923WAT      O21010   4.988   3.753   8.339
 6923WAT     H121011   5.051   3.804   8.398
 6923WAT     H221012   4.903   3.735   8.389
 6924WAT      O21013   6.898   8.846   1.895
 6924WAT     H121014   6.904   8.801   1.806
 6924WAT     H221015   6.914   8.779   1.968
 6925WAT      O21016   7.679   6.353   2.174
 6925WAT     H121017   7.760   6.299   2.152
 6925WAT     H221018   7.707   6.442   2.208
 6926WAT      O21019   1.382   9.084   7.745
 6926WAT     H121020   1.322   9.115   7.671
 6926WAT     H221021   1.327   9.054   7.822
 6927WAT      O21022   5.114   9.360   6.564
 6927WAT     H121023   5.139   9.303   6.642
 6927WAT     H221024   5.193   9.416   6.537
 6928WAT      O21025   8.932   1.298   1.924
 6928WAT     H121026   9.029   1.312   1.907
 6928WAT     H221027   8.920   1.215   1.978
 6929WAT      O21028   2.469   7.672   5.399
 6929WAT     H121029   2.387   7.646   5.450
 6929WAT     H221030   2.453   7.663   5.301
 6930WAT      O21031   2.610   0.092   0.051
 6930WAT     H121032   2.608   0.046  -0.038
 6930WAT     H221033   2.590   0.190   0.038
 6931WAT      O21034   5.727   0.669   3.935
 6931WAT     H121035   5.640   0.680   3.983
 6931WAT     H221036   5.801   0.662   4.002
 6932WAT      O21037   9.400   6.504   6.648
 6932WAT     H121038   9.438   6.485   6.738
 6932WAT     H221039   9.466   6.556   6.594
 6933WAT      O21040   0.801   5.287   8.496
 6933WAT     H121041   0.873   5.314   8.559
 6933WAT     H221042   0.727   5.354   8.499
 6934WAT      O21043   8.661   7.608   9.510
 6934WAT     H121044   8.605   7.532   9.542
 6934WAT     H221045   8.744   7.572   9.468
 6935WAT      O21046   4.970   4.062   2.968
 6935WAT     H121047   5.060   4.030   2.998
 6935WAT     H221048   4.946   4.017   2.882
 6936WAT      O21049   8.601   0.098   0.154
 6936WAT     H121050   8.650   0.184   0.164
 6936WAT     H221051   8.579   0.061   0.245
 6937WAT      O21052   0.452   5.328   3.029
 6937WAT     H121053   0.404   5.377   2.957
 6937WAT     H221054   0.537   5.376   3.050
 6938WAT      O21055   7.899   5.756   2.632
 6938WAT     H121056   7.974   5.785   2.572
 6938WAT     H221057   7.817   5.740   2.578
 6939WAT      O21058   2.478   7.648   9.587
 6939WAT     H121059   2.508   7.723   9.528
 6939WAT     H221060   2.394   7.609   9.551
 6940WAT      O21061   0.661   4.888   7.563
 6940WAT     H121062   0.729   4.961   7.560
 6940WAT     H221063   0.695   4.813   7.620
 6941WAT      O21064   8.681   9.186   1.206
 6941WAT     H121065   8.777   9.161   1.197
 6941WAT     H221066   8.656   9.189   1.302
 6942WAT      O21067   0.165   4.021   3.504
 6942WAT     H121068   0.196   4.043   3.412
 6942WAT     H221069   0.236   4.047   3.570
 6943WAT      O21070   5.165   1.938   5.095
 6943WAT     H121071   5.113   1.905   5.016
 6943WAT     H221072   5.192   2.033   5.080
 6944WAT      O21073   2.245   5.413   7.009
 6944WAT     H121074   2.337   5.436   7.042
 6944WAT     H221075   2.185   5.491   7.020
 6945WAT      O21076   2.406   1.267   2.135
 6945WAT     H121077   2.399   1.167   2.137
 6945WAT     H221078   2.395   1.303   2.228
 6946WAT      O21079   4.680   9.133   4.600
 6946WAT     H121080   4.760   9.129   4.540
 6946WAT     H221081   4.598   9.111   4.547
 6947WAT      O21082   1.714   0.173   0.936
 6947WAT     H121083   1.704   0.083   0.979
 6947WAT     H221084   1.624   0.207   0.909
 6948WAT      O21085   3.433   0.072   6.496
 6948WAT     H121086   3.502   0.003   6.517
 6948WAT     H221087   3.403   0.061   6.401
 6949WAT      O21088   0.768   3.575   7.725
 6949WAT     H121089   0.763   3.665   7.769
 6949WAT     H221090   0.776   3.587   7.626
 6950WAT      O21091   8.000   8.394   8.724
 6950WAT     H121092   7.941   8.391   8.804
 6950WAT     H221093   8.064   8.471   8.733
 6951WAT      O21094   1.768   6.822   8.267
 6951WAT     H121095   1.677   6.831   8.225
 6951WAT     H221096   1.771   6.737   8.320
 6952WAT      O21097   5.180   5.440   3.225
 6952WAT     H121098   5.111   5.504   3.259
 6952WAT     H221099   5.137   5.374   3.164
 6953WAT      O21100   7.051   5.354   8.796
 6953WAT     H121101   7.057   5.256   8.811
 6953WAT     H221102   7.029   5.400   8.882
 6954WAT      O21103   1.257   8.629   7.346
 6954WAT     H121104   1.269   8.557   7.415
 6954WAT     H221105   1.229   8.587   7.260
 6955WAT      O21106   0.968   7.211   0.710
 6955WAT     H121107   1.039   7.174   0.771
 6955WAT     H221108   0.895   7.143   0.700
 6956WAT      O21109   2.466   8.573   3.640
 6956WAT     H121110   2.408   8.576   3.721
 6956WAT     H221111   2.560   8.551   3.666
 6957WAT      O21112   1.339   6.037   0.790
 6957WAT     H121113   1.384   5.949   0.777
 6957WAT     H221114   1.408   6.108   0.803
 6958WAT      O21115   7.335   1.583   0.992
 6958WAT     H121116   7.350   1.505   1.052
 6958WAT     H221117   7.393   1.574   0.911
 6959WAT      O21118   4.216   0.462   6.367
 6959WAT     H121119   4.262   0.514   6.295
 6959WAT     H221120   4.125   0.435   6.335
 6960WAT      O21121   3.265   9.659   3.600
 6960WAT     H121122   3.287   9.665   3.698
 6960WAT     H221123   3.186   9.598   3.588
 6961WAT      O21124   8.865   2.347   5.219
 6961WAT     H121125   8.799   2.280   5.253
 6961WAT     H221126   8.837   2.438   5.249
 6962WAT      O21127   7.086   7.755   4.952
 6962WAT     H121128   7.080   7.710   5.041
 6962WAT     H221129   7.019   7.829   4.948
 6963WAT      O21130   4.419   8.404   2.183
 6963WAT     H121131   4.432   8.473   2.112
 6963WAT     H221132   4.345   8.432   2.244
 6964WAT      O21133   0.404   6.787   8.145
 6964WAT     H121134   0.391   6.704   8.090
 6964WAT     H221135   0.451   6.763   8.230
 6965WAT      O21136   8.093   1.094   6.509
 6965WAT     H121137   8.165   1.073   6.443
 6965WAT     H221138   8.009   1.119   6.460
 6966WAT      O21139   9.546   7.248   0.258
 6966WAT     H121140   9.487   7.177   0.294
 6966WAT     H221141   9.577   7.222   0.166
 6967WAT      O21142   3.658   0.767   0.878
 6967WAT     H121143   3.561   0.747   0.860
 6967WAT     H221144   3.714   0.727   0.805
 6968WAT      O21145   8.538   9.826   7.910
 6968WAT     H121146   8.604   9.811   7.836
 6968WAT     H221147   8.462   9.762   7.899
 6969WAT      O21148   1.496   0.992   0.813
 6969WAT     H121149   1.573   0.985   0.877
 6969WAT     H221150   1.522   0.954   0.725
 6970WAT      O21151   3.208   5.453   4.334
 6970WAT     H121152   3.273   5.451   4.257
 6970WAT     H221153   3.248   5.407   4.413
 6971WAT      O21154   2.125   5.340   8.353
 6971WAT     H121155   2.220   5.330   8.323
 6971WAT     H221156   2.080   5.410   8.299
 6972WAT      O21157   0.923   9.088   0.122
 6972WAT     H121158   0.881   9.018   0.179
 6972WAT     H221159   0.999   9.130   0.172
 6973WAT      O21160   8.598   1.966   3.794
 6973WAT     H121161   8.562   2.041   3.849
 6973WAT     H221162   8.679   1.997   3.744
 6974WAT      O21163   4.842   1.057   9.525
 6974WAT     H121164   4.797   1.032   9.612
 6974WAT     H221165   4.773   1.061   9.453
 6975WAT      O21166   9.503   8.154   0.390
 6975WAT     H121167   9.575   8.105   0.438
 6975WAT     H221168   9.434   8.185   0.455
 6976WAT      O21169   9.693   6.814   1.357
 6976WAT     H121170   9.622   6.837   1.290
 6976WAT     H221171   9.651   6.798   1.446
 6977WAT      O21172   0.339   4.152   3.827
 6977WAT     H121173   0.373   4.093   3.901
 6977WAT     H221174   0.373   4.119   3.739
 6978WAT      O21175   8.046   6.362   3.649
 6978WAT     H121176   7.948   6.350   3.663
 6978WAT     H221177   8.070   6.458   3.666
 6979WAT      O21178   1.585   3.835   2.559
 6979WAT     H121179   1.602   3.932   2.541
 6979WAT     H221180   1.487   3.820   2.572
 6980WAT      O21181   1.151   5.750   3.325
 6980WAT     H121182   1.215   5.826   3.326
 6980WAT     H221183   1.129   5.726   3.231
 6981WAT      O21184   8.759   7.403   3.343
 6981WAT     H121185   8.834   7.468   3.331
 6981WAT     H221186   8.684   7.429   3.282
 6982WAT      O21187   2.332   3.125   7.780
 6982WAT     H121188   2.288   3.075   7.855
 6982WAT     H221189   2.431   3.110   7.783
 6983WAT      O21190   1.408   1.759   0.512
 6983WAT     H121191   1.487   1.751   0.573
 6983WAT     H221192   1.377   1.667   0.486
 6984WAT      O21193   4.992   6.369   7.227
 6984WAT     H121194   4.992   6.372   7.127
 6984WAT     H221195   4.985   6.275   7.258
 6985WAT      O21196   8.738   7.759   1.749
 6985WAT     H121197   8.798   7.687   1.715
 6985WAT     H221198   8.737   7.835   1.684
 6986WAT      O21199   5.762   7.605   1.425
 6986WAT     H121200   5.725   7.519   1.460
 6986WAT     H221201   5.717   7.682   1.470
 6987WAT      O21202   3.822   1.597   4.377
 6987WAT     H121203   3.801   1.578   4.473
 6987WAT     H221204   3.765   1.672   4.345
 6988WAT      O21205   4.554   6.563   5.334
 6988WAT     H121206   4.576   6.488   5.397
 6988WAT     H221207   4.635   6.587   5.280
 6989WAT      O21208   3.522   0.664   4.576
 6989WAT     H121209   3.521   0.674   4.476
 6989WAT     H221210   3.492   0.572   4.601
 6990WAT      O21211   9.293   2.917   6.525
 6990WAT     H121212   9.260   2.964   6.607
 6990WAT     H221213   9.390   2.898   6.533
 6991WAT      O21214   7.075   7.803   3.393
 6991WAT     H121215   7.016   7.724   3.409
 6991WAT     H221216   7.096   7.848   3.480
 6992WAT      O21217   3.600   8.779   9.030
 6992WAT     H121218   3.697   8.798   9.045
 6992WAT     H221219   3.552   8.780   9.118
 6993WAT      O21220   2.359   9.493   7.295
 6993WAT     H121221   2.289   9.431   7.260
 6993WAT     H221222   2.450   9.453   7.282
 6994WAT      O21223   2.934   8.194   7.825
 6994WAT     H121224   2.969   8.245   7.904
 6994WAT     H221225   2.945   8.096   7.840
 6995WAT      O21226   5.156   0.742   5.519
 6995WAT     H121227   5.231   0.766   5.580
 6995WAT     H221228   5.126   0.824   5.470
 6996WAT      O21229   4.965   6.777   6.865
 6996WAT     H121230   4.997   6.742   6.776
 6996WAT     H221231   4.997   6.716   6.937
 6997WAT      O21232   2.572   4.077   7.485
 6997WAT     H121233   2.526   4.080   7.397
 6997WAT     H221234   2.622   4.163   7.500
 6998WAT      O21235   0.615   9.715   0.682
 6998WAT     H121236   0.519   9.715   0.653
 6998WAT     H221237   0.650   9.808   0.679
 6999WAT      O21238   4.180   9.673   0.042
 6999WAT     H121239   4.095   9.648   0.088
 6999WAT     H221240   4.192   9.615  -0.039
 7000WAT      O21241   3.760   1.618   5.062
 7000WAT     H121242   3.756   1.705   5.014
 7000WAT     H221243   3.849   1.607   5.105
 7001WAT      O21244   0.474   6.128   9.357
 7001WAT     H121245   0.434   6.085   9.276
 7001WAT     H221246   0.568   6.157   9.337
 7002WAT      O21247   7.110   0.860   0.933
 7002WAT     H121248   7.047   0.933   0.960
 7002WAT     H221249   7.064   0.799   0.868
 7003WAT      O21250   5.010   5.342   1.121
 7003WAT     H121251   5.078   5.270   1.107
 7003WAT     H221252   4.968   5.330   1.210
 7004WAT      O21253   1.473   0.166   1.545
 7004WAT     H121254   1.526   0.237   1.498
 7004WAT     H221255   1.501   0.076   1.513
 7005WAT      O21256   3.346   1.323   8.003
 7005WAT     H121257   3.352   1.404   8.062
 7005WAT     H221258   3.256   1.280   8.015
 7006WAT      O21259   0.613   7.727   9.096
 7006WAT     H121260   0.707   7.729   9.130
 7006WAT     H221261   0.594   7.637   9.057
 7007WAT      O21262   1.873   2.185   1.748
 7007WAT     H121263   1.857   2.176   1.846
 7007WAT     H221264   1.886   2.282   1.726
 7008WAT      O21265   7.921   7.562   2.407
 7008WAT     H121266   7.975   7.642   2.379
 7008WAT     H221267   7.866   7.586   2.488
 7009WAT      O21268   3.069   5.270   3.281
 7009WAT     H121269   3.014   5.326   3.219
 7009WAT     H221270   3.080   5.178   3.243
 7010WAT      O21271   4.616   8.478   3.710
 7010WAT     H121272   4.533   8.422   3.700
 7010WAT     H221273   4.678   8.460   3.634
 7011WAT      O21274   7.183   1.682   4.872
 7011WAT     H121275   7.227   1.608   4.924
 7011WAT     H221276   7.182   1.658   4.775
 7012WAT      O21277   3.673   2.697   2.359
 7012WAT     H121278   3.628   2.637   2.425
 7012WAT     H221279   3.771   2.698   2.377
 7013WAT      O21280   0.420   4.703   8.954
 7013WAT     H121281   0.469   4.660   8.879
 7013WAT     H221282   0.341   4.647   8.978
 7014WAT      O21283   1.996   2.761   9.345
 7014WAT     H121284   1.913   2.768   9.401
 7014WAT     H221285   1.997   2.836   9.279
 7015WAT      O21286   7.275   8.184   3.598
 7015WAT     H121287   7.281   8.142   3.508
 7015WAT     H221288   7.251   8.281   3.589
 7016WAT      O21289   4.638   6.031   5.872
 7016WAT     H121290   4.704   6.027   5.798
 7016WAT     H221291   4.579   6.111   5.860
 7017WAT      O21292   9.844   3.492   6.393
 7017WAT     H121293   9.844   3.512   6.491
 7017WAT     H221294   9.839   3.394   6.378
 7018WAT      O21295   1.792   5.957   1.755
 7018WAT     H121296   1.847   5.937   1.674
 7018WAT     H221297   1.735   6.037   1.738
 7019WAT      O21298   3.271   8.103   5.766
 7019WAT     H121299   3.246   8.148   5.680
 7019WAT     H221300   3.199   8.038   5.792
 7020WAT      O21301   6.359   1.132   4.154
 7020WAT     H121302   6.389   1.180   4.236
 7020WAT     H221303   6.298   1.057   4.180
 7021WAT      O21304   3.888   0.649   8.471
 7021WAT     H121305   3.861   0.742   8.496
 7021WAT     H221306   3.807   0.590   8.468
 7022WAT      O21307   1.323   5.205   1.533
 7022WAT     H121308   1.262   5.164   1.465
 7022WAT     H221309   1.279   5.286   1.573
 7023WAT      O21310   3.057   5.057   4.490
 7023WAT     H121311   2.976   5.091   4.441
 7023WAT     H221312   3.137   5.066   4.431
 7024WAT      O21313   4.465   2.802   2.919
 7024WAT     H121314   4.549   2.753   2.939
 7024WAT     H221315   4.466   2.835   2.825
 7025WAT      O21316   8.356   2.076   5.595
 7025WAT     H121317   8.450   2.042   5.590
 7025WAT     H221318   8.356   2.175   5.577
 7026WAT      O21319   4.018   9.422   1.776
 7026WAT     H121320   4.072   9.498   1.813
 7026WAT     H221321   4.039   9.410   1.679
 7027WAT      O21322   7.203   3.205   9.028
 7027WAT     H121323   7.262   3.208   8.948
 7027WAT     H221324   7.244   3.259   9.102
 7028WAT      O21325   1.242   7.296   8.479
 7028WAT     H121326   1.245   7.395   8.492
 7028WAT     H221327   1.231   7.276   8.381
 7029WAT      O21328   7.590   4.630   0.035
 7029WAT     H121329   7.595   4.727   0.011
 7029WAT     H221330   7.617   4.617   0.130
 7030WAT      O21331   6.057   0.074   0.727
 7030WAT     H121332   6.122   0.141   0.761
 7030WAT     H221333   6.004   0.037   0.803
 7031WAT      O21334   6.890   3.945   2.393
 7031WAT     H121335   6.894   3.862   2.449
 7031WAT     H221336   6.971   3.950   2.334
 7032WAT      O21337   4.493   2.037   7.933
 7032WAT     H121338   4.543   2.014   7.849
 7032WAT     H221339   4.491   2.137   7.943
 7033WAT      O21340   9.650   0.855   6.731
 7033WAT     H121341   9.719   0.792   6.765
 7033WAT     H221342   9.632   0.925   6.801
 7034WAT      O21343   8.095   9.342   3.797
 7034WAT     H121344   8.046   9.361   3.882
 7034WAT     H221345   8.133   9.249   3.800
 7035WAT      O21346   0.805   2.918   4.508
 7035WAT     H121347   0.773   3.009   4.533
 7035WAT     H221348   0.793   2.904   4.410
 7036WAT      O21349   7.814   7.765   4.004
 7036WAT     H121350   7.869   7.799   4.080
 7036WAT     H221351   7.743   7.704   4.039
 7037WAT      O21352   8.839   8.664   3.359
 7037WAT     H121353   8.865   8.570   3.380
 7037WAT     H221354   8.913   8.726   3.387
 7038WAT      O21355   3.216   9.710   3.033
 7038WAT     H121356   3.256   9.718   3.125
 7038WAT     H221357   3.181   9.799   3.004
 7039WAT      O21358   0.147   1.197   9.231
 7039WAT     H121359   0.155   1.270   9.163
 7039WAT     H221360   0.093   1.228   9.309
 7040WAT      O21361   4.071   7.670   1.889
 7040WAT     H121362   3.974   7.661   1.909
 7040WAT     H221363   4.117   7.582   1.902
 7041WAT      O21364   1.792   0.423   4.497
 7041WAT     H121365   1.879   0.381   4.523
 7041WAT     H221366   1.775   0.408   4.400
 7042WAT      O21367   7.082   5.414   0.497
 7042WAT     H121368   7.103   5.341   0.562
 7042WAT     H221369   7.126   5.499   0.526
 7043WAT      O21370   5.877   9.046   2.229
 7043WAT     H121371   5.916   9.108   2.161
 7043WAT     H221372   5.908   9.073   2.320
 7044WAT      O21373   4.271   4.735   6.234
 7044WAT     H121374   4.177   4.770   6.236
 7044WAT     H221375   4.278   4.663   6.165
 7045WAT      O21376   2.552   1.064   7.561
 7045WAT     H121377   2.561   1.058   7.461
 7045WAT     H221378   2.457   1.083   7.585
 7046WAT      O21379   5.900   9.094   8.918
 7046WAT     H121380   5.867   9.065   9.008
 7046WAT     H221381   5.977   9.157   8.929
 7047WAT      O21382   0.226   3.320   5.913
 7047WAT     H121383   0.244   3.357   6.004
 7047WAT     H221384   0.241   3.221   5.914
 7048WAT      O21385   3.714   4.519   8.023
 7048WAT     H121386   3.806   4.518   7.983
 7048WAT     H221387   3.673   4.428   8.014
 7049WAT      O21388   4.288   7.240   7.638
 7049WAT     H121389   4.305   7.326   7.687
 7049WAT     H221390   4.232   7.180   7.695
 7050WAT      O21391   1.003   2.124   5.182
 7050WAT     H121392   1.093   2.165   5.198
 7050WAT     H221393   1.012   2.047   5.119
 7051WAT      O21394   9.339   5.100   3.032
 7051WAT     H121395   9.249   5.072   3.065
 7051WAT     H221396   9.379   5.166   3.096
 7052WAT      O21397   0.433   2.878   0.577
 7052WAT     H121398   0.471   2.904   0.488
 7052WAT     H221399   0.438   2.956   0.640
 7053WAT      O21400   3.694   6.197   8.292
 7053WAT     H121401   3.675   6.114   8.344
 7053WAT     H221402   3.635   6.200   8.212
 7054WAT      O21403   5.780   0.966   4.641
 7054WAT     H121404   5.745   0.956   4.548
 7054WAT     H221405   5.878   0.985   4.638
 7055WAT      O21406   6.843   8.074   8.846
 7055WAT     H121407   6.760   8.038   8.805
 7055WAT     H221408   6.823   8.109   8.938
 7056WAT      O21409   8.669   6.643   5.700
 7056WAT     H121410   8.686   6.545   5.701
 7056WAT     H221411   8.571   6.660   5.693
 7057WAT      O21412   8.891   3.326   3.715
 7057WAT     H121413   8.907   3.282   3.803
 7057WAT     H221414   8.961   3.297   3.649
 7058WAT      O21415   4.954   8.796   6.355
 7058WAT     H121416   4.912   8.708   6.334
 7058WAT     H221417   4.964   8.805   6.454
 7059WAT      O21418   1.067   5.366   3.070
 7059WAT     H121419   1.085   5.443   3.008
 7059WAT     H221420   0.987   5.315   3.038
 7060WAT      O21421   6.776   3.109   3.289
 7060WAT     H121422   6.682   3.106   3.254
 7060WAT     H221423   6.840   3.084   3.216
 7061WAT      O21424   9.130   5.949   9.866
 7061WAT     H121425   9.041   5.915   9.836
 7061WAT     H221426   9.122   5.988   9.958
 7062WAT      O21427   6.290   8.739   5.557
 7062WAT     H121428   6.284   8.838   5.565
 7062WAT     H221429   6.338   8.702   5.636
 7063WAT      O21430   5.386   0.619   8.875
 7063WAT     H121431   5.325   0.553   8.919
 7063WAT     H221432   5.372   0.618   8.776
 7064WAT      O21433   2.969   0.511   7.522
 7064WAT     H121434   2.994   0.598   7.565
 7064WAT     H221435   3.001   0.510   7.427
 7065WAT      O21436   9.432   9.831   5.197
 7065WAT     H121437   9.469   9.845   5.289
 7065WAT     H221438   9.395   9.916   5.162
 7066WAT      O21439   8.527   4.483   8.378
 7066WAT     H121440   8.598   4.413   8.376
 7066WAT     H221441   8.483   4.489   8.288
 7067WAT      O21442   1.427   5.667   7.248
 7067WAT     H121443   1.379   5.733   7.191
 7067WAT     H221444   1.421   5.576   7.206
 7068WAT      O21445   4.468   6.064   3.084
 7068WAT     H121446   4.561   6.043   3.113
 7068WAT     H221447   4.439   5.998   3.014
 7069WAT      O21448   0.149   0.286   4.531
 7069WAT     H121449   0.150   0.386   4.522
 7069WAT     H221450   0.109   0.246   4.449
 7070WAT      O21451   4.511   9.677   5.463
 7070WAT     H121452   4.476   9.589   5.496
 7070WAT     H221453   4.449   9.750   5.492
 7071WAT      O21454   8.089   3.479   8.811
 7071WAT     H121455   8.137   3.562   8.839
 7071WAT     H221456   8.127   3.401   8.861
 7072WAT      O21457   5.574   9.135   5.583
 7072WAT     H121458   5.663   9.150   5.539
 7072WAT     H221459   5.511   9.208   5.557
 7073WAT      O21460   6.621   0.329   1.392
 7073WAT     H121461   6.592   0.400   1.328
 7073WAT     H221462   6.718   0.307   1.376
 7074WAT      O21463   7.958   4.724   9.284
 7074WAT     H121464   8.014   4.692   9.208
 7074WAT     H221465   7.878   4.664   9.294
 7075WAT      O21466   4.573   4.103   0.401
 7075WAT     H121467   4.510   4.172   0.437
 7075WAT     H221468   4.539   4.012   0.423
 7076WAT      O21469   1.497   7.248   7.714
 7076WAT     H121470   1.430   7.318   7.691
 7076WAT     H221471   1.529   7.262   7.808
 7077WAT      O21472   4.947   4.030   8.770
 7077WAT     H121473   4.904   3.999   8.686
 7077WAT     H221474   4.886   4.095   8.817
 7078WAT      O21475   7.055   2.958   8.701
 7078WAT     H121476   7.115   3.038   8.704
 7078WAT     H221477   6.960   2.986   8.705
 7079WAT      O21478   3.411   4.393   0.333
 7079WAT     H121479   3.458   4.469   0.376
 7079WAT     H221480   3.436   4.308   0.380
 7080WAT      O21481   4.219   7.593   8.048
 7080WAT     H121482   4.237   7.497   8.029
 7080WAT     H221483   4.293   7.630   8.105
 7081WAT      O21484   0.007   1.475   2.023
 7081WAT     H121485  -0.044   1.401   1.979
 7081WAT     H221486  -0.037   1.499   2.110
 7082WAT      O21487   0.802   5.740   8.527
 7082WAT     H121488   0.869   5.694   8.468
 7082WAT     H221489   0.711   5.732   8.486
 7083WAT      O21490   4.732   7.669   5.929
 7083WAT     H121491   4.785   7.607   5.987
 7083WAT     H221492   4.667   7.720   5.985
 7084WAT      O21493   1.098   1.384   1.961
 7084WAT     H121494   1.088   1.483   1.967
 7084WAT     H221495   1.108   1.346   2.053
 7085WAT      O21496   7.587   5.568   0.132
 7085WAT     H121497   7.611   5.471   0.133
 7085WAT     H221498   7.633   5.615   0.207
 7086WAT      O21499   2.705   1.421   8.290
 7086WAT     H121500   2.746   1.348   8.235
 7086WAT     H221501   2.619   1.450   8.249
 7087WAT      O21502   3.393   7.244   9.643
 7087WAT     H121503   3.420   7.316   9.707
 7087WAT     H221504   3.410   7.275   9.549
 7088WAT      O21505   4.829   1.620   6.276
 7088WAT     H121506   4.754   1.609   6.340
 7088WAT     H221507   4.839   1.536   6.222
 7089WAT      O21508   9.771   9.345   5.776
 7089WAT     H121509   9.807   9.252   5.783
 7089WAT     H221510   9.681   9.343   5.734
 7090WAT      O21511   6.553   0.481   6.975
 7090WAT     H121512   6.481   0.523   6.918
 7090WAT     H221513   6.639   0.530   6.960
 7091WAT      O21514   8.309   5.471   0.967
 7091WAT     H121515   8.363   5.408   0.911
 7091WAT     H221516   8.212   5.457   0.949
 7092WAT      O21517   2.715   3.425   3.998
 7092WAT     H121518   2.679   3.410   3.906
 7092WAT     H221519   2.640   3.441   4.061
 7093WAT      O21520   4.901   3.491   1.673
 7093WAT     H121521   4.895   3.509   1.771
 7093WAT     H221522   4.809   3.487   1.634
 7094WAT      O21523   4.389   5.010   8.032
 7094WAT     H121524   4.339   4.933   7.991
 7094WAT     H221525   4.480   4.979   8.059
 7095WAT      O21526   4.592   9.404   8.358
 7095WAT     H121527   4.676   9.449   8.388
 7095WAT     H221528   4.591   9.310   8.393
 7096WAT      O21529   6.834   6.280   0.099
 7096WAT     H121530   6.852   6.286   0.000
 7096WAT     H221531   6.914   6.314   0.149
 7097WAT      O21532   9.857   5.162   6.923
 7097WAT     H121533   9.902   5.091   6.976
 7097WAT     H221534   9.765   5.178   6.960
 7098WAT      O21535   3.308   2.280   9.285
 7098WAT     H121536   3.363   2.303   9.365
 7098WAT     H221537   3.355   2.211   9.230
 7099WAT      O21538   8.200   0.051   6.050
 7099WAT     H121539   8.298   0.070   6.044
 7099WAT     H221540   8.169   0.064   6.144
 7100WAT      O21541   9.685   2.424   6.283
 7100WAT     H121542   9.773   2.442   6.328
 7100WAT     H221543   9.611   2.435   6.350
 7101WAT      O21544   2.569   6.480   0.425
 7101WAT     H121545   2.655   6.429   0.430
 7101WAT     H221546   2.584   6.574   0.457
 7102WAT      O21547   9.378   5.951   6.899
 7102WAT     H121548   9.368   6.051   6.893
 7102WAT     H221549   9.319   5.908   6.830
 7103WAT      O21550   3.321   1.520   2.045
 7103WAT     H121551   3.334   1.462   2.125
 7103WAT     H221552   3.275   1.469   1.973
 7104WAT      O21553   6.366   3.545   3.029
 7104WAT     H121554   6.270   3.573   3.034
 7104WAT     H221555   6.413   3.574   3.112
 7105WAT      O21556   1.666   0.572   6.264
 7105WAT     H121557   1.579   0.595   6.308
 7105WAT     H221558   1.650   0.553   6.167
 7106WAT      O21559   3.909   3.993   0.422
 7106WAT     H121560   3.818   3.998   0.383
 7106WAT     H221561   3.904   3.953   0.514
 7107WAT      O21562   0.293   9.582   7.109
 7107WAT     H121563   0.196   9.580   7.132
 7107WAT     H221564   0.347   9.576   7.193
 7108WAT      O21565   7.361   1.172   9.298
 7108WAT     H121566   7.326   1.082   9.274
 7108WAT     H221567   7.451   1.162   9.340
 7109WAT      O21568   0.968   5.904   7.483
 7109WAT     H121569   0.895   5.851   7.527
 7109WAT     H221570   1.057   5.874   7.519
 7110WAT      O21571   4.199   7.776   9.854
 7110WAT     H121572   4.128   7.725   9.804
 7110WAT     H221573   4.280   7.718   9.863
 7111WAT      O21574   1.118   2.944   7.743
 7111WAT     H121575   1.092   3.038   7.765
 7111WAT     H221576   1.203   2.921   7.791
 7112WAT      O21577   3.118   8.546   7.178
 7112WAT     H121578   3.193   8.599   7.215
 7112WAT     H221579   3.116   8.556   7.078
 7113WAT      O21580   9.653   0.805   4.064
 7113WAT     H121581   9.720   0.756   4.008
 7113WAT     H221582   9.698   0.882   4.109
 7114WAT      O21583   1.444   5.732   4.567
 7114WAT     H121584   1.355   5.685   4.568
 7114WAT     H221585   1.517   5.664   4.565
 7115WAT      O21586   8.855   6.334   8.533
 7115WAT     H121587   8.891   6.318   8.442
 7115WAT     H221588   8.756   6.341   8.529
 7116WAT      O21589   3.578   0.011   2.484
 7116WAT     H121590   3.653  -0.029   2.431
 7116WAT     H221591   3.571   0.108   2.463
 7117WAT      O21592   4.174   6.089   2.775
 7117WAT     H121593   4.111   6.165   2.758
 7117WAT     H221594   4.253   6.097   2.714
 7118WAT      O21595   1.095   2.261   0.220
 7118WAT     H121596   1.003   2.226   0.202
 7118WAT     H221597   1.125   2.231   0.310
 7119WAT      O21598   9.256   8.117   4.674
 7119WAT     H121599   9.234   8.029   4.715
 7119WAT     H221600   9.290   8.103   4.581
 7120WAT      O21601   2.601   4.427   1.030
 7120WAT     H121602   2.680   4.452   1.087
 7120WAT     H221603   2.607   4.473   0.942
 7121WAT      O21604   3.361   5.699   5.622
 7121WAT     H121605   3.455   5.684   5.653
 7121WAT     H221606   3.307   5.615   5.635
 7122WAT      O21607   0.663   5.473   4.321
 7122WAT     H121608   0.589   5.429   4.373
 7122WAT     H221609   0.635   5.481   4.226
 7123WAT      O21610   2.327   0.715   8.837
 7123WAT     H121611   2.274   0.639   8.801
 7123WAT     H221612   2.413   0.681   8.877
 7124WAT      O21613   1.456   8.353   7.962
 7124WAT     H121614   1.516   8.433   7.966
 7124WAT     H221615   1.362   8.382   7.946
 7125WAT      O21616   8.902   8.452   9.403
 7125WAT     H121617   8.880   8.504   9.320
 7125WAT     H221618   8.999   8.463   9.425
 7126WAT      O21619   6.084   9.569   3.832
 7126WAT     H121620   6.127   9.498   3.777
 7126WAT     H221621   6.065   9.533   3.924
 7127WAT      O21622   9.432   6.828   7.703
 7127WAT     H121623   9.452   6.893   7.776
 7127WAT     H221624   9.517   6.786   7.671
 7128WAT      O21625   5.800   2.729   1.124
 7128WAT     H121626   5.820   2.674   1.205
 7128WAT     H221627   5.810   2.826   1.146
 7129WAT      O21628   5.813   0.192   5.287
 7129WAT     H121629   5.785   0.288   5.279
 7129WAT     H221630   5.777   0.154   5.372
 7130WAT      O21631   4.689   4.719   6.280
 7130WAT     H121632   4.591   4.706   6.296
 7130WAT     H221633   4.729   4.769   6.358
 7131WAT      O21634   7.934   6.725   8.298
 7131WAT     H121635   7.932   6.732   8.198
 7131WAT     H221636   7.995   6.650   8.325
 7132WAT      O21637   1.975   1.660   3.991
 7132WAT     H121638   1.895   1.611   3.956
 7132WAT     H221639   2.047   1.660   3.923
 7133WAT      O21640   9.624   4.597   9.017
 7133WAT     H121641   9.579   4.609   9.105
 7133WAT     H221642   9.605   4.676   8.958
 7134WAT      O21643   4.200   4.689   9.735
 7134WAT     H121644   4.298   4.671   9.741
 7134WAT     H221645   4.172   4.688   9.639
 7135WAT      O21646   1.108   0.576   7.318
 7135WAT     H121647   1.201   0.590   7.284
 7135WAT     H221648   1.055   0.659   7.305
 7136WAT      O21649   2.195   5.519   4.599
 7136WAT     H121650   2.139   5.494   4.678
 7136WAT     H221651   2.147   5.492   4.515
 7137WAT      O21652   8.204   6.426   5.286
 7137WAT     H121653   8.252   6.339   5.276
 7137WAT     H221654   8.247   6.495   5.228
 7138WAT      O21655   8.983   7.401   1.517
 7138WAT     H121656   9.042   7.424   1.440
 7138WAT     H221657   8.929   7.320   1.495
 7139WAT      O21658   0.236   5.281   2.805
 7139WAT     H121659   0.164   5.212   2.795
 7139WAT     H221660   0.195   5.371   2.822
 7140WAT      O21661   7.589   8.377   4.049
 7140WAT     H121662   7.688   8.375   4.034
 7140WAT     H221663   7.543   8.363   3.961
 7141WAT      O21664   0.886   9.255   1.634
 7141WAT     H121665   0.881   9.207   1.721
 7141WAT     H221666   0.925   9.346   1.648
 7142WAT      O21667   5.654   4.177   1.129
 7142WAT     H121668   5.582   4.188   1.197
 7142WAT     H221669   5.740   4.153   1.174
 7143WAT      O21670   1.810   9.741   8.976
 7143WAT     H121671   1.781   9.806   9.046
 7143WAT     H221672   1.741   9.735   8.904
 7144WAT      O21673   3.925   4.070   0.735
 7144WAT     H121674   3.897   4.163   0.711
 7144WAT     H221675   3.848   4.008   0.723
 7145WAT      O21676   9.556   3.679   9.806
 7145WAT     H121677   9.533   3.688   9.709
 7145WAT     H221678   9.517   3.595   9.842
 7146WAT      O21679   5.368   1.830   9.254
 7146WAT     H121680   5.274   1.844   9.224
 7146WAT     H221681   5.381   1.869   9.345
 7147WAT      O21682   1.036   6.097   6.318
 7147WAT     H121683   1.016   6.148   6.235
 7147WAT     H221684   1.122   6.129   6.357
 7148WAT      O21685   4.211   8.633   5.127
 7148WAT     H121686   4.278   8.673   5.065
 7148WAT     H221687   4.119   8.651   5.092
 7149WAT      O21688   6.252   1.165   5.019
 7149WAT     H121689   6.214   1.257   5.032
 7149WAT     H221690   6.177   1.100   5.009
 7150WAT      O21691   4.647   8.912   0.597
 7150WAT     H121692   4.650   8.989   0.534
 7150WAT     H221693   4.569   8.922   0.659
 7151WAT      O21694   3.529   7.387   3.038
 7151WAT     H121695   3.487   7.319   3.099
 7151WAT     H221696   3.552   7.468   3.092
 7152WAT      O21697   4.270   0.137   4.508
 7152WAT     H121698   4.205   0.190   4.454
 7152WAT     H221699   4.247   0.145   4.605
 7153WAT      O21700   9.808   0.331   4.698
 7153WAT     H121701   9.739   0.403   4.697
 7153WAT     H221702   9.895   0.366   4.664
 7154WAT      O21703   2.121   5.359   4.334
 7154WAT     H121704   2.176   5.363   4.251
 7154WAT     H221705   2.028   5.328   4.311
 7155WAT      O21706   6.089   6.944   4.456
 7155WAT     H121707   6.106   7.020   4.519
 7155WAT     H221708   5.991   6.921   4.458
 7156WAT      O21709   3.769   8.331   2.114
 7156WAT     H121710   3.760   8.407   2.178
 7156WAT     H221711   3.689   8.328   2.053
 7157WAT      O21712   1.890   1.505   0.204
 7157WAT     H121713   1.925   1.413   0.220
 7157WAT     H221714   1.967   1.568   0.192
 7158WAT      O21715   2.251   6.577   9.223
 7158WAT     H121716   2.308   6.518   9.280
 7158WAT     H221717   2.168   6.527   9.197
 7159WAT      O21718   9.266   6.734   6.465
 7159WAT     H121719   9.344   6.677   6.440
 7159WAT     H221720   9.244   6.720   6.561
 7160WAT      O21721   4.778   9.201   8.643
 7160WAT     H121722   4.835   9.150   8.708
 7160WAT     H221723   4.698   9.146   8.619
 7161WAT      O21724   6.780   3.526   8.340
 7161WAT     H121725   6.867   3.525   8.388
 7161WAT     H221726   6.741   3.433   8.340
 7162WAT      O21727   9.098   0.985   9.131
 7162WAT     H121728   9.183   1.014   9.176
 7162WAT     H221729   9.108   0.997   9.032
 7163WAT      O21730   8.402   6.090   5.470
 7163WAT     H121731   8.344   6.015   5.501
 7163WAT     H221732   8.373   6.119   5.378
 7164WAT      O21733   1.466   2.397   7.891
 7164WAT     H121734   1.388   2.458   7.892
 7164WAT     H221735   1.499   2.386   7.797
 7165WAT      O21736   8.829   3.031   3.678
 7165WAT     H121737   8.885   2.964   3.628
 7165WAT     H221738   8.736   2.996   3.686
 7166WAT      O21739   2.118   5.844   8.659
 7166WAT     H121740   2.087   5.838   8.754
 7166WAT     H221741   2.051   5.896   8.606
 7167WAT      O21742   9.199   6.713   4.631
 7167WAT     H121743   9.173   6.674   4.542
 7167WAT     H221744   9.127   6.694   4.698
 7168WAT      O21745   0.103   4.902   6.328
 7168WAT     H121746   0.064   4.844   6.399
 7168WAT     H221747   0.041   4.906   6.250
 7169WAT      O21748   1.101   7.870   0.068
 7169WAT     H121749   1.070   7.917   0.151
 7169WAT     H221750   1.059   7.779   0.064
 7170WAT      O21751   9.147   5.007   4.121
 7170WAT     H121752   9.050   5.008   4.098
 7170WAT     H221753   9.200   4.974   4.043
 7171WAT      O21754   4.965   4.445   4.259
 7171WAT     H121755   4.947   4.434   4.161
 7171WAT     H221756   4.972   4.354   4.302
 7172WAT      O21757   3.152   2.774   6.307
 7172WAT     H121758   3.083   2.712   6.344
 7172WAT     H221759   3.240   2.725   6.301
 7173WAT      O21760   8.407   5.140   7.798
 7173WAT     H121761   8.471   5.215   7.784
 7173WAT     H221762   8.327   5.151   7.739
 7174WAT      O21763   1.640   8.698   1.872
 7174WAT     H121764   1.575   8.646   1.928
 7174WAT     H221765   1.660   8.786   1.916
 7175WAT      O21766   7.765   0.872   2.007
 7175WAT     H121767   7.770   0.939   1.933
 7175WAT     H221768   7.714   0.910   2.084
 7176WAT      O21769   4.334   8.975   5.278
 7176WAT     H121770   4.361   9.041   5.347
 7176WAT     H221771   4.290   8.896   5.322
 7177WAT      O21772   3.336   5.375   3.805
 7177WAT     H121773   3.294   5.447   3.749
 7177WAT     H221774   3.283   5.291   3.797
 7178WAT      O21775   3.026   9.669   9.630
 7178WAT     H121776   2.964   9.742   9.660
 7178WAT     H221777   3.060   9.690   9.539
 7179WAT      O21778   5.964   9.178   2.882
 7179WAT     H121779   5.985   9.264   2.928
 7179WAT     H221780   5.871   9.181   2.847
 7180WAT      O21781   8.144   4.056   8.063
 7180WAT     H121782   8.213   3.985   8.051
 7180WAT     H221783   8.053   4.018   8.046
 7181WAT      O21784   7.175   7.058   5.218
 7181WAT     H121785   7.128   7.138   5.184
 7181WAT     H221786   7.126   7.021   5.298
 7182WAT      O21787   5.563   2.762   7.554
 7182WAT     H121788   5.621   2.782   7.633
 7182WAT     H221789   5.491   2.698   7.581
 7183WAT      O21790   4.887   9.639   0.789
 7183WAT     H121791   4.917   9.589   0.709
 7183WAT     H221792   4.892   9.738   0.771
 7184WAT      O21793   9.572   8.051   3.253
 7184WAT     H121794   9.666   8.065   3.221
 7184WAT     H221795   9.574   8.020   3.348
 7185WAT      O21796   3.858   2.687   6.644
 7185WAT     H121797   3.809   2.749   6.583
 7185WAT     H221798   3.880   2.602   6.595
 7186WAT      O21799   5.921   3.127   7.450
 7186WAT     H121800   5.838   3.078   7.478
 7186WAT     H221801   5.941   3.199   7.517
 7187WAT      O21802   5.801   2.347   6.041
 7187WAT     H121803   5.713   2.308   6.071
 7187WAT     H221804   5.807   2.342   5.942
 7188WAT      O21805   3.331   9.663   5.965
 7188WAT     H121806   3.375   9.659   5.875
 7188WAT     H221807   3.311   9.571   5.997
 7189WAT      O21808   4.377   8.952   1.969
 7189WAT     H121809   4.361   8.900   1.885
 7189WAT     H221810   4.384   9.049   1.946
 7190WAT      O21811   9.369   4.680   1.967
 7190WAT     H121812   9.291   4.736   1.939
 7190WAT     H221813   9.428   4.663   1.887
 7191WAT      O21814   3.159   2.433   9.122
 7191WAT     H121815   3.220   2.372   9.172
 7191WAT     H221816   3.096   2.379   9.067
 7192WAT      O21817   9.539   4.647   7.337
 7192WAT     H121818   9.535   4.547   7.340
 7192WAT     H221819   9.625   4.676   7.296
 7193WAT      O21820   0.389   0.727   1.976
 7193WAT     H121821   0.475   0.774   1.996
 7193WAT     H221822   0.407   0.649   1.915
 7194WAT      O21823   0.060   2.834   3.038
 7194WAT     H121824   0.042   2.766   2.967
 7194WAT     H221825  -0.014   2.833   3.105
 7195WAT      O21826   1.385   6.066   1.229
 7195WAT     H121827   1.319   6.064   1.154
 7195WAT     H221828   1.403   5.973   1.260
 7196WAT      O21829   6.651   7.156   4.860
 7196WAT     H121830   6.566   7.205   4.880
 7196WAT     H221831   6.725   7.222   4.849
 7197WAT      O21832   0.928   7.589   4.082
 7197WAT     H121833   0.850   7.526   4.088
 7197WAT     H221834   0.939   7.637   4.169
 7198WAT      O21835   8.672   3.537   6.875
 7198WAT     H121836   8.757   3.496   6.909
 7198WAT     H221837   8.633   3.477   6.804
 7199WAT      O21838   3.534   9.197   2.267
 7199WAT     H121839   3.459   9.252   2.231
 7199WAT     H221840   3.569   9.240   2.351
 7200WAT      O21841   8.050   3.757   3.147
 7200WAT     H121842   8.031   3.660   3.133
 7200WAT     H221843   7.985   3.812   3.094
 7201WAT      O21844   1.547   1.004   5.082
 7201WAT     H121845   1.552   0.972   5.176
 7201WAT     H221846   1.521   1.100   5.081
 7202WAT      O21847   3.858   0.489   0.188
 7202WAT     H121848   3.924   0.423   0.152
 7202WAT     H221849   3.795   0.516   0.116
 7203WAT      O21850   5.497   6.522   4.635
 7203WAT     H121851   5.513   6.526   4.733
 7203WAT     H221852   5.449   6.604   4.605
 7204WAT      O21853   1.233   2.765   8.375
 7204WAT     H121854   1.151   2.718   8.343
 7204WAT     H221855   1.300   2.771   8.301
 7205WAT      O21856   5.358   3.034   8.039
 7205WAT     H121857   5.359   2.995   8.131
 7205WAT     H221858   5.391   3.128   8.041
 7206WAT      O21859   0.292   2.240   3.662
 7206WAT     H121860   0.216   2.213   3.721
 7206WAT     H221861   0.303   2.175   3.588
 7207WAT      O21862   1.224   4.606   8.424
 7207WAT     H121863   1.139   4.566   8.391
 7207WAT     H221864   1.263   4.548   8.495
 7208WAT      O21865   2.339   4.243   6.243
 7208WAT     H121866   2.277   4.235   6.165
 7208WAT     H221867   2.366   4.151   6.273
 7209WAT      O21868   1.244   2.206   0.476
 7209WAT     H121869   1.241   2.270   0.552
 7209WAT     H221870   1.197   2.121   0.501
 7210WAT      O21871   0.553   5.768   1.817
 7210WAT     H121872   0.520   5.859   1.791
 7210WAT     H221873   0.652   5.772   1.833
 7211WAT      O21874   7.671   8.665   9.536
 7211WAT     H121875   7.759   8.692   9.575
 7211WAT     H221876   7.660   8.566   9.543
 7212WAT      O21877   7.726   7.818   0.885
 7212WAT     H121878   7.687   7.772   0.805
 7212WAT     H221879   7.742   7.751   0.958
 7213WAT      O21880   6.577   4.474   3.061
 7213WAT     H121881   6.623   4.389   3.032
 7213WAT     H221882   6.482   4.472   3.030
 7214WAT      O21883   3.061   3.794   9.689
 7214WAT     H121884   3.060   3.718   9.753
 7214WAT     H221885   3.080   3.879   9.738
 7215WAT      O21886   8.730   7.153   1.662
 7215WAT     H121887   8.718   7.118   1.755
 7215WAT     H221888   8.720   7.253   1.662
 7216WAT      O21889   6.380   8.779   3.818
 7216WAT     H121890   6.350   8.777   3.914
 7216WAT     H221891   6.301   8.790   3.758
 7217WAT      O21892   9.804   6.930   3.775
 7217WAT     H121893   9.817   7.029   3.782
 7217WAT     H221894   9.782   6.906   3.681
 7218WAT      O21895   6.328   0.687   4.165
 7218WAT     H121896   6.329   0.623   4.242
 7218WAT     H221897   6.267   0.763   4.185
 7219WAT      O21898   6.912   7.557   3.423
 7219WAT     H121899   6.877   7.475   3.468
 7219WAT     H221900   6.877   7.560   3.329
 7220WAT      O21901   0.791   7.520   8.547
 7220WAT     H121902   0.849   7.582   8.494
 7220WAT     H221903   0.765   7.564   8.633
 7221WAT      O21904   8.055   5.526   2.268
 7221WAT     H121905   8.010   5.446   2.229
 7221WAT     H221906   7.988   5.600   2.276
 7222WAT      O21907   2.057   2.511   5.537
 7222WAT     H121908   2.002   2.464   5.606
 7222WAT     H221909   2.154   2.496   5.555
 7223WAT      O21910   0.433   6.277   3.608
 7223WAT     H121911   0.339   6.307   3.625
 7223WAT     H221912   0.434   6.215   3.529
 7224WAT      O21913   3.558   6.024   9.574
 7224WAT     H121914   3.654   6.023   9.600
 7224WAT     H221915   3.505   6.073   9.643
 7225WAT      O21916   6.916   8.650   2.091
 7225WAT     H121917   6.968   8.625   2.173
 7225WAT     H221918   6.835   8.592   2.084
 7226WAT      O21919   2.327   6.032   9.548
 7226WAT     H121920   2.363   6.041   9.455
 7226WAT     H221921   2.377   6.093   9.610
 7227WAT      O21922   8.489   9.282   0.068
 7227WAT     H121923   8.430   9.361   0.083
 7227WAT     H221924   8.553   9.273   0.145
 7228WAT      O21925   2.424   8.340   1.321
 7228WAT     H121926   2.388   8.277   1.389
 7228WAT     H221927   2.512   8.307   1.288
 7229WAT      O21928   6.540   8.769   1.431
 7229WAT     H121929   6.459   8.745   1.377
 7229WAT     H221930   6.544   8.868   1.443
 7230WAT      O21931   7.385   6.143   4.884
 7230WAT     H121932   7.466   6.176   4.931
 7230WAT     H221933   7.311   6.210   4.892
 7231WAT      O21934   9.119   3.244   4.266
 7231WAT     H121935   9.191   3.257   4.197
 7231WAT     H221936   9.127   3.314   4.337
 7232WAT      O21937   9.556   3.920   4.777
 7232WAT     H121938   9.603   3.989   4.831
 7232WAT     H221939   9.592   3.829   4.799
 7233WAT      O21940   3.061   3.978   3.543
 7233WAT     H121941   3.131   3.981   3.614
 7233WAT     H221942   3.036   4.071   3.517
 7234WAT      O21943   1.419   3.555   3.169
 7234WAT     H121944   1.347   3.579   3.235
 7234WAT     H221945   1.480   3.488   3.210
 7235WAT      O21946   7.396   8.498   7.010
 7235WAT     H121947   7.329   8.472   7.080
 7235WAT     H221948   7.463   8.561   7.049
 7236WAT      O21949   1.976   8.615   9.045
 7236WAT     H121950   1.991   8.521   9.014
 7236WAT     H221951   1.894   8.618   9.101
 7237WAT      O21952   8.740   8.033   5.222
 7237WAT     H121953   8.723   7.997   5.131
 7237WAT     H221954   8.838   8.026   5.243
 7238WAT      O21955   6.596   4.245   2.855
 7238WAT     H121956   6.671   4.287   2.805
 7238WAT     H221957   6.629   4.167   2.908
 7239WAT      O21958   6.954   7.624   3.983
 7239WAT     H121959   6.994   7.553   4.041
 7239WAT     H221960   6.951   7.710   4.033
 7240WAT      O21961   0.049   5.837   8.740
 7240WAT     H121962  -0.004   5.877   8.666
 7240WAT     H221963   0.123   5.900   8.766
 7241WAT      O21964   3.361   2.852   4.610
 7241WAT     H121965   3.301   2.885   4.682
 7241WAT     H221966   3.310   2.792   4.548
 7242WAT      O21967   4.922   1.697   3.990
 7242WAT     H121968   4.864   1.621   3.964
 7242WAT     H221969   4.912   1.771   3.924
 7243WAT      O21970   7.799   0.058   2.059
 7243WAT     H121971   7.781   0.156   2.060
 7243WAT     H221972   7.723   0.010   2.103
 7244WAT      O21973   4.221   1.824   7.332
 7244WAT     H121974   4.321   1.824   7.330
 7244WAT     H221975   4.186   1.792   7.244
 7245WAT      O21976   5.741   3.015   4.718
 7245WAT     H121977   5.745   2.923   4.756
 7245WAT     H221978   5.809   3.073   4.762
 7246WAT      O21979   9.442   7.196   7.384
 7246WAT     H121980   9.514   7.194   7.454
 7246WAT     H221981   9.389   7.280   7.394
 7247WAT      O21982   6.191   3.980   2.140
 7247WAT     H121983   6.195   3.951   2.235
 7247WAT     H221984   6.097   4.005   2.117
 7248WAT      O21985   6.895   7.734   2.966
 7248WAT     H121986   6.835   7.661   2.997
 7248WAT     H221987   6.878   7.817   3.019
 7249WAT      O21988   4.937   5.414   2.180
 7249WAT     H121989   4.969   5.369   2.096
 7249WAT     H221990   5.016   5.443   2.234
 7250WAT      O21991   1.780   5.108   8.140
 7250WAT     H121992   1.747   5.089   8.232
 7250WAT     H221993   1.801   5.023   8.093
 7251WAT      O21994   8.005   7.448   0.709
 7251WAT     H121995   8.088   7.393   0.706
 7251WAT     H221996   7.929   7.395   0.672
 7252WAT      O21997   3.688   7.259   5.939
 7252WAT     H121998   3.663   7.244   6.035
 7252WAT     H221999   3.754   7.334   5.934
 7253WAT      O22000   9.816   8.463   1.921
 7253WAT     H122001   9.792   8.379   1.872
 7253WAT     H222002   9.778   8.542   1.872
 7254WAT      O22003   0.684   0.970   5.913
 7254WAT     H122004   0.716   1.057   5.875
 7254WAT     H222005   0.606   0.937   5.860
 7255WAT      O22006   3.554   8.462   0.353
 7255WAT     H122007   3.588   8.556   0.346
 7255WAT     H222008   3.505   8.450   0.440
 7256WAT      O22009   8.564   4.705   7.715
 7256WAT     H122010   8.528   4.645   7.787
 7256WAT     H222011   8.661   4.721   7.731
 7257WAT      O22012   0.067   7.487   2.996
 7257WAT     H122013   0.151   7.476   2.943
 7257WAT     H222014  -0.005   7.523   2.938
 7258WAT      O22015   2.079   0.597   8.065
 7258WAT     H122016   1.998   0.548   8.033
 7258WAT     H222017   2.078   0.690   8.028
 7259WAT      O22018   5.173   3.141   7.367
 7259WAT     H122019   5.246   3.078   7.393
 7259WAT     H222020   5.170   3.151   7.268
 7260WAT      O22021   3.633   7.242   6.200
 7260WAT     H122022   3.731   7.262   6.206
 7260WAT     H222023   3.608   7.177   6.272
 7261WAT      O22024   0.543   7.946   7.851
 7261WAT     H122025   0.548   7.847   7.856
 7261WAT     H222026   0.522   7.984   7.941
 7262WAT      O22027   1.448   1.548   9.603
 7262WAT     H122028   1.472   1.452   9.618
 7262WAT     H222029   1.518   1.591   9.547
 7263WAT      O22030   7.911   0.398   5.977
 7263WAT     H122031   7.896   0.299   5.979
 7263WAT     H222032   8.001   0.418   5.939
 7264WAT      O22033   8.972   5.225   2.621
 7264WAT     H122034   8.952   5.319   2.647
 7264WAT     H222035   9.040   5.186   2.684
 7265WAT      O22036   8.757   2.407   6.491
 7265WAT     H122037   8.738   2.494   6.536
 7265WAT     H222038   8.834   2.418   6.428
 7266WAT      O22039   3.366   0.759   9.529
 7266WAT     H122040   3.458   0.765   9.492
 7266WAT     H222041   3.303   0.814   9.473
 7267WAT      O22042   1.329   9.026   5.399
 7267WAT     H122043   1.233   8.996   5.405
 7267WAT     H222044   1.351   9.052   5.306
 7268WAT      O22045   3.484   0.634   5.525
 7268WAT     H122046   3.436   0.671   5.604
 7268WAT     H222047   3.507   0.538   5.542
 7269WAT      O22048   6.384   1.010   1.512
 7269WAT     H122049   6.375   1.042   1.606
 7269WAT     H222050   6.433   1.078   1.457
 7270WAT      O22051   7.484   4.290   3.486
 7270WAT     H122052   7.529   4.304   3.574
 7270WAT     H222053   7.389   4.319   3.492
 7271WAT      O22054   7.047   0.288   0.820
 7271WAT     H122055   7.004   0.203   0.789
 7271WAT     H222056   6.987   0.333   0.886
 7272WAT      O22057   1.101   8.807   9.446
 7272WAT     H122058   1.159   8.887   9.455
 7272WAT     H222059   1.015   8.822   9.493
 7273WAT      O22060   2.301   8.197   2.429
 7273WAT     H122061   2.211   8.240   2.432
 7273WAT     H222062   2.358   8.244   2.363
 7274WAT      O22063   6.879   1.100   7.076
 7274WAT     H122064   6.841   1.177   7.127
 7274WAT     H222065   6.805   1.041   7.045
 7275WAT      O22066   8.928   5.492   0.422
 7275WAT     H122067   8.878   5.416   0.381
 7275WAT     H222068   8.921   5.572   0.362
 7276WAT      O22069   6.830   8.368   6.628
 7276WAT     H122070   6.907   8.396   6.685
 7276WAT     H222071   6.853   8.285   6.579
 7277WAT      O22072   8.986   8.363   6.888
 7277WAT     H122073   9.044   8.441   6.913
 7277WAT     H222074   8.891   8.392   6.887
 7278WAT      O22075   7.952   0.522   1.105
 7278WAT     H122076   7.893   0.576   1.046
 7278WAT     H222077   7.897   0.465   1.165
 7279WAT      O22078   2.736   7.258   7.921
 7279WAT     H122079   2.810   7.240   7.986
 7279WAT     H222080   2.726   7.357   7.909
 7280WAT      O22081   4.236   8.846   7.145
 7280WAT     H122082   4.191   8.767   7.103
 7280WAT     H222083   4.172   8.891   7.208
 7281WAT      O22084   5.311   2.958   9.802
 7281WAT     H122085   5.316   3.029   9.731
 7281WAT     H222086   5.310   2.868   9.759
 7282WAT      O22087   7.637   8.894   6.446
 7282WAT     H122088   7.724   8.851   6.423
 7282WAT     H222089   7.643   8.993   6.431
 7283WAT      O22090   6.534   1.704   9.502
 7283WAT     H122091   6.633   1.714   9.488
 7283WAT     H222092   6.513   1.715   9.599
 7284WAT      O22093   7.600   0.379   1.672
 7284WAT     H122094   7.589   0.371   1.771
 7284WAT     H222095   7.516   0.416   1.631
 7285WAT      O22096   0.278   1.020   5.647
 7285WAT     H122097   0.186   1.053   5.668
 7285WAT     H222098   0.326   1.088   5.592
 7286WAT      O22099   8.407   6.294   0.964
 7286WAT     H122100   8.502   6.274   0.991
 7286WAT     H222101   8.347   6.224   1.002
 7287WAT      O22102   9.082   9.612   6.569
 7287WAT     H122103   9.101   9.597   6.471
 7287WAT     H222104   9.151   9.565   6.623
 7288WAT      O22105   2.993   1.359   1.492
 7288WAT     H122106   3.004   1.457   1.509
 7288WAT     H222107   3.062   1.308   1.543
 7289WAT      O22108   2.887   3.919   5.948
 7289WAT     H122109   2.874   4.016   5.967
 7289WAT     H222110   2.798   3.876   5.932
 7290WAT      O22111   1.956   7.100   9.019
 7290WAT     H122112   1.951   7.038   9.098
 7290WAT     H222113   1.974   7.193   9.050
 7291WAT      O22114   0.723   8.502   3.796
 7291WAT     H122115   0.795   8.434   3.783
 7291WAT     H222116   0.636   8.466   3.762
 7292WAT      O22117   5.688   0.933   4.346
 7292WAT     H122118   5.646   0.846   4.323
 7292WAT     H222119   5.627   1.008   4.320
 7293WAT      O22120   6.054   9.319   4.316
 7293WAT     H122121   5.989   9.280   4.380
 7293WAT     H222122   6.123   9.249   4.292
 7294WAT      O22123   0.714   3.865   0.328
 7294WAT     H122124   0.645   3.876   0.400
 7294WAT     H222125   0.735   3.954   0.288
 7295WAT      O22126   5.224   4.182   9.518
 7295WAT     H122127   5.209   4.106   9.454
 7295WAT     H222128   5.157   4.177   9.592
 7296WAT      O22129   1.228   4.244   6.467
 7296WAT     H122130   1.197   4.184   6.540
 7296WAT     H222131   1.317   4.282   6.491
 7297WAT      O22132   7.033   3.771   7.910
 7297WAT     H122133   6.969   3.717   7.856
 7297WAT     H222134   7.059   3.721   7.992
 7298WAT      O22135   6.918   5.363   6.985
 7298WAT     H122136   7.000   5.311   6.958
 7298WAT     H222137   6.880   5.325   7.069
 7299WAT      O22138   3.265   9.075   0.943
 7299WAT     H122139   3.267   8.998   1.006
 7299WAT     H222140   3.196   9.059   0.872
 7300WAT      O22141   5.338   1.229   5.405
 7300WAT     H122142   5.431   1.260   5.422
 7300WAT     H222143   5.284   1.237   5.489
 7301WAT      O22144   8.963   9.621   0.974
 7301WAT     H122145   8.937   9.525   0.968
 7301WAT     H222146   8.961   9.650   1.070
 7302WAT      O22147   3.279   4.574   2.345
 7302WAT     H122148   3.195   4.592   2.294
 7302WAT     H222149   3.257   4.562   2.442
 7303WAT      O22150   3.861   5.910   0.705
 7303WAT     H122151   3.839   5.831   0.647
 7303WAT     H222152   3.939   5.888   0.763
 7304WAT      O22153   0.883   5.842   5.148
 7304WAT     H122154   0.983   5.853   5.148
 7304WAT     H222155   0.857   5.773   5.215
 7305WAT      O22156   8.986   5.235   7.561
 7305WAT     H122157   8.970   5.141   7.594
 7305WAT     H222158   8.900   5.284   7.557
 7306WAT      O22159   2.047   6.664   9.021
 7306WAT     H122160   1.951   6.638   9.012
 7306WAT     H222161   2.103   6.607   8.961
 7307WAT      O22162   6.504   8.682   1.847
 7307WAT     H122163   6.462   8.591   1.856
 7307WAT     H222164   6.485   8.736   1.929
 7308WAT      O22165   9.307   5.456   5.912
 7308WAT     H122166   9.402   5.456   5.942
 7308WAT     H222167   9.302   5.482   5.816
 7309WAT      O22168   9.405   9.094   0.989
 7309WAT     H122169   9.497   9.133   0.986
 7309WAT     H222170   9.383   9.056   0.899
 7310WAT      O22171   9.813   7.154   5.684
 7310WAT     H122172   9.745   7.221   5.655
 7310WAT     H222173   9.835   7.169   5.780
 7311WAT      O22174   5.356   3.129   4.586
 7311WAT     H122175   5.332   3.213   4.635
 7311WAT     H222176   5.333   3.139   4.489
 7312WAT      O22177   9.850   1.681   0.478
 7312WAT     H122178   9.933   1.724   0.515
 7312WAT     H222179   9.856   1.678   0.379
 7313WAT      O22180   9.829   2.693   5.956
 7313WAT     H122181   9.826   2.622   5.885
 7313WAT     H222182   9.765   2.669   6.029
 7314WAT      O22183   1.874   2.755   9.025
 7314WAT     H122184   1.781   2.773   8.994
 7314WAT     H222185   1.876   2.666   9.071
 7315WAT      O22186   6.071   8.644   6.888
 7315WAT     H122187   6.060   8.628   6.789
 7315WAT     H222188   6.160   8.610   6.918
 7316WAT      O22189   2.178   7.880   3.916
 7316WAT     H122190   2.236   7.803   3.887
 7316WAT     H222191   2.192   7.896   4.014
 7317WAT      O22192   6.297   6.903   8.804
 7317WAT     H122193   6.304   6.960   8.723
 7317WAT     H222194   6.273   6.809   8.777
 7318WAT      O22195   6.640   5.009   5.035
 7318WAT     H122196   6.668   4.936   5.097
 7318WAT     H222197   6.544   5.031   5.051
 7319WAT      O22198   8.470   2.948   6.439
 7319WAT     H122199   8.464   3.048   6.444
 7319WAT     H222200   8.409   2.908   6.508
 7320WAT      O22201   9.444   1.471   5.082
 7320WAT     H122202   9.356   1.513   5.106
 7320WAT     H222203   9.513   1.542   5.070
 7321WAT      O22204   2.928   2.986   0.076
 7321WAT     H122205   2.883   2.927   0.009
 7321WAT     H222206   2.918   3.082   0.048
 7322WAT      O22207   7.815   4.489   9.082
 7322WAT     H122208   7.797   4.464   8.987
 7322WAT     H222209   7.902   4.538   9.088
 7323WAT      O22210   6.213   6.373   9.621
 7323WAT     H122211   6.127   6.417   9.594
 7323WAT     H222212   6.272   6.440   9.666
 7324WAT      O22213   6.015   7.449   7.743
 7324WAT     H122214   6.026   7.474   7.839
 7324WAT     H222215   5.941   7.501   7.702
 7325WAT      O22216   1.028   2.750   5.338
 7325WAT     H122217   1.052   2.839   5.298
 7325WAT     H222218   1.005   2.686   5.265
 7326WAT      O22219   7.312   9.465   2.234
 7326WAT     H122220   7.246   9.526   2.191
 7326WAT     H222221   7.396   9.463   2.180
 7327WAT      O22222   3.077   1.191   0.363
 7327WAT     H122223   3.080   1.289   0.383
 7327WAT     H222224   3.003   1.173   0.297
 7328WAT      O22225   0.476   5.655   9.868
 7328WAT     H122226   0.383   5.683   9.844
 7328WAT     H222227   0.519   5.611   9.790
 7329WAT      O22228   3.870   7.061   8.247
 7329WAT     H122229   3.789   7.104   8.287
 7329WAT     H222230   3.881   6.969   8.286
 7330WAT      O22231   1.927   8.879   5.020
 7330WAT     H122232   2.017   8.920   5.012
 7330WAT     H222233   1.925   8.792   4.970
 7331WAT      O22234   9.096   3.574   7.594
 7331WAT     H122235   9.150   3.631   7.658
 7331WAT     H222236   9.045   3.634   7.532
 7332WAT      O22237   4.875   2.880   8.967
 7332WAT     H122238   4.840   2.808   9.026
 7332WAT     H222239   4.929   2.945   9.021
 7333WAT      O22240   7.372   7.082   5.916
 7333WAT     H122241   7.444   7.119   5.975
 7333WAT     H222242   7.387   6.985   5.901
 7334WAT      O22243   3.530   9.126   6.563
 7334WAT     H122244   3.552   9.121   6.660
 7334WAT     H222245   3.529   9.034   6.524
 7335WAT      O22246   6.152   0.343   2.686
 7335WAT     H122247   6.092   0.423   2.699
 7335WAT     H222248   6.182   0.339   2.591
 7336WAT      O22249   7.485   6.663   2.949
 7336WAT     H122250   7.573   6.679   2.994
 7336WAT     H222251   7.452   6.749   2.908
 7337WAT      O22252   6.890   9.728   6.111
 7337WAT     H122253   6.939   9.785   6.045
 7337WAT     H222254   6.797   9.762   6.123
 7338WAT      O22255   2.700   9.556   5.208
 7338WAT     H122256   2.612   9.548   5.254
 7338WAT     H222257   2.773   9.537   5.274
 7339WAT      O22258   6.263   1.589   7.412
 7339WAT     H122259   6.283   1.609   7.508
 7339WAT     H222260   6.299   1.498   7.389
 7340WAT      O22261   1.175   2.810   0.547
 7340WAT     H122262   1.267   2.842   0.525
 7340WAT     H222263   1.163   2.808   0.646
 7341WAT      O22264   6.495   5.737   0.108
 7341WAT     H122265   6.545   5.658   0.144
 7341WAT     H222266   6.462   5.717   0.016
 7342WAT      O22267   1.175   3.364   1.036
 7342WAT     H122268   1.125   3.341   1.120
 7342WAT     H222269   1.110   3.383   0.963
 7343WAT      O22270   5.102   1.037   0.536
 7343WAT     H122271   5.191   0.991   0.544
 7343WAT     H222272   5.102   1.096   0.456
 7344WAT      O22273   2.486   1.870   0.058
 7344WAT     H122274   2.583   1.889   0.077
 7344WAT     H222275   2.456   1.793   0.114
 7345WAT      O22276   4.225   8.476   5.596
 7345WAT     H122277   4.309   8.460   5.647
 7345WAT     H222278   4.152   8.503   5.660
 7346WAT      O22279   4.599   0.131   2.263
 7346WAT     H122280   4.518   0.153   2.317
 7346WAT     H222281   4.590   0.039   2.225
 7347WAT      O22282   9.751   7.075   6.199
 7347WAT     H122283   9.656   7.105   6.186
 7347WAT     H222284   9.760   6.979   6.173
 7348WAT      O22285   0.856   2.941   1.971
 7348WAT     H122286   0.933   2.981   1.923
 7348WAT     H222287   0.799   3.014   2.009
 7349WAT      O22288   2.985   4.846   5.961
 7349WAT     H122289   2.908   4.856   5.898
 7349WAT     H222290   2.980   4.918   6.031
 7350WAT      O22291   0.196   1.629   4.866
 7350WAT     H122292   0.144   1.544   4.866
 7350WAT     H222293   0.194   1.669   4.774
 7351WAT      O22294   6.228   8.777   9.126
 7351WAT     H122295   6.303   8.722   9.091
 7351WAT     H222296   6.154   8.781   9.058
 7352WAT      O22297   0.369   7.163   0.471
 7352WAT     H122298   0.360   7.135   0.375
 7352WAT     H222299   0.362   7.262   0.478
 7353WAT      O22300   4.334   5.911   2.909
 7353WAT     H122301   4.359   5.856   2.829
 7353WAT     H222302   4.261   5.974   2.884
 7354WAT      O22303   9.500   1.516   8.559
 7354WAT     H122304   9.554   1.520   8.476
 7354WAT     H222305   9.558   1.486   8.635
 7355WAT      O22306   0.291   0.616   8.779
 7355WAT     H122307   0.233   0.675   8.723
 7355WAT     H222308   0.247   0.599   8.867
 7356WAT      O22309   5.483   6.296   0.142
 7356WAT     H122310   5.423   6.267   0.217
 7356WAT     H222311   5.500   6.219   0.081
 7357WAT      O22312   8.968   4.509   4.653
 7357WAT     H122313   9.029   4.543   4.725
 7357WAT     H222314   8.875   4.545   4.668
 7358WAT      O22315   5.414   8.901   8.830
 7358WAT     H122316   5.498   8.917   8.882
 7358WAT     H222317   5.431   8.832   8.759
 7359WAT      O22318   7.629   2.205   5.788
 7359WAT     H122319   7.580   2.234   5.706
 7359WAT     H222320   7.726   2.200   5.769
 7360WAT      O22321   7.131   4.467   5.989
 7360WAT     H122322   7.118   4.372   5.962
 7360WAT     H222323   7.121   4.476   6.088
 7361WAT      O22324   5.333   8.882   3.393
 7361WAT     H122325   5.335   8.819   3.471
 7361WAT     H222326   5.372   8.837   3.313
 7362WAT      O22327   8.381   0.137   4.570
 7362WAT     H122328   8.453   0.113   4.504
 7362WAT     H222329   8.387   0.076   4.649
 7363WAT      O22330   7.783   5.086   1.195
 7363WAT     H122331   7.841   5.102   1.114
 7363WAT     H222332   7.706   5.028   1.170
 7364WAT      O22333   5.719   9.257   7.560
 7364WAT     H122334   5.734   9.189   7.489
 7364WAT     H222335   5.745   9.220   7.649
 7365WAT      O22336   3.174   6.535   8.213
 7365WAT     H122337   3.221   6.560   8.299
 7365WAT     H222338   3.100   6.600   8.196
 7366WAT      O22339   3.981   0.996   6.771
 7366WAT     H122340   4.053   0.971   6.706
 7366WAT     H222341   3.894   0.958   6.740
 7367WAT      O22342   2.883   9.003   8.657
 7367WAT     H122343   2.902   8.913   8.695
 7367WAT     H222344   2.969   9.050   8.635
 7368WAT      O22345   1.666   2.768   0.382
 7368WAT     H122346   1.709   2.744   0.469
 7368WAT     H222347   1.581   2.715   0.371
 7369WAT      O22348   8.199   8.352   5.385
 7369WAT     H122349   8.214   8.373   5.288
 7369WAT     H222350   8.105   8.320   5.398
 7370WAT      O22351   1.554   3.381   4.919
 7370WAT     H122352   1.544   3.471   4.960
 7370WAT     H222353   1.481   3.367   4.852
 7371WAT      O22354   9.195   3.717   9.358
 7371WAT     H122355   9.190   3.813   9.388
 7371WAT     H222356   9.275   3.673   9.399
 7372WAT      O22357   4.323   0.882   2.844
 7372WAT     H122358   4.367   0.939   2.774
 7372WAT     H222359   4.228   0.912   2.856
 7373WAT      O22360   4.263   1.738   0.484
 7373WAT     H122361   4.282   1.803   0.558
 7373WAT     H222362   4.308   1.651   0.504
 7374WAT      O22363   1.717   3.890   6.179
 7374WAT     H122364   1.622   3.897   6.208
 7374WAT     H222365   1.762   3.817   6.231
 7375WAT      O22366   4.642   9.682   3.465
 7375WAT     H122367   4.548   9.672   3.433
 7375WAT     H222368   4.675   9.595   3.501
 7376WAT      O22369   6.930   1.875   2.263
 7376WAT     H122370   6.871   1.795   2.259
 7376WAT     H222371   6.975   1.888   2.174
 7377WAT      O22372   2.815   4.515   8.755
 7377WAT     H122373   2.756   4.592   8.734
 7377WAT     H222374   2.873   4.494   8.677
 7378WAT      O22375   3.222   3.063   4.115
 7378WAT     H122376   3.187   3.128   4.183
 7378WAT     H222377   3.264   2.985   4.162
 7379WAT      O22378   3.261   8.049   4.399
 7379WAT     H122379   3.184   8.070   4.337
 7379WAT     H222380   3.225   8.017   4.486
 7380WAT      O22381   5.338   4.484   2.459
 7380WAT     H122382   5.346   4.466   2.361
 7380WAT     H222383   5.375   4.406   2.510
 7381WAT      O22384   8.998   9.343   5.484
 7381WAT     H122385   8.947   9.310   5.564
 7381WAT     H222386   8.938   9.399   5.427
 7382WAT      O22387   8.758   8.479   0.803
 7382WAT     H122388   8.721   8.468   0.896
 7382WAT     H222389   8.755   8.390   0.756
 7383WAT      O22390   6.090   4.286   5.645
 7383WAT     H122391   5.996   4.297   5.678
 7383WAT     H222392   6.136   4.375   5.647
 7384WAT      O22393   5.156   7.045   0.490
 7384WAT     H122394   5.251   7.073   0.499
 7384WAT     H222395   5.150   6.964   0.431
 7385WAT      O22396   6.596   4.761   3.055
 7385WAT     H122397   6.509   4.807   3.036
 7385WAT     H222398   6.578   4.667   3.082
 7386WAT      O22399   2.136   7.368   6.089
 7386WAT     H122400   2.074   7.331   6.019
 7386WAT     H222401   2.229   7.372   6.052
 7387WAT      O22402   0.691   1.916   3.870
 7387WAT     H122403   0.757   1.991   3.880
 7387WAT     H222404   0.608   1.938   3.922
 7388WAT      O22405   9.473   2.098   5.134
 7388WAT     H122406   9.477   2.168   5.205
 7388WAT     H222407   9.377   2.081   5.110
 7389WAT      O22408   3.613   9.301   1.810
 7389WAT     H122409   3.530   9.257   1.842
 7389WAT     H222410   3.645   9.367   1.877
 7390WAT      O22411   5.427   5.449   2.446
 7390WAT     H122412   5.487   5.403   2.380
 7390WAT     H222413   5.442   5.547   2.441
 7391WAT      O22414   1.138   9.226   7.958
 7391WAT     H122415   1.047   9.237   7.997
 7391WAT     H222416   1.146   9.134   7.918
 7392WAT      O22417   1.361   2.679   4.194
 7392WAT     H122418   1.324   2.750   4.134
 7392WAT     H222419   1.299   2.600   4.193
 7393WAT      O22420   9.635   2.188   6.940
 7393WAT     H122421   9.727   2.153   6.951
 7393WAT     H222422   9.598   2.213   7.030
 7394WAT      O22423   2.269   8.227   9.764
 7394WAT     H122424   2.262   8.191   9.671
 7394WAT     H222425   2.353   8.281   9.773
 7395WAT      O22426   1.201   3.793   5.231
 7395WAT     H122427   1.121   3.808   5.174
 7395WAT     H222428   1.183   3.826   5.324
 7396WAT      O22429   2.466   6.295   6.527
 7396WAT     H122430   2.500   6.342   6.446
 7396WAT     H222431   2.531   6.306   6.602
 7397WAT      O22432   3.304   1.224   0.047
 7397WAT     H122433   3.220   1.202  -0.004
 7397WAT     H222434   3.382   1.219  -0.015
 7398WAT      O22435   2.389   3.707   7.352
 7398WAT     H122436   2.483   3.713   7.388
 7398WAT     H222437   2.341   3.632   7.398
 7399WAT      O22438   3.390   3.619   4.664
 7399WAT     H122439   3.459   3.690   4.680
 7399WAT     H222440   3.302   3.649   4.701
 7400WAT      O22441   8.388   4.413   1.808
 7400WAT     H122442   8.452   4.337   1.804
 7400WAT     H222443   8.320   4.404   1.735
 7401WAT      O22444   3.718   7.126   1.696
 7401WAT     H122445   3.711   7.201   1.630
 7401WAT     H222446   3.681   7.156   1.784
 7402WAT      O22447   3.840   6.807   7.305
 7402WAT     H122448   3.830   6.869   7.383
 7402WAT     H222449   3.753   6.800   7.256
 7403WAT      O22450   2.986   7.900   8.388
 7403WAT     H122451   3.028   7.979   8.434
 7403WAT     H222452   2.943   7.841   8.456
 7404WAT      O22453   6.767   0.939   8.027
 7404WAT     H122454   6.705   1.015   8.006
 7404WAT     H222455   6.746   0.903   8.118
 7405WAT      O22456   9.045   8.525   8.286
 7405WAT     H122457   8.984   8.448   8.270
 7405WAT     H222458   9.078   8.560   8.198
 7406WAT      O22459   6.521   6.754   5.330
 7406WAT     H122460   6.424   6.733   5.330
 7406WAT     H222461   6.573   6.674   5.301
 7407WAT      O22462   8.802   7.345   3.840
 7407WAT     H122463   8.787   7.248   3.862
 7407WAT     H222464   8.897   7.369   3.861
 7408WAT      O22465   1.462   2.425   1.997
 7408WAT     H122466   1.387   2.485   2.025
 7408WAT     H222467   1.529   2.420   2.071
 7409WAT      O22468   7.194   1.767   0.715
 7409WAT     H122469   7.210   1.864   0.730
 7409WAT     H222470   7.264   1.714   0.764
 7410WAT      O22471   7.856   5.409   4.160
 7410WAT     H122472   7.882   5.477   4.091
 7410WAT     H222473   7.917   5.416   4.239
 7411WAT      O22474   3.523   3.722   0.543
 7411WAT     H122475   3.562   3.630   0.547
 7411WAT     H222476   3.511   3.749   0.447
 7412WAT      O22477   7.294   5.794   1.213
 7412WAT     H122478   7.345   5.713   1.244
 7412WAT     H222479   7.198   5.785   1.240
 7413WAT      O22480   9.729   2.921   3.203
 7413WAT     H122481   9.685   3.010   3.188
 7413WAT     H222482   9.801   2.930   3.271
 7414WAT      O22483   7.239   7.481   6.483
 7414WAT     H122484   7.255   7.490   6.385
 7414WAT     H222485   7.175   7.551   6.513
 7415WAT      O22486   8.498   2.108   0.601
 7415WAT     H122487   8.421   2.065   0.647
 7415WAT     H222488   8.506   2.204   0.631
 7416WAT      O22489   3.083   7.551   8.820
 7416WAT     H122490   3.131   7.603   8.749
 7416WAT     H222491   3.137   7.550   8.904
 7417WAT      O22492   6.969   2.086   8.135
 7417WAT     H122493   6.963   1.990   8.163
 7417WAT     H222494   7.003   2.140   8.211
 7418WAT      O22495   0.824   3.121   0.741
 7418WAT     H122496   0.769   3.183   0.685
 7418WAT     H222497   0.824   3.153   0.835
 7419WAT      O22498   4.196   5.005   5.317
 7419WAT     H122499   4.184   5.040   5.224
 7419WAT     H222500   4.153   4.915   5.324
 7420WAT      O22501   4.213   2.028   7.821
 7420WAT     H122502   4.308   2.023   7.852
 7420WAT     H222503   4.175   2.117   7.847
 7421WAT      O22504   1.397   3.415   1.833
 7421WAT     H122505   1.460   3.374   1.767
 7421WAT     H222506   1.446   3.440   1.916
 7422WAT      O22507   9.724   7.364   4.625
 7422WAT     H122508   9.816   7.393   4.601
 7422WAT     H222509   9.715   7.265   4.611
 7423WAT      O22510   8.112   7.498   5.553
 7423WAT     H122511   8.210   7.492   5.569
 7423WAT     H222512   8.091   7.581   5.501
 7424WAT      O22513   7.850   6.193   9.057
 7424WAT     H122514   7.782   6.265   9.051
 7424WAT     H222515   7.810   6.106   9.027
 7425WAT      O22516   0.491   6.822   4.260
 7425WAT     H122517   0.476   6.840   4.357
 7425WAT     H222518   0.413   6.771   4.223
 7426WAT      O22519   1.520   9.436   7.014
 7426WAT     H122520   1.561   9.475   7.097
 7426WAT     H222521   1.592   9.403   6.953
 7427WAT      O22522   4.202   7.561   8.455
 7427WAT     H122523   4.162   7.534   8.543
 7427WAT     H222524   4.130   7.589   8.392
 7428WAT      O22525   5.135   6.380   2.233
 7428WAT     H122526   5.131   6.280   2.239
 7428WAT     H222527   5.221   6.407   2.191
 7429WAT      O22528   7.301   0.461   1.935
 7429WAT     H122529   7.400   0.469   1.923
 7429WAT     H222530   7.281   0.429   2.028
 7430WAT      O22531   5.315   4.840   6.743
 7430WAT     H122532   5.243   4.785   6.785
 7430WAT     H222533   5.376   4.780   6.691
 7431WAT      O22534   1.963   3.065   4.924
 7431WAT     H122535   1.941   2.968   4.917
 7431WAT     H222536   2.021   3.092   4.846
 7432WAT      O22537   7.990   1.732   7.027
 7432WAT     H122538   7.893   1.716   7.012
 7432WAT     H222539   8.044   1.672   6.968
 7433WAT      O22540   8.471   8.774   7.518
 7433WAT     H122541   8.452   8.866   7.552
 7433WAT     H222542   8.414   8.708   7.566
 7434WAT      O22543   7.086   6.376   6.958
 7434WAT     H122544   7.003   6.404   7.007
 7434WAT     H222545   7.061   6.338   6.869
 7435WAT      O22546   5.529   7.263   5.291
 7435WAT     H122547   5.600   7.222   5.234
 7435WAT     H222548   5.477   7.330   5.238
 7436WAT      O22549   8.152   5.191   1.152
 7436WAT     H122550   8.249   5.173   1.164
 7436WAT     H222551   8.111   5.215   1.240
 7437WAT      O22552   9.136   7.738   0.074
 7437WAT     H122553   9.094   7.667   0.018
 7437WAT     H222554   9.208   7.783   0.022
 7438WAT      O22555   8.235   6.652   8.880
 7438WAT     H122556   8.315   6.675   8.935
 7438WAT     H222557   8.260   6.582   8.813
 7439WAT      O22558   1.782   5.828   9.530
 7439WAT     H122559   1.808   5.844   9.435
 7439WAT     H222560   1.858   5.784   9.578
 7440WAT      O22561   7.820   7.533   1.484
 7440WAT     H122562   7.802   7.468   1.558
 7440WAT     H222563   7.862   7.616   1.522
 7441WAT      O22564   2.315   0.499   6.832
 7441WAT     H122565   2.384   0.429   6.852
 7441WAT     H222566   2.224   0.457   6.835
 7442WAT      O22567   9.389   7.406   8.583
 7442WAT     H122568   9.334   7.345   8.641
 7442WAT     H222569   9.455   7.455   8.640
 7443WAT      O22570   1.750   6.413   2.814
 7443WAT     H122571   1.718   6.417   2.720
 7443WAT     H222572   1.759   6.506   2.851
 7444WAT      O22573   3.291   3.918   2.934
 7444WAT     H122574   3.202   3.943   2.897
 7444WAT     H222575   3.363   3.958   2.878
 7445WAT      O22576   1.329   2.384   4.494
 7445WAT     H122577   1.304   2.319   4.423
 7445WAT     H222578   1.259   2.385   4.565
 7446WAT      O22579   8.694   5.663   9.395
 7446WAT     H122580   8.628   5.622   9.458
 7446WAT     H222581   8.653   5.669   9.303
 7447WAT      O22582   8.860   2.751   4.596
 7447WAT     H122583   8.846   2.823   4.529
 7447WAT     H222584   8.946   2.705   4.579
 7448WAT      O22585   9.802   5.277   9.319
 7448WAT     H122586   9.745   5.208   9.363
 7448WAT     H222587   9.745   5.356   9.295
 7449WAT      O22588   5.450   1.972   8.348
 7449WAT     H122589   5.419   1.886   8.387
 7449WAT     H222590   5.375   2.038   8.349
 7450WAT      O22591   7.885   6.750   7.993
 7450WAT     H122592   7.962   6.741   7.930
 7450WAT     H222593   7.818   6.678   7.975
 7451WAT      O22594   5.037   0.160   1.871
 7451WAT     H122595   5.026   0.215   1.954
 7451WAT     H222596   5.115   0.098   1.882
 7452WAT      O22597   6.978   6.917   7.111
 7452WAT     H122598   6.936   7.005   7.134
 7452WAT     H222599   7.053   6.932   7.046
 7453WAT      O22600   4.342   2.391   0.459
 7453WAT     H122601   4.258   2.340   0.443
 7453WAT     H222602   4.332   2.446   0.542
 7454WAT      O22603   2.481   5.724   2.703
 7454WAT     H122604   2.482   5.794   2.774
 7454WAT     H222605   2.571   5.681   2.698
 7455WAT      O22606   7.673   9.639   5.643
 7455WAT     H122607   7.762   9.602   5.668
 7455WAT     H222608   7.608   9.564   5.629
 7456WAT      O22609   5.518   1.194   7.483
 7456WAT     H122610   5.543   1.230   7.393
 7456WAT     H222611   5.596   1.203   7.546
 7457WAT      O22612   1.010   5.824   8.098
 7457WAT     H122613   1.019   5.848   8.001
 7457WAT     H222614   0.925   5.773   8.112
 7458WAT      O22615   1.550   0.603   4.629
 7458WAT     H122616   1.647   0.624   4.615
 7458WAT     H222617   1.532   0.590   4.726
 7459WAT      O22618   0.697   9.330   6.637
 7459WAT     H122619   0.645   9.263   6.583
 7459WAT     H222620   0.643   9.413   6.648
 7460WAT      O22621   4.192   1.055   3.465
 7460WAT     H122622   4.290   1.060   3.482
 7460WAT     H222623   4.160   1.141   3.427
 7461WAT      O22624   6.692   1.180   0.950
 7461WAT     H122625   6.774   1.155   0.897
 7461WAT     H222626   6.684   1.118   1.028
 7462WAT      O22627   1.198   2.917   3.967
 7462WAT     H122628   1.119   2.860   3.947
 7462WAT     H222629   1.243   2.943   3.882
 7463WAT      O22630   1.877   6.513   4.061
 7463WAT     H122631   1.817   6.468   4.127
 7463WAT     H222632   1.914   6.445   3.997
 7464WAT      O22633   2.413   0.045   8.971
 7464WAT     H122634   2.510   0.046   8.948
 7464WAT     H222635   2.359   0.025   8.889
 7465WAT      O22636   2.745   9.673   0.010
 7465WAT     H122637   2.809   9.619   0.065
 7465WAT     H222638   2.687   9.728   0.070
 7466WAT      O22639   5.468   4.974   1.909
 7466WAT     H122640   5.510   4.901   1.855
 7466WAT     H222641   5.387   4.939   1.955
 7467WAT      O22642   1.295   7.008   0.268
 7467WAT     H122643   1.309   6.913   0.241
 7467WAT     H222644   1.383   7.052   0.284
 7468WAT      O22645   4.939   1.590   4.688
 7468WAT     H122646   5.011   1.557   4.627
 7468WAT     H222647   4.914   1.517   4.752
 7469WAT      O22648   5.320   2.889   1.315
 7469WAT     H122649   5.354   2.979   1.342
 7469WAT     H222650   5.374   2.818   1.361
 7470WAT      O22651   9.298   5.007   7.017
 7470WAT     H122652   9.213   5.046   7.052
 7470WAT     H222653   9.337   4.944   7.085
 7471WAT      O22654   4.506   0.285   5.032
 7471WAT     H122655   4.530   0.223   4.957
 7471WAT     H222656   4.438   0.351   5.001
 7472WAT      O22657   5.589   2.403   9.230
 7472WAT     H122658   5.658   2.374   9.297
 7472WAT     H222659   5.528   2.470   9.272
 7473WAT      O22660   7.930   3.604   0.880
 7473WAT     H122661   8.014   3.633   0.836
 7473WAT     H222662   7.854   3.662   0.850
 7474WAT      O22663   1.946   0.558   4.956
 7474WAT     H122664   1.935   0.630   5.024
 7474WAT     H222665   1.878   0.486   4.971
 7475WAT      O22666   3.270   9.353   8.045
 7475WAT     H122667   3.232   9.299   7.971
 7475WAT     H222668   3.353   9.399   8.014
 7476WAT      O22669   2.264   8.165   6.416
 7476WAT     H122670   2.203   8.110   6.359
 7476WAT     H222671   2.351   8.179   6.368
 7477WAT      O22672   7.401   7.383   2.692
 7477WAT     H122673   7.463   7.443   2.742
 7477WAT     H222674   7.335   7.438   2.641
 7478WAT      O22675   7.773   2.022   3.675
 7478WAT     H122676   7.814   1.961   3.742
 7478WAT     H222677   7.763   2.114   3.714
 7479WAT      O22678   3.209   6.485   1.434
 7479WAT     H122679   3.172   6.448   1.349
 7479WAT     H222680   3.277   6.556   1.412
 7480WAT      O22681   4.898   1.808   2.385
 7480WAT     H122682   4.939   1.828   2.473
 7480WAT     H222683   4.969   1.783   2.319
 7481WAT      O22684   7.688   4.177   5.606
 7481WAT     H122685   7.721   4.168   5.701
 7481WAT     H222686   7.700   4.089   5.560
 7482WAT      O22687   4.765   0.425   8.403
 7482WAT     H122688   4.792   0.413   8.307
 7482WAT     H222689   4.802   0.512   8.437
 7483WAT      O22690   9.665   0.609   2.927
 7483WAT     H122691   9.612   0.674   2.982
 7483WAT     H222692   9.640   0.516   2.951
 7484WAT      O22693   6.181   5.351   2.274
 7484WAT     H122694   6.157   5.443   2.305
 7484WAT     H222695   6.214   5.356   2.180
 7485WAT      O22696   0.414   9.501   8.109
 7485WAT     H122697   0.430   9.557   8.027
 7485WAT     H222698   0.449   9.409   8.093
 7486WAT      O22699   2.919   6.166   8.850
 7486WAT     H122700   2.893   6.212   8.935
 7486WAT     H222701   2.840   6.115   8.815
 7487WAT      O22702   6.494   2.042   8.088
 7487WAT     H122703   6.415   2.036   8.148
 7487WAT     H222704   6.567   1.983   8.124
 7488WAT      O22705   7.391   4.084   8.546
 7488WAT     H122706   7.328   4.022   8.594
 7488WAT     H222707   7.400   4.169   8.597
 7489WAT      O22708   6.723   8.830   3.078
 7489WAT     H122709   6.821   8.842   3.094
 7489WAT     H222710   6.706   8.818   2.980
 7490WAT      O22711   5.368   2.974   8.338
 7490WAT     H122712   5.401   3.032   8.413
 7490WAT     H222713   5.282   2.932   8.364
 7491WAT      O22714   2.748   5.635   5.361
 7491WAT     H122715   2.672   5.652   5.298
 7491WAT     H222716   2.822   5.700   5.343
 7492WAT      O22717   2.242   2.157   1.995
 7492WAT     H122718   2.196   2.243   2.018
 7492WAT     H222719   2.265   2.157   1.898
 7493WAT      O22720   0.246   2.783   4.848
 7493WAT     H122721   0.241   2.806   4.946
 7493WAT     H222722   0.302   2.702   4.836
 7494WAT      O22723   3.297   1.151   1.990
 7494WAT     H122724   3.258   1.224   1.933
 7494WAT     H222725   3.396   1.164   1.997
 7495WAT      O22726   8.030   8.471   5.726
 7495WAT     H122727   7.979   8.502   5.806
 7495WAT     H222728   7.967   8.455   5.650
 7496WAT      O22729   0.374   9.555   0.251
 7496WAT     H122730   0.422   9.524   0.169
 7496WAT     H222731   0.306   9.486   0.278
 7497WAT      O22732   7.653   4.689   5.414
 7497WAT     H122733   7.673   4.601   5.370
 7497WAT     H222734   7.639   4.759   5.344
 7498WAT      O22735   5.157   4.947   7.887
 7498WAT     H122736   5.255   4.959   7.898
 7498WAT     H222737   5.124   4.880   7.953
 7499WAT      O22738   5.826   5.306   6.391
 7499WAT     H122739   5.809   5.349   6.302
 7499WAT     H222740   5.750   5.327   6.453
 7500WAT      O22741   2.426   6.745   8.506
 7500WAT     H122742   2.505   6.691   8.533
 7500WAT     H222743   2.379   6.779   8.588
 7501WAT      O22744   7.965   0.814   9.742
 7501WAT     H122745   7.916   0.884   9.691
 7501WAT     H222746   8.036   0.858   9.798
 7502WAT      O22747   8.076   6.896   3.339
 7502WAT     H122748   8.110   6.988   3.317
 7502WAT     H222749   7.997   6.904   3.400
 7503WAT      O22750   1.187   3.634   8.284
 7503WAT     H122751   1.090   3.625   8.304
 7503WAT     H222752   1.200   3.650   8.187
 7504WAT      O22753   9.017   7.451   0.920
 7504WAT     H122754   9.097   7.412   0.965
 7504WAT     H222755   8.965   7.506   0.985
 7505WAT      O22756   8.912   0.946   2.598
 7505WAT     H122757   8.949   1.022   2.546
 7505WAT     H222758   8.979   0.872   2.600
 7506WAT      O22759   3.851   3.036   0.504
 7506WAT     H122760   3.799   2.970   0.449
 7506WAT     H222761   3.915   3.086   0.446
 7507WAT      O22762   1.967   1.108   6.225
 7507WAT     H122763   2.046   1.111   6.164
 7507WAT     H222764   1.981   1.038   6.295
 7508WAT      O22765   4.432   5.130   6.165
 7508WAT     H122766   4.394   5.060   6.104
 7508WAT     H222767   4.530   5.140   6.146
 7509WAT      O22768   4.996   0.848   7.965
 7509WAT     H122769   4.987   0.793   8.048
 7509WAT     H222770   4.952   0.937   7.978
 7510WAT      O22771   7.311   2.550   0.146
 7510WAT     H122772   7.345   2.483   0.080
 7510WAT     H222773   7.318   2.642   0.107
 7511WAT      O22774   0.321   7.970   9.497
 7511WAT     H122775   0.264   8.051   9.488
 7511WAT     H222776   0.344   7.936   9.406
 7512WAT      O22777   0.247   5.727   2.963
 7512WAT     H122778   0.185   5.790   3.009
 7512WAT     H222779   0.284   5.770   2.881
 7513WAT      O22780   1.850   6.869   0.082
 7513WAT     H122781   1.843   6.949   0.142
 7513WAT     H222782   1.813   6.789   0.130
 7514WAT      O22783   9.049   7.069   7.706
 7514WAT     H122784   9.028   7.082   7.803
 7514WAT     H222785   9.070   7.158   7.664
 7515WAT      O22786   1.238   4.151   5.807
 7515WAT     H122787   1.306   4.224   5.818
 7515WAT     H222788   1.155   4.188   5.767
 7516WAT      O22789   3.106   0.257   8.735
 7516WAT     H122790   3.055   0.178   8.699
 7516WAT     H222791   3.198   0.228   8.760
 7517WAT      O22792   7.956   1.252   6.944
 7517WAT     H122793   8.038   1.219   6.992
 7517WAT     H222794   7.982   1.284   6.853
 7518WAT      O22795   7.607   7.702   9.471
 7518WAT     H122796   7.680   7.633   9.473
 7518WAT     H222797   7.541   7.682   9.543
 7519WAT      O22798   2.833   6.263   6.294
 7519WAT     H122799   2.738   6.292   6.297
 7519WAT     H222800   2.869   6.278   6.202
 7520WAT      O22801   3.828   3.322   1.701
 7520WAT     H122802   3.828   3.373   1.787
 7520WAT     H222803   3.739   3.331   1.656
 7521WAT      O22804   9.139   8.417   7.769
 7521WAT     H122805   9.136   8.328   7.815
 7521WAT     H222806   9.217   8.420   7.707
 7522WAT      O22807   3.817   8.403   5.313
 7522WAT     H122808   3.916   8.412   5.317
 7522WAT     H222809   3.789   8.321   5.363
 7523WAT      O22810   1.140   4.687   0.939
 7523WAT     H122811   1.190   4.732   1.013
 7523WAT     H222812   1.107   4.755   0.874
 7524WAT      O22813   4.883   0.199   7.923
 7524WAT     H122814   4.792   0.235   7.944
 7524WAT     H222815   4.887   0.171   7.827
 7525WAT      O22816   9.748   1.144   0.882
 7525WAT     H122817   9.765   1.053   0.845
 7525WAT     H222818   9.743   1.140   0.981
 7526WAT      O22819   0.253   7.951   3.501
 7526WAT     H122820   0.300   8.039   3.502
 7526WAT     H222821   0.282   7.897   3.579
 7527WAT      O22822   4.400   8.395   7.536
 7527WAT     H122823   4.402   8.298   7.509
 7527WAT     H222824   4.311   8.434   7.514
 7528WAT      O22825   2.118   5.663   6.731
 7528WAT     H122826   2.177   5.624   6.661
 7528WAT     H222827   2.085   5.590   6.791
 7529WAT      O22828   1.270   9.736   5.792
 7529WAT     H122829   1.331   9.780   5.857
 7529WAT     H222830   1.227   9.656   5.835
 7530WAT      O22831   9.884   2.979   5.259
 7530WAT     H122832   9.909   2.882   5.260
 7530WAT     H222833   9.945   3.030   5.320
 7531WAT      O22834   1.775   9.488   0.633
 7531WAT     H122835   1.753   9.447   0.545
 7531WAT     H222836   1.822   9.575   0.618
 7532WAT      O22837   7.907   8.217   7.418
 7532WAT     H122838   7.982   8.163   7.455
 7532WAT     H222839   7.924   8.314   7.435
 7533WAT      O22840   1.117   8.850   4.582
 7533WAT     H122841   1.130   8.863   4.680
 7533WAT     H222842   1.099   8.939   4.539
 7534WAT      O22843   2.451   1.530   8.796
 7534WAT     H122844   2.362   1.496   8.829
 7534WAT     H222845   2.491   1.462   8.735
 7535WAT      O22846   7.531   4.839   1.357
 7535WAT     H122847   7.571   4.764   1.409
 7535WAT     H222848   7.576   4.845   1.268
 7536WAT      O22849   3.911   2.422   7.783
 7536WAT     H122850   3.852   2.461   7.853
 7536WAT     H222851   3.917   2.485   7.705
 7537WAT      O22852   1.236   0.734   2.896
 7537WAT     H122853   1.138   0.718   2.897
 7537WAT     H222854   1.270   0.726   2.802
 7538WAT      O22855   1.056   9.043   6.830
 7538WAT     H122856   0.982   9.106   6.852
 7538WAT     H222857   1.143   9.081   6.860
 7539WAT      O22858   2.481   3.417   1.808
 7539WAT     H122859   2.484   3.516   1.820
 7539WAT     H222860   2.504   3.394   1.713
 7540WAT      O22861   7.028   1.354   0.737
 7540WAT     H122862   7.120   1.366   0.698
 7540WAT     H222863   7.035   1.321   0.831
 7541WAT      O22864   0.248   1.871   6.778
 7541WAT     H122865   0.343   1.839   6.774
 7541WAT     H222866   0.186   1.793   6.774
 7542WAT      O22867   1.262   1.018   4.705
 7542WAT     H122868   1.232   0.952   4.774
 7542WAT     H222869   1.361   1.015   4.696
 7543WAT      O22870   9.145   7.935   7.589
 7543WAT     H122871   9.192   7.900   7.671
 7543WAT     H222872   9.171   7.880   7.510
 7544WAT      O22873   6.100   5.834   5.076
 7544WAT     H122874   6.023   5.881   5.033
 7544WAT     H222875   6.118   5.749   5.027
 7545WAT      O22876   3.745   8.830   4.505
 7545WAT     H122877   3.670   8.879   4.462
 7545WAT     H222878   3.831   8.853   4.458
 7546WAT      O22879   7.829   7.365   9.284
 7546WAT     H122880   7.795   7.275   9.313
 7546WAT     H222881   7.785   7.392   9.199
 7547WAT      O22882   1.434   8.108   5.433
 7547WAT     H122883   1.432   8.048   5.353
 7547WAT     H222884   1.416   8.202   5.405
 7548WAT      O22885   2.699   5.141   8.903
 7548WAT     H122886   2.725   5.062   8.958
 7548WAT     H222887   2.659   5.111   8.817
 7549WAT      O22888   3.528   5.974   2.753
 7549WAT     H122889   3.434   5.967   2.720
 7549WAT     H222890   3.528   6.020   2.842
 7550WAT      O22891   5.309   3.907   3.451
 7550WAT     H122892   5.392   3.961   3.468
 7550WAT     H222893   5.311   3.825   3.509
 7551WAT      O22894   7.411   9.509   8.576
 7551WAT     H122895   7.337   9.454   8.537
 7551WAT     H222896   7.484   9.449   8.608
 7552WAT      O22897   3.117   2.430   5.467
 7552WAT     H122898   3.142   2.367   5.394
 7552WAT     H222899   3.038   2.484   5.438
 7553WAT      O22900   3.374   6.549   0.602
 7553WAT     H122901   3.453   6.574   0.657
 7553WAT     H222902   3.337   6.462   0.634
 7554WAT      O22903   0.591   3.870   4.559
 7554WAT     H122904   0.645   3.933   4.502
 7554WAT     H222905   0.628   3.869   4.652
 7555WAT      O22906   1.427   4.646   8.766
 7555WAT     H122907   1.360   4.686   8.828
 7555WAT     H222908   1.384   4.573   8.713
 7556WAT      O22909   1.396   9.673   3.702
 7556WAT     H122910   1.488   9.685   3.739
 7556WAT     H222911   1.346   9.760   3.707
 7557WAT      O22912   4.111   0.315   7.712
 7557WAT     H122913   4.090   0.244   7.778
 7557WAT     H222914   4.102   0.405   7.756
 7558WAT      O22915   1.887   5.344   0.354
 7558WAT     H122916   1.930   5.255   0.341
 7558WAT     H222917   1.954   5.409   0.392
 7559WAT      O22918   0.294   5.150   4.171
 7559WAT     H122919   0.211   5.187   4.128
 7559WAT     H222920   0.358   5.122   4.099
 7560WAT      O22921   0.808   2.236   8.605
 7560WAT     H122922   0.715   2.199   8.599
 7560WAT     H222923   0.867   2.188   8.541
 7561WAT      O22924   1.269   3.375   3.433
 7561WAT     H122925   1.348   3.399   3.489
 7561WAT     H222926   1.241   3.454   3.379
 7562WAT      O22927   1.216   5.424   1.041
 7562WAT     H122928   1.127   5.469   1.033
 7562WAT     H222929   1.286   5.481   1.000
 7563WAT      O22930   1.781   7.950   4.575
 7563WAT     H122931   1.778   8.017   4.500
 7563WAT     H222932   1.715   7.977   4.646
 7564WAT      O22933   4.536   2.499   5.593
 7564WAT     H122934   4.626   2.488   5.551
 7564WAT     H222935   4.508   2.595   5.587
 7565WAT      O22936   6.082   8.537   5.153
 7565WAT     H122937   6.097   8.553   5.251
 7565WAT     H222938   6.050   8.621   5.110
 7566WAT      O22939   6.650   2.097   3.963
 7566WAT     H122940   6.560   2.054   3.965
 7566WAT     H222941   6.710   2.053   4.031
 7567WAT      O22942   9.809   2.386   7.296
 7567WAT     H122943   9.746   2.310   7.280
 7567WAT     H222944   9.765   2.472   7.268
 7568WAT      O22945   0.304   5.622   5.293
 7568WAT     H122946   0.404   5.623   5.297
 7568WAT     H222947   0.273   5.528   5.279
 7569WAT      O22948   8.324   2.179   8.543
 7569WAT     H122949   8.249   2.113   8.540
 7569WAT     H222950   8.286   2.272   8.546
 7570WAT      O22951   1.320   5.654   8.645
 7570WAT     H122952   1.299   5.556   8.647
 7570WAT     H222953   1.276   5.696   8.565
 7571WAT      O22954   4.390   9.215   3.721
 7571WAT     H122955   4.443   9.238   3.640
 7571WAT     H222956   4.452   9.186   3.794
 7572WAT      O22957   5.257   0.556   2.633
 7572WAT     H122958   5.190   0.627   2.610
 7572WAT     H222959   5.219   0.497   2.704
 7573WAT      O22960   6.754   0.373   9.294
 7573WAT     H122961   6.826   0.304   9.297
 7573WAT     H222962   6.685   0.352   9.363
 7574WAT      O22963   5.023   8.006   2.847
 7574WAT     H122964   4.935   8.001   2.894
 7574WAT     H222965   5.008   8.027   2.750
 7575WAT      O22966   9.522   7.668   9.762
 7575WAT     H122967   9.616   7.681   9.795
 7575WAT     H222968   9.519   7.589   9.702
 7576WAT      O22969   9.172   4.719   7.466
 7576WAT     H122970   9.081   4.726   7.507
 7576WAT     H222971   9.165   4.678   7.375
 7577WAT      O22972   0.973   2.728   3.984
 7577WAT     H122973   1.022   2.670   3.920
 7577WAT     H222974   0.923   2.798   3.933
 7578WAT      O22975   0.808   0.840   7.742
 7578WAT     H122976   0.785   0.752   7.702
 7578WAT     H222977   0.837   0.903   7.670
 7579WAT      O22978   5.300   9.727   9.118
 7579WAT     H122979   5.260   9.814   9.147
 7579WAT     H222980   5.258   9.652   9.168
 7580WAT      O22981   8.474   2.112   4.553
 7580WAT     H122982   8.531   2.188   4.523
 7580WAT     H222983   8.382   2.145   4.576
 7581WAT      O22984   2.719   7.341   9.288
 7581WAT     H122985   2.724   7.322   9.190
 7581WAT     H222986   2.740   7.258   9.340
 7582WAT      O22987   6.075   3.983   6.550
 7582WAT     H122988   6.089   3.994   6.648
 7582WAT     H222989   6.148   3.927   6.512
 7583WAT      O22990   4.274   7.166   1.203
 7583WAT     H122991   4.370   7.155   1.229
 7583WAT     H222992   4.216   7.116   1.267
 7584WAT      O22993   2.731   8.957   8.200
 7584WAT     H122994   2.747   9.055   8.212
 7584WAT     H222995   2.738   8.933   8.103
 7585WAT      O22996   8.715   9.051   6.233
 7585WAT     H122997   8.672   8.961   6.232
 7585WAT     H222998   8.787   9.052   6.303
 7586WAT      O22999   2.610   7.509   6.483
 7586WAT     H123000   2.670   7.579   6.444
 7586WAT     H223001   2.554   7.469   6.410
 7587WAT      O23002   6.406   3.788   1.505
 7587WAT     H123003   6.465   3.858   1.547
 7587WAT     H223004   6.345   3.751   1.575
 7588WAT      O23005   9.132   1.099   7.071
 7588WAT     H123006   9.209   1.046   7.108
 7588WAT     H223007   9.107   1.170   7.136
 7589WAT      O23008   9.181   5.788   7.455
 7589WAT     H123009   9.196   5.873   7.405
 7589WAT     H223010   9.162   5.810   7.551
 7590WAT      O23011   0.830   5.303   7.153
 7590WAT     H123012   0.817   5.390   7.200
 7590WAT     H223013   0.928   5.286   7.141
 7591WAT      O23014   3.256   5.839   2.955
 7591WAT     H123015   3.214   5.919   2.913
 7591WAT     H223016   3.228   5.757   2.906
 7592WAT      O23017   8.368   2.016   3.031
 7592WAT     H123018   8.366   2.000   2.932
 7592WAT     H223019   8.358   2.114   3.049
 7593WAT      O23020   4.456   1.245   4.264
 7593WAT     H123021   4.405   1.328   4.240
 7593WAT     H223022   4.531   1.269   4.325
 7594WAT      O23023   1.779   5.854   4.529
 7594WAT     H123024   1.766   5.758   4.504
 7594WAT     H223025   1.691   5.895   4.552
 7595WAT      O23026   6.900   7.858   4.146
 7595WAT     H123027   6.912   7.864   4.245
 7595WAT     H223028   6.883   7.950   4.110
 7596WAT      O23029   9.087   0.212   7.361
 7596WAT     H123030   9.138   0.246   7.282
 7596WAT     H223031   9.137   0.235   7.445
 7597WAT      O23032   5.643   5.060   7.437
 7597WAT     H123033   5.587   5.102   7.366
 7597WAT     H223034   5.616   4.965   7.450
 7598WAT      O23035   7.724   5.731   8.222
 7598WAT     H123036   7.640   5.709   8.173
 7598WAT     H223037   7.701   5.761   8.315
 7599WAT      O23038   2.199   5.064   7.893
 7599WAT     H123039   2.147   5.110   7.965
 7599WAT     H223040   2.272   5.124   7.860
 7600WAT      O23041   3.239   7.028   4.659
 7600WAT     H123042   3.320   6.984   4.619
 7600WAT     H223043   3.260   7.058   4.752
 7601WAT      O23044   0.527   5.265   7.030
 7601WAT     H123045   0.436   5.250   7.069
 7601WAT     H223046   0.518   5.297   6.936
 7602WAT      O23047   8.792   6.278   5.265
 7602WAT     H123048   8.745   6.364   5.246
 7602WAT     H223049   8.818   6.235   5.178
 7603WAT      O23050   6.186   5.375   0.177
 7603WAT     H123051   6.175   5.334   0.087
 7603WAT     H223052   6.218   5.305   0.241
 7604WAT      O23053   6.740   7.076   7.166
 7604WAT     H123054   6.762   7.144   7.096
 7604WAT     H223055   6.642   7.080   7.187
 7605WAT      O23056   5.773   3.443   9.376
 7605WAT     H123057   5.674   3.427   9.373
 7605WAT     H223058   5.803   3.446   9.472
 7606WAT      O23059   7.945   9.556   6.142
 7606WAT     H123060   8.017   9.527   6.205
 7606WAT     H223061   7.857   9.556   6.190
 7607WAT      O23062   7.888   2.214   5.066
 7607WAT     H123063   7.960   2.277   5.093
 7607WAT     H223064   7.928   2.124   5.046
 7608WAT      O23065   5.076   3.285   8.257
 7608WAT     H123066   5.063   3.347   8.334
 7608WAT     H223067   5.029   3.322   8.176
 7609WAT      O23068   8.259   5.813   1.037
 7609WAT     H123069   8.306   5.736   0.993
 7609WAT     H223070   8.240   5.791   1.133
 7610WAT      O23071   1.395   0.169   8.402
 7610WAT     H123072   1.326   0.137   8.467
 7610WAT     H223073   1.452   0.091   8.374
 7611WAT      O23074   3.367   1.988   3.722
 7611WAT     H123075   3.465   2.005   3.719
 7611WAT     H223076   3.335   1.961   3.632
 7612WAT      O23077   5.005   5.741   2.376
 7612WAT     H123078   4.948   5.702   2.304
 7612WAT     H223079   5.051   5.668   2.425
 7613WAT      O23080   6.551   2.153   6.356
 7613WAT     H123081   6.632   2.188   6.402
 7613WAT     H223082   6.536   2.057   6.383
 7614WAT      O23083   4.838   2.212   3.190
 7614WAT     H123084   4.793   2.141   3.136
 7614WAT     H223085   4.769   2.266   3.239
 7615WAT      O23086   2.568   6.423   6.323
 7615WAT     H123087   2.529   6.415   6.232
 7615WAT     H223088   2.602   6.516   6.337
 7616WAT      O23089   5.903   6.651   6.322
 7616WAT     H123090   5.839   6.716   6.363
 7616WAT     H223091   5.989   6.697   6.300
 7617WAT      O23092   5.361   8.343   3.090
 7617WAT     H123093   5.306   8.261   3.074
 7617WAT     H223094   5.456   8.318   3.105
 7618WAT      O23095   4.171   9.466   1.294
 7618WAT     H123096   4.096   9.525   1.265
 7618WAT     H223097   4.251   9.521   1.314
 7619WAT      O23098   0.492   0.456   7.654
 7619WAT     H123099   0.439   0.456   7.739
 7619WAT     H223100   0.534   0.366   7.641
 7620WAT      O23101   6.937   5.204   2.751
 7620WAT     H123102   6.865   5.181   2.686
 7620WAT     H223103   7.012   5.251   2.704
 7621WAT      O23104   7.983   5.611   1.733
 7621WAT     H123105   7.898   5.573   1.767
 7621WAT     H223106   8.056   5.543   1.745
 7622WAT      O23107   3.170   8.731   7.825
 7622WAT     H123108   3.087   8.719   7.879
 7622WAT     H223109   3.229   8.799   7.868
 7623WAT      O23110   2.112   3.303   6.973
 7623WAT     H123111   2.136   3.297   6.876
 7623WAT     H223112   2.052   3.227   6.997
 7624WAT      O23113   8.162   3.449   7.152
 7624WAT     H123114   8.194   3.540   7.178
 7624WAT     H223115   8.132   3.398   7.233
 7625WAT      O23116   9.518   0.365   1.770
 7625WAT     H123117   9.519   0.399   1.676
 7625WAT     H223118   9.499   0.266   1.769
 7626WAT      O23119   3.420   9.028   7.325
 7626WAT     H123120   3.344   8.969   7.352
 7626WAT     H223121   3.439   9.094   7.397
 7627WAT      O23122   6.273   8.746   7.737
 7627WAT     H123123   6.368   8.719   7.719
 7627WAT     H223124   6.215   8.712   7.663
 7628WAT      O23125   6.997   0.179   2.215
 7628WAT     H123126   6.998   0.137   2.124
 7628WAT     H223127   6.902   0.190   2.245
 7629WAT      O23128   5.204   6.613   3.881
 7629WAT     H123129   5.230   6.562   3.799
 7629WAT     H223130   5.284   6.627   3.938
 7630WAT      O23131   1.572   0.291   9.578
 7630WAT     H123132   1.577   0.283   9.478
 7630WAT     H223133   1.519   0.371   9.603
 7631WAT      O23134   2.332   2.467   0.607
 7631WAT     H123135   2.427   2.441   0.620
 7631WAT     H223136   2.323   2.567   0.613
 7632WAT      O23137   0.373   0.218   4.698
 7632WAT     H123138   0.386   0.311   4.732
 7632WAT     H223139   0.308   0.219   4.623
 7633WAT      O23140   4.553   3.429   5.039
 7633WAT     H123141   4.478   3.496   5.033
 7633WAT     H223142   4.517   3.341   5.069
 7634WAT      O23143   5.561   9.526   7.518
 7634WAT     H123144   5.476   9.568   7.550
 7634WAT     H223145   5.575   9.438   7.564
 7635WAT      O23146   9.828   9.571   8.768
 7635WAT     H123147   9.886   9.495   8.741
 7635WAT     H223148   9.880   9.633   8.827
 7636WAT      O23149   8.732   9.503   1.248
 7636WAT     H123150   8.799   9.576   1.256
 7636WAT     H223151   8.669   9.522   1.172
 7637WAT      O23152   9.205   6.081   2.617
 7637WAT     H123153   9.259   6.055   2.536
 7637WAT     H223154   9.146   6.158   2.594
 7638WAT      O23155   1.560   3.833   4.587
 7638WAT     H123156   1.602   3.804   4.673
 7638WAT     H223157   1.466   3.862   4.605
 7639WAT      O23158   1.359   6.608   3.833
 7639WAT     H123159   1.338   6.572   3.924
 7639WAT     H223160   1.321   6.547   3.764
 7640WAT      O23161   4.911   7.817   1.212
 7640WAT     H123162   4.959   7.745   1.161
 7640WAT     H223163   4.813   7.811   1.195
 7641WAT      O23164   5.696   6.378   0.270
 7641WAT     H123165   5.613   6.366   0.216
 7641WAT     H223166   5.752   6.296   0.263
 7642WAT      O23167   8.244   1.281   4.515
 7642WAT     H123168   8.222   1.362   4.569
 7642WAT     H223169   8.248   1.305   4.418
 7643WAT      O23170   0.476   4.946   3.122
 7643WAT     H123171   0.572   4.963   3.144
 7643WAT     H223172   0.464   4.948   3.022
 7644WAT      O23173   0.330   5.249   3.486
 7644WAT     H123174   0.312   5.225   3.390
 7644WAT     H223175   0.301   5.343   3.503
 7645WAT      O23176   3.025   9.648   6.071
 7645WAT     H123177   2.928   9.672   6.065
 7645WAT     H223178   3.079   9.731   6.086
 7646WAT      O23179   4.890   4.868   1.122
 7646WAT     H123180   4.860   4.795   1.060
 7646WAT     H223181   4.892   4.954   1.072
 7647WAT      O23182   1.461   0.614   2.010
 7647WAT     H123183   1.379   0.609   2.067
 7647WAT     H223184   1.464   0.702   1.963
 7648WAT      O23185   6.212   8.402   7.256
 7648WAT     H123186   6.287   8.344   7.288
 7648WAT     H223187   6.247   8.466   7.187
 7649WAT      O23188   3.074   0.741   2.884
 7649WAT     H123189   3.101   0.836   2.868
 7649WAT     H223190   3.100   0.714   2.977
 7650WAT      O23191   0.836   6.548   1.168
 7650WAT     H123192   0.868   6.475   1.229
 7650WAT     H223193   0.893   6.549   1.086
 7651WAT      O23194   9.117   1.639   7.971
 7651WAT     H123195   9.122   1.593   8.059
 7651WAT     H223196   9.180   1.717   7.970
 7652WAT      O23197   8.751   9.481   6.290
 7652WAT     H123198   8.835   9.427   6.301
 7652WAT     H223199   8.769   9.576   6.318
 7653WAT      O23200   7.678   5.409   9.201
 7653WAT     H123201   7.775   5.420   9.178
 7653WAT     H223202   7.658   5.460   9.285
 7654WAT      O23203   3.975   4.849   2.410
 7654WAT     H123204   3.947   4.914   2.340
 7654WAT     H223205   3.948   4.882   2.500
 7655WAT      O23206   0.285   5.761   2.671
 7655WAT     H123207   0.290   5.821   2.590
 7655WAT     H223208   0.321   5.671   2.647
 7656WAT      O23209   3.451   1.841   6.173
 7656WAT     H123210   3.459   1.913   6.103
 7656WAT     H223211   3.362   1.797   6.165
 7657WAT      O23212   3.068   7.486   9.591
 7657WAT     H123213   3.154   7.501   9.541
 7657WAT     H223214   2.991   7.516   9.534
 7658WAT      O23215   4.080   5.013   5.785
 7658WAT     H123216   4.086   4.913   5.784
 7658WAT     H223217   4.118   5.048   5.871
 7659WAT      O23218   1.793   0.206   6.948
 7659WAT     H123219   1.708   0.154   6.960
 7659WAT     H223220   1.803   0.232   6.852
 7660WAT      O23221   2.217   1.739   6.651
 7660WAT     H123222   2.193   1.778   6.562
 7660WAT     H223223   2.161   1.657   6.667
 7661WAT      O23224   1.836   9.450   4.561
 7661WAT     H123225   1.798   9.385   4.627
 7661WAT     H223226   1.782   9.447   4.477
 7662WAT      O23227   8.235   2.195   0.809
 7662WAT     H123228   8.246   2.099   0.783
 7662WAT     H223229   8.225   2.250   0.726
 7663WAT      O23230   6.603   8.313   0.335
 7663WAT     H123231   6.570   8.222   0.361
 7663WAT     H223232   6.546   8.383   0.378
 7664WAT      O23233   5.602   2.497   2.271
 7664WAT     H123234   5.570   2.451   2.354
 7664WAT     H223235   5.606   2.595   2.287
 7665WAT      O23236   8.508   6.880   3.604
 7665WAT     H123237   8.414   6.861   3.576
 7665WAT     H223238   8.558   6.794   3.616
 7666WAT      O23239   2.886   0.968   8.275
 7666WAT     H123240   2.895   0.944   8.372
 7666WAT     H223241   2.972   0.951   8.228
 7667WAT      O23242   8.258   8.973   3.056
 7667WAT     H123243   8.352   9.008   3.067
 7667WAT     H223244   8.260   8.888   3.005
 7668WAT      O23245   3.823   7.311   9.456
 7668WAT     H123246   3.758   7.248   9.497
 7668WAT     H223247   3.802   7.324   9.359
 7669WAT      O23248   6.840   2.345   2.161
 7669WAT     H123249   6.823   2.354   2.259
 7669WAT     H223250   6.934   2.372   2.140
 7670WAT      O23251   7.783   6.999   5.226
 7670WAT     H123252   7.752   6.966   5.137
 7670WAT     H223253   7.864   6.947   5.255
 7671WAT      O23254   3.650   4.037   3.596
 7671WAT     H123255   3.562   4.015   3.637
 7671WAT     H223256   3.666   3.976   3.518
 7672WAT      O23257   1.894   7.452   6.948
 7672WAT     H123258   1.861   7.520   7.014
 7672WAT     H223259   1.857   7.363   6.971
 7673WAT      O23260   6.485   0.151   2.305
 7673WAT     H123261   6.398   0.108   2.328
 7673WAT     H223262   6.472   0.249   2.293
 7674WAT      O23263   2.668   2.762   6.763
 7674WAT     H123264   2.613   2.683   6.732
 7674WAT     H223265   2.717   2.800   6.686
 7675WAT      O23266   1.185   4.971   1.896
 7675WAT     H123267   1.118   4.937   1.962
 7675WAT     H223268   1.238   5.045   1.938
 7676WAT      O23269   8.822   7.434   2.837
 7676WAT     H123270   8.877   7.419   2.919
 7676WAT     H223271   8.824   7.531   2.813
 7677WAT      O23272   7.267   2.801   5.092
 7677WAT     H123273   7.316   2.714   5.100
 7677WAT     H223274   7.331   2.872   5.064
 7678WAT      O23275   6.415   1.406   8.592
 7678WAT     H123276   6.505   1.365   8.579
 7678WAT     H223277   6.361   1.396   8.508
 7679WAT      O23278   3.999   1.841   2.379
 7679WAT     H123279   4.092   1.826   2.345
 7679WAT     H223280   3.999   1.841   2.479
 7680WAT      O23281   0.078   1.131   4.278
 7680WAT     H123282   0.175   1.121   4.302
 7680WAT     H223283   0.052   1.227   4.282
 7681WAT      O23284   8.125   2.960   6.335
 7681WAT     H123285   8.107   3.050   6.373
 7681WAT     H223286   8.052   2.897   6.364
 7682WAT      O23287   9.505   5.981   2.751
 7682WAT     H123288   9.476   5.995   2.845
 7682WAT     H223289   9.572   6.051   2.725
 7683WAT      O23290   4.376   8.297   2.492
 7683WAT     H123291   4.339   8.234   2.423
 7683WAT     H223292   4.354   8.391   2.466
 7684WAT      O23293   8.503   3.686   9.588
 7684WAT     H123294   8.513   3.612   9.655
 7684WAT     H223295   8.584   3.688   9.529
 7685WAT      O23296   5.176   5.149   7.694
 7685WAT     H123297   5.170   5.082   7.768
 7685WAT     H223298   5.181   5.241   7.732
 7686WAT      O23299   3.057   6.522   9.162
 7686WAT     H123300   3.116   6.600   9.184
 7686WAT     H223301   2.968   6.555   9.131
 7687WAT      O23302   7.175   9.816   9.365
 7687WAT     H123303   7.152   9.766   9.449
 7687WAT     H223304   7.235   9.893   9.388
 7688WAT      O23305   8.187   6.834   0.340
 7688WAT     H123306   8.269   6.781   0.318
 7688WAT     H223307   8.183   6.915   0.282
 7689WAT      O23308   7.369   7.037   0.731
 7689WAT     H123309   7.434   7.100   0.773
 7689WAT     H223310   7.294   7.088   0.690
 7690WAT      O23311   4.383   3.309   4.780
 7690WAT     H123312   4.314   3.265   4.722
 7690WAT     H223313   4.337   3.365   4.849
 7691WAT      O23314   8.846   7.521   6.643
 7691WAT     H123315   8.779   7.566   6.585
 7691WAT     H223316   8.879   7.584   6.712
 7692WAT      O23317   5.717   1.963   9.639
 7692WAT     H123318   5.688   2.020   9.563
 7692WAT     H223319   5.804   1.997   9.675
 7693WAT      O23320   3.240   0.316   6.518
 7693WAT     H123321   3.175   0.359   6.580
 7693WAT     H223322   3.307   0.264   6.570
 7694WAT      O23323   6.886   4.480   5.600
 7694WAT     H123324   6.886   4.580   5.606
 7694WAT     H223325   6.980   4.446   5.601
 7695WAT      O23326   0.053   3.315   2.837
 7695WAT     H123327   0.109   3.297   2.919
 7695WAT     H223328   0.059   3.237   2.775
 7696WAT      O23329   6.083   0.152   2.856
 7696WAT     H123330   6.092   0.225   2.788
 7696WAT     H223331   6.004   0.169   2.914
 7697WAT      O23332   8.354   8.809   7.861
 7697WAT     H123333   8.396   8.724   7.828
 7697WAT     H223334   8.259   8.813   7.830
 7698WAT      O23335   1.530   7.505   7.023
 7698WAT     H123336   1.447   7.549   7.059
 7698WAT     H223337   1.610   7.559   7.051
 7699WAT      O23338   2.734   9.628   8.409
 7699WAT     H123339   2.664   9.572   8.365
 7699WAT     H223340   2.788   9.675   8.339
 7700WAT      O23341   5.345   3.287   0.987
 7700WAT     H123342   5.423   3.293   1.050
 7700WAT     H223343   5.261   3.310   1.036
 7701WAT      O23344   2.452   6.393   5.300
 7701WAT     H123345   2.485   6.323   5.237
 7701WAT     H223346   2.412   6.349   5.380
 7702WAT      O23347   8.527   7.740   2.120
 7702WAT     H123348   8.622   7.716   2.103
 7702WAT     H223349   8.497   7.808   2.054
 7703WAT      O23350   7.713   8.430   6.311
 7703WAT     H123351   7.758   8.359   6.364
 7703WAT     H223352   7.616   8.406   6.298
 7704WAT      O23353   2.246   1.121   6.445
 7704WAT     H123354   2.293   1.036   6.470
 7704WAT     H223355   2.153   1.099   6.415
 7705WAT      O23356   0.591   8.904   8.388
 7705WAT     H123357   0.553   8.990   8.423
 7705WAT     H223358   0.684   8.920   8.355
 7706WAT      O23359   9.000   0.181   1.417
 7706WAT     H123360   9.071   0.119   1.384
 7706WAT     H223361   8.911   0.150   1.385
 7707WAT      O23362   6.699   4.395   6.132
 7707WAT     H123363   6.757   4.466   6.171
 7707WAT     H223364   6.628   4.370   6.198
 7708WAT      O23365   3.503   2.903   8.701
 7708WAT     H123366   3.424   2.848   8.726
 7708WAT     H223367   3.587   2.852   8.720
 7709WAT      O23368   4.293   3.526   8.805
 7709WAT     H123369   4.343   3.521   8.892
 7709WAT     H223370   4.352   3.494   8.731
 7710WAT      O23371   6.243   9.148   7.345
 7710WAT     H123372   6.270   9.078   7.279
 7710WAT     H223373   6.323   9.178   7.397
 7711WAT      O23374   2.340   3.603   1.504
 7711WAT     H123375   2.435   3.624   1.480
 7711WAT     H223376   2.326   3.504   1.496
 7712WAT      O23377   2.274   0.285   9.044
 7712WAT     H123378   2.299   0.314   8.952
 7712WAT     H223379   2.314   0.195   9.063
 7713WAT      O23380   2.207   6.639   5.928
 7713WAT     H123381   2.138   6.697   5.885
 7713WAT     H223382   2.295   6.687   5.931
 7714WAT      O23383   0.581   8.340   1.316
 7714WAT     H123384   0.619   8.250   1.338
 7714WAT     H223385   0.484   8.330   1.294
 7715WAT      O23386   9.749   2.803   0.595
 7715WAT     H123387   9.820   2.798   0.525
 7715WAT     H223388   9.684   2.729   0.581
 7716WAT      O23389   8.332   2.338   5.518
 7716WAT     H123390   8.378   2.402   5.579
 7716WAT     H223391   8.370   2.345   5.426
 7717WAT      O23392   1.058   3.368   6.588
 7717WAT     H123393   0.987   3.400   6.525
 7717WAT     H223394   1.035   3.276   6.620
 7718WAT      O23395   7.491   5.517   6.035
 7718WAT     H123396   7.538   5.451   5.976
 7718WAT     H223397   7.501   5.488   6.130
 7719WAT      O23398   7.412   7.257   7.253
 7719WAT     H123399   7.473   7.207   7.190
 7719WAT     H223400   7.333   7.200   7.274
 7720WAT      O23401   5.190   7.031   3.273
 7720WAT     H123402   5.202   6.966   3.348
 7720WAT     H223403   5.143   6.986   3.197
 7721WAT      O23404   0.329   8.296   7.215
 7721WAT     H123405   0.341   8.215   7.272
 7721WAT     H223406   0.268   8.274   7.139
 7722WAT      O23407   3.414   8.121   6.083
 7722WAT     H123408   3.448   8.211   6.058
 7722WAT     H223409   3.491   8.057   6.089
 7723WAT      O23410   8.568   6.308   5.512
 7723WAT     H123411   8.570   6.371   5.434
 7723WAT     H223412   8.511   6.229   5.489
 7724WAT      O23413   5.954   5.194   6.756
 7724WAT     H123414   6.036   5.173   6.809
 7724WAT     H223415   5.977   5.258   6.682
 7725WAT      O23416   6.934   0.752   2.229
 7725WAT     H123417   6.986   0.804   2.297
 7725WAT     H223418   6.904   0.666   2.270
 7726WAT      O23419   4.306   0.720   0.314
 7726WAT     H123420   4.330   0.737   0.410
 7726WAT     H223421   4.207   0.723   0.303
 7727WAT      O23422   0.981   2.053   3.920
 7727WAT     H123423   0.981   1.985   3.993
 7727WAT     H223424   0.916   2.126   3.944
 7728WAT      O23425   1.414   0.268   8.790
 7728WAT     H123426   1.478   0.198   8.759
 7728WAT     H223427   1.388   0.251   8.885
 7729WAT      O23428   3.047   8.503   3.420
 7729WAT     H123429   3.029   8.412   3.384
 7729WAT     H223430   2.971   8.563   3.397
 7730WAT      O23431   1.114   9.281   3.710
 7730WAT     H123432   1.145   9.361   3.659
 7730WAT     H223433   1.097   9.205   3.646
 7731WAT      O23434   2.355   7.384   0.133
 7731WAT     H123435   2.362   7.368   0.035
 7731WAT     H223436   2.260   7.408   0.156
 7732WAT      O23437   3.464   2.245   5.367
 7732WAT     H123438   3.387   2.257   5.303
 7732WAT     H223439   3.525   2.324   5.360
 7733WAT      O23440   3.822   8.200   2.921
 7733WAT     H123441   3.883   8.273   2.890
 7733WAT     H223442   3.824   8.195   3.020
 7734WAT      O23443   3.397   7.556   5.211
 7734WAT     H123444   3.367   7.531   5.303
 7734WAT     H223445   3.366   7.487   5.145
 7735WAT      O23446   4.517   0.237   3.394
 7735WAT     H123447   4.522   0.279   3.485
 7735WAT     H223448   4.595   0.176   3.381
 7736WAT      O23449   8.090   0.810   2.600
 7736WAT     H123450   8.118   0.718   2.572
 7736WAT     H223451   8.151   0.878   2.559
 7737WAT      O23452   9.146   9.825   8.766
 7737WAT     H123453   9.194   9.901   8.809
 7737WAT     H223454   9.068   9.799   8.823
 7738WAT      O23455   9.781   3.357   4.662
 7738WAT     H123456   9.844   3.325   4.591
 7738WAT     H223457   9.725   3.431   4.626
 7739WAT      O23458   2.686   8.909   5.434
 7739WAT     H123459   2.732   8.867   5.356
 7739WAT     H223460   2.665   8.839   5.502
 7740WAT      O23461   5.805   3.614   9.136
 7740WAT     H123462   5.742   3.691   9.145
 7740WAT     H223463   5.792   3.553   9.214
 7741WAT      O23464   7.437   9.140   1.362
 7741WAT     H123465   7.457   9.174   1.454
 7741WAT     H223466   7.341   9.154   1.341
 7742WAT      O23467   4.534   9.733   6.310
 7742WAT     H123468   4.474   9.657   6.335
 7742WAT     H223469   4.606   9.700   6.249
 7743WAT      O23470   9.671   8.494   4.293
 7743WAT     H123471   9.720   8.571   4.334
 7743WAT     H223472   9.713   8.408   4.322
 7744WAT      O23473   8.284   0.048   2.840
 7744WAT     H123474   8.190   0.036   2.873
 7744WAT     H223475   8.347  -0.000   2.901
 7745WAT      O23476   3.946   6.632   1.621
 7745WAT     H123477   4.027   6.634   1.679
 7745WAT     H223478   3.883   6.705   1.649
 7746WAT      O23479   9.697   5.096   3.160
 7746WAT     H123480   9.646   5.182   3.164
 7746WAT     H223481   9.635   5.020   3.183
 7747WAT      O23482   1.155   2.274   4.767
 7747WAT     H123483   1.213   2.206   4.810
 7747WAT     H223484   1.131   2.245   4.674
 7748WAT      O23485   1.647   0.962   2.139
 7748WAT     H123486   1.676   1.052   2.172
 7748WAT     H223487   1.553   0.967   2.107
 7749WAT      O23488   1.680   3.280   2.918
 7749WAT     H123489   1.740   3.214   2.964
 7749WAT     H223490   1.677   3.365   2.971
 7750WAT      O23491   1.001   6.125   1.182
 7750WAT     H123492   0.973   6.038   1.221
 7750WAT     H223493   1.078   6.111   1.120
 7751WAT      O23494   6.552   5.657   7.812
 7751WAT     H123495   6.564   5.564   7.847
 7751WAT     H223496   6.640   5.691   7.779
 7752WAT      O23497   6.178   5.251   9.582
 7752WAT     H123498   6.227   5.168   9.608
 7752WAT     H223499   6.196   5.272   9.486
 7753WAT      O23500   9.474   4.339   4.064
 7753WAT     H123501   9.392   4.296   4.027
 7753WAT     H223502   9.511   4.282   4.138
 7754WAT      O23503   2.881   4.171   3.446
 7754WAT     H123504   2.826   4.089   3.463
 7754WAT     H223505   2.835   4.229   3.378
 7755WAT      O23506   0.877   9.749   7.167
 7755WAT     H123507   0.869   9.738   7.068
 7755WAT     H223508   0.939   9.680   7.203
 7756WAT      O23509   2.616   9.541   0.307
 7756WAT     H123510   2.595   9.462   0.364
 7756WAT     H223511   2.655   9.615   0.363
 7757WAT      O23512   0.904   4.201   8.915
 7757WAT     H123513   0.874   4.243   9.000
 7757WAT     H223514   0.921   4.104   8.929
 7758WAT      O23515   8.908   8.770   3.778
 7758WAT     H123516   8.816   8.749   3.746
 7758WAT     H223517   8.915   8.752   3.876
 7759WAT      O23518   5.462   7.439   0.584
 7759WAT     H123519   5.391   7.395   0.639
 7759WAT     H223520   5.550   7.429   0.629
 7760WAT      O23521   4.289   7.105   0.907
 7760WAT     H123522   4.313   7.138   0.998
 7760WAT     H223523   4.272   7.184   0.847
 7761WAT      O23524   3.446   6.676   6.521
 7761WAT     H123525   3.404   6.623   6.595
 7761WAT     H223526   3.445   6.623   6.437
 7762WAT      O23527   6.405   5.232   8.431
 7762WAT     H123528   6.416   5.135   8.406
 7762WAT     H223529   6.490   5.266   8.469
 7763WAT      O23530   8.655   2.254   1.619
 7763WAT     H123531   8.691   2.171   1.577
 7763WAT     H223532   8.558   2.241   1.640
 7764WAT      O23533   0.518   5.958   7.150
 7764WAT     H123534   0.483   5.884   7.094
 7764WAT     H223535   0.444   6.020   7.175
 7765WAT      O23536   5.482   2.208   8.968
 7765WAT     H123537   5.453   2.256   9.051
 7765WAT     H223538   5.454   2.261   8.888
 7766WAT      O23539   5.413   4.635   3.078
 7766WAT     H123540   5.406   4.667   2.983
 7766WAT     H223541   5.322   4.614   3.113
 7767WAT      O23542   4.164   2.167   5.035
 7767WAT     H123543   4.103   2.147   4.958
 7767WAT     H223544   4.212   2.253   5.018
 7768WAT      O23545   6.318   1.385   4.719
 7768WAT     H123546   6.387   1.353   4.784
 7768WAT     H223547   6.363   1.408   4.632
 7769WAT      O23548   6.440   6.208   9.100
 7769WAT     H123549   6.510   6.256   9.152
 7769WAT     H223550   6.357   6.263   9.098
 7770WAT      O23551   1.960   6.737   7.165
 7770WAT     H123552   1.883   6.673   7.168
 7770WAT     H223553   1.935   6.823   7.209
 7771WAT      O23554   6.061   9.509   1.855
 7771WAT     H123555   6.128   9.439   1.880
 7771WAT     H223556   6.076   9.591   1.910
 7772WAT      O23557   4.096   0.656   4.012
 7772WAT     H123558   4.046   0.586   4.063
 7772WAT     H223559   4.109   0.736   4.069
 7773WAT      O23560   4.221   4.900   2.289
 7773WAT     H123561   4.128   4.883   2.322
 7773WAT     H223562   4.285   4.837   2.334
 7774WAT      O23563   3.680   8.288   5.050
 7774WAT     H123564   3.708   8.318   5.141
 7774WAT     H223565   3.634   8.200   5.056
 7775WAT      O23566   4.267   3.056   8.226
 7775WAT     H123567   4.246   3.051   8.129
 7775WAT     H223568   4.287   2.965   8.261
 7776WAT      O23569   6.175   0.852   8.551
 7776WAT     H123570   6.241   0.854   8.625
 7776WAT     H223571   6.133   0.761   8.546
 7777WAT      O23572   5.795   8.330   9.641
 7777WAT     H123573   5.866   8.329   9.570
 7777WAT     H223574   5.793   8.420   9.685
 7778WAT      O23575   3.961   0.199   1.548
 7778WAT     H123576   3.904   0.230   1.623
 7778WAT     H223577   4.058   0.204   1.575
 7779WAT      O23578   3.217   4.556   5.307
 7779WAT     H123579   3.204   4.608   5.391
 7779WAT     H223580   3.279   4.604   5.246
 7780WAT      O23581   2.220   2.412   3.895
 7780WAT     H123582   2.306   2.392   3.848
 7780WAT     H223583   2.160   2.332   3.892
 7781WAT      O23584   9.341   7.958   5.232
 7781WAT     H123585   9.440   7.971   5.235
 7781WAT     H223586   9.296   8.048   5.236
 7782WAT      O23587   4.538   2.779   6.220
 7782WAT     H123588   4.505   2.803   6.129
 7782WAT     H223589   4.518   2.854   6.283
 7783WAT      O23590   3.529   8.374   2.377
 7783WAT     H123591   3.507   8.463   2.415
 7783WAT     H223592   3.622   8.348   2.404
 7784WAT      O23593   7.284   9.543   7.850
 7784WAT     H123594   7.210   9.560   7.785
 7784WAT     H223595   7.309   9.446   7.847
 7785WAT      O23596   7.850   6.203   4.310
 7785WAT     H123597   7.774   6.205   4.375
 7785WAT     H223598   7.876   6.108   4.293
 7786WAT      O23599   4.570   0.445   3.242
 7786WAT     H123600   4.529   0.370   3.293
 7786WAT     H223601   4.587   0.522   3.304
 7787WAT      O23602   6.330   7.989   5.355
 7787WAT     H123603   6.383   7.980   5.271
 7787WAT     H223604   6.344   8.081   5.394
 7788WAT      O23605   0.981   2.435   4.321
 7788WAT     H123606   0.961   2.339   4.300
 7788WAT     H223607   0.914   2.469   4.387
 7789WAT      O23608   3.287   7.631   2.644
 7789WAT     H123609   3.326   7.585   2.724
 7789WAT     H223610   3.302   7.729   2.651
 7790WAT      O23611   8.022   8.646   0.055
 7790WAT     H123612   8.087   8.577   0.023
 7790WAT     H223613   8.040   8.666   0.151
 7791WAT      O23614   1.561   4.344   9.849
 7791WAT     H123615   1.494   4.416   9.869
 7791WAT     H223616   1.628   4.339   9.923
 7792WAT      O23617   6.596   6.995   0.784
 7792WAT     H123618   6.601   6.948   0.872
 7792WAT     H223619   6.572   6.930   0.712
 7793WAT      O23620   7.977   3.183   4.965
 7793WAT     H123621   8.024   3.156   5.048
 7793WAT     H223622   7.983   3.110   4.897
 7794WAT      O23623   4.195   8.757   5.349
 7794WAT     H123624   4.216   8.709   5.264
 7794WAT     H223625   4.097   8.775   5.354
 7795WAT      O23626   6.681   8.527   1.714
 7795WAT     H123627   6.611   8.589   1.748
 7795WAT     H223628   6.686   8.532   1.614
 7796WAT      O23629   9.767   9.296   9.099
 7796WAT     H123630   9.755   9.224   9.031
 7796WAT     H223631   9.858   9.337   9.089
 7797WAT      O23632   3.614   2.089   4.661
 7797WAT     H123633   3.613   1.999   4.617
 7797WAT     H223634   3.544   2.091   4.733
 7798WAT      O23635   0.305   3.730   1.690
 7798WAT     H123636   0.209   3.702   1.680
 7798WAT     H223637   0.317   3.822   1.651
 7799WAT      O23638   8.887   6.834   5.720
 7799WAT     H123639   8.830   6.753   5.713
 7799WAT     H223640   8.983   6.807   5.723
 7800WAT      O23641   7.730   5.514   5.205
 7800WAT     H123642   7.685   5.600   5.228
 7800WAT     H223643   7.828   5.522   5.220
 7801WAT      O23644   0.185   8.758   3.675
 7801WAT     H123645   0.102   8.736   3.725
 7801WAT     H223646   0.166   8.762   3.577
 7802WAT      O23647   9.164   0.668   6.322
 7802WAT     H123648   9.210   0.603   6.383
 7802WAT     H223649   9.224   0.690   6.245
 7803WAT      O23650   0.910   5.969   5.991
 7803WAT     H123651   0.868   5.966   5.900
 7803WAT     H223652   0.997   5.920   5.989
 7804WAT      O23653   3.546   0.770   2.390
 7804WAT     H123654   3.630   0.717   2.398
 7804WAT     H223655   3.552   0.851   2.448
 7805WAT      O23656   1.924   3.071   1.534
 7805WAT     H123657   2.016   3.060   1.572
 7805WAT     H223658   1.886   2.981   1.514
 7806WAT      O23659   8.516   3.775   8.788
 7806WAT     H123660   8.606   3.814   8.769
 7806WAT     H223661   8.523   3.713   8.866
 7807WAT      O23662   4.541   7.042   1.599
 7807WAT     H123663   4.599   7.015   1.676
 7807WAT     H223664   4.446   7.048   1.630
 7808WAT      O23665   3.812   1.421   4.603
 7808WAT     H123666   3.867   1.385   4.678
 7808WAT     H223667   3.836   1.373   4.519
 7809WAT      O23668   0.577   0.575   0.058
 7809WAT     H123669   0.630   0.526   0.126
 7809WAT     H223670   0.591   0.533  -0.032
 7810WAT      O23671   0.084   5.506   8.383
 7810WAT     H123672   0.018   5.580   8.371
 7810WAT     H223673   0.127   5.513   8.473
 7811WAT      O23674   9.409   5.329   6.269
 7811WAT     H123675   9.431   5.406   6.329
 7811WAT     H223676   9.318   5.294   6.292
 7812WAT      O23677   2.890   0.381   4.968
 7812WAT     H123678   2.896   0.284   4.992
 7812WAT     H223679   2.945   0.399   4.887
 7813WAT      O23680   2.998   3.827   3.303
 7813WAT     H123681   2.926   3.859   3.241
 7813WAT     H223682   2.989   3.873   3.391
 7814WAT      O23683   2.603   3.514   7.524
 7814WAT     H123684   2.668   3.512   7.600
 7814WAT     H223685   2.555   3.426   7.520
 7815WAT      O23686   2.595   3.378   8.992
 7815WAT     H123687   2.518   3.347   9.046
 7815WAT     H223688   2.565   3.400   8.899
 7816WAT      O23689   0.973   7.591   6.985
 7816WAT     H123690   0.984   7.685   6.952
 7816WAT     H223691   0.978   7.590   7.085
 7817WAT      O23692   6.007   6.066   9.630
 7817WAT     H123693   6.092   6.116   9.611
 7817WAT     H223694   5.969   6.032   9.544
 7818WAT      O23695   7.777   4.726   6.999
 7818WAT     H123696   7.741   4.636   6.976
 7818WAT     H223697   7.852   4.716   7.064
 7819WAT      O23698   5.192   0.717   7.858
 7819WAT     H123699   5.124   0.756   7.921
 7819WAT     H223700   5.280   0.761   7.873
 7820WAT      O23701   4.520   0.170   6.228
 7820WAT     H123702   4.599   0.194   6.173
 7820WAT     H223703   4.490   0.077   6.205
 7821WAT      O23704   7.969   5.708   6.162
 7821WAT     H123705   7.877   5.743   6.173
 7821WAT     H223706   8.008   5.685   6.251
 7822WAT      O23707   7.089   6.261   4.959
 7822WAT     H123708   7.101   6.243   5.057
 7822WAT     H223709   7.109   6.358   4.941
 7823WAT      O23710   1.161   7.965   3.014
 7823WAT     H123711   1.214   8.021   3.077
 7823WAT     H223712   1.117   8.024   2.946
 7824WAT      O23713   9.575   1.466   6.792
 7824WAT     H123714   9.576   1.461   6.892
 7824WAT     H223715   9.666   1.445   6.757
 7825WAT      O23716   1.725   4.222   6.854
 7825WAT     H123717   1.638   4.186   6.887
 7825WAT     H223718   1.799   4.163   6.887
 7826WAT      O23719   4.364   7.987   5.421
 7826WAT     H123720   4.417   7.996   5.506
 7826WAT     H223721   4.372   8.072   5.368
 7827WAT      O23722   3.150   0.891   4.238
 7827WAT     H123723   3.101   0.845   4.164
 7827WAT     H223724   3.231   0.937   4.201
 7828WAT      O23725   7.718   5.813   0.712
 7828WAT     H123726   7.732   5.835   0.616
 7828WAT     H223727   7.736   5.716   0.727
 7829WAT      O23728   4.972   7.979   4.753
 7829WAT     H123729   4.987   7.880   4.761
 7829WAT     H223730   5.060   8.026   4.748
 7830WAT      O23731   7.357   8.008   7.208
 7830WAT     H123732   7.410   8.081   7.251
 7830WAT     H223733   7.409   7.922   7.213
 7831WAT      O23734   8.672   5.414   5.572
 7831WAT     H123735   8.683   5.315   5.572
 7831WAT     H223736   8.756   5.456   5.537
 7832WAT      O23737   5.383   2.811   6.563
 7832WAT     H123738   5.300   2.755   6.566
 7832WAT     H223739   5.453   2.771   6.623
 7833WAT      O23740   6.573   0.679   3.474
 7833WAT     H123741   6.481   0.643   3.461
 7833WAT     H223742   6.639   0.604   3.471
 7834WAT      O23743   4.361   2.426   3.626
 7834WAT     H123744   4.360   2.490   3.550
 7834WAT     H223745   4.311   2.464   3.703
 7835WAT      O23746   8.490   9.777   2.992
 7835WAT     H123747   8.586   9.761   2.967
 7835WAT     H223748   8.446   9.690   3.013
 7836WAT      O23749   8.532   7.785   4.212
 7836WAT     H123750   8.553   7.698   4.256
 7836WAT     H223751   8.459   7.831   4.263
 7837WAT      O23752   2.910   1.152   6.151
 7837WAT     H123753   2.975   1.108   6.213
 7837WAT     H223754   2.892   1.246   6.183
 7838WAT      O23755   3.081   8.078   5.326
 7838WAT     H123756   3.090   7.978   5.330
 7838WAT     H223757   3.160   8.116   5.276
 7839WAT      O23758   3.083   2.855   3.282
 7839WAT     H123759   3.033   2.773   3.257
 7839WAT     H223760   3.024   2.915   3.336
 7840WAT      O23761   3.537   9.736   3.772
 7840WAT     H123762   3.585   9.648   3.782
 7840WAT     H223763   3.440   9.724   3.793
 7841WAT      O23764   4.193   7.787   2.112
 7841WAT     H123765   4.146   7.777   2.024
 7841WAT     H223766   4.289   7.812   2.095
 7842WAT      O23767   6.819   4.167   6.330
 7842WAT     H123768   6.779   4.259   6.331
 7842WAT     H223769   6.899   4.166   6.390
 7843WAT      O23770   5.228   5.981   5.520
 7843WAT     H123771   5.263   5.911   5.458
 7843WAT     H223772   5.275   5.975   5.608
 7844WAT      O23773   1.827   6.924   7.297
 7844WAT     H123774   1.744   6.978   7.282
 7844WAT     H223775   1.887   6.973   7.360
 7845WAT      O23776   1.334   1.292   2.208
 7845WAT     H123777   1.383   1.377   2.190
 7845WAT     H223778   1.238   1.313   2.226
 7846WAT      O23779   8.093   1.339   1.638
 7846WAT     H123780   8.087   1.436   1.615
 7846WAT     H223781   8.031   1.288   1.579
 7847WAT      O23782   3.378   8.064   0.892
 7847WAT     H123783   3.312   8.009   0.841
 7847WAT     H223784   3.448   8.005   0.931
 7848WAT      O23785   1.186   7.760   4.829
 7848WAT     H123786   1.214   7.822   4.756
 7848WAT     H223787   1.174   7.668   4.793
 7849WAT      O23788   5.861   2.959   2.256
 7849WAT     H123789   5.930   2.960   2.329
 7849WAT     H223790   5.807   3.043   2.260
 7850WAT      O23791   0.835   5.440   2.164
 7850WAT     H123792   0.840   5.382   2.083
 7850WAT     H223793   0.831   5.382   2.246
 7851WAT      O23794   8.754   3.784   3.151
 7851WAT     H123795   8.841   3.804   3.195
 7851WAT     H223796   8.735   3.686   3.158
 7852WAT      O23797   0.793   3.510   3.703
 7852WAT     H123798   0.721   3.559   3.753
 7852WAT     H223799   0.876   3.565   3.701
 7853WAT      O23800   2.480   3.842   7.616
 7853WAT     H123801   2.493   3.928   7.566
 7853WAT     H223802   2.489   3.859   7.714
 7854WAT      O23803   9.074   1.783   6.280
 7854WAT     H123804   9.172   1.790   6.264
 7854WAT     H223805   9.029   1.748   6.198
 7855WAT      O23806   0.696   4.708   1.132
 7855WAT     H123807   0.621   4.766   1.161
 7855WAT     H223808   0.720   4.644   1.205
 7856WAT      O23809   2.770   5.633   4.956
 7856WAT     H123810   2.687   5.667   4.911
 7856WAT     H223811   2.747   5.558   5.017
 7857WAT      O23812   3.362   4.232   0.840
 7857WAT     H123813   3.282   4.188   0.799
 7857WAT     H223814   3.444   4.179   0.817
 7858WAT      O23815   4.333   1.319   6.596
 7858WAT     H123816   4.278   1.381   6.652
 7858WAT     H223817   4.297   1.318   6.503
 7859WAT      O23818   6.804   1.310   4.041
 7859WAT     H123819   6.790   1.264   3.954
 7859WAT     H223820   6.768   1.252   4.115
 7860WAT      O23821   0.924   4.869   5.030
 7860WAT     H123822   0.905   4.849   4.934
 7860WAT     H223823   1.001   4.812   5.061
 7861WAT      O23824   2.652   4.557   3.712
 7861WAT     H123825   2.667   4.553   3.613
 7861WAT     H223826   2.570   4.504   3.735
 7862WAT      O23827   1.764   3.054   8.730
 7862WAT     H123828   1.775   2.961   8.695
 7862WAT     H223829   1.668   3.070   8.754
 7863WAT      O23830   8.885   6.144   1.201
 7863WAT     H123831   8.908   6.077   1.271
 7863WAT     H223832   8.915   6.111   1.111
 7864WAT      O23833   8.820   8.548   2.162
 7864WAT     H123834   8.858   8.510   2.077
 7864WAT     H223835   8.774   8.476   2.213
 7865WAT      O23836   5.750   2.300   4.248
 7865WAT     H123837   5.843   2.287   4.213
 7865WAT     H223838   5.721   2.394   4.232
 7866WAT      O23839   6.662   8.681   4.897
 7866WAT     H123840   6.666   8.770   4.851
 7866WAT     H223841   6.742   8.627   4.873
 7867WAT      O23842   2.159   2.953   8.458
 7867WAT     H123843   2.082   2.892   8.477
 7867WAT     H223844   2.239   2.923   8.510
 7868WAT      O23845   7.583   7.131   6.288
 7868WAT     H123846   7.662   7.076   6.314
 7868WAT     H223847   7.503   7.099   6.338
 7869WAT      O23848   9.357   1.049   4.905
 7869WAT     H123849   9.332   1.109   4.829
 7869WAT     H223850   9.343   1.097   4.992
 7870WAT      O23851   8.309   2.488   4.426
 7870WAT     H123852   8.272   2.534   4.508
 7870WAT     H223853   8.245   2.417   4.397
 7871WAT      O23854   6.946   0.696   8.943
 7871WAT     H123855   6.918   0.792   8.947
 7871WAT     H223856   6.879   0.640   8.992
 7872WAT      O23857   4.642   5.838   0.367
 7872WAT     H123858   4.595   5.749   0.369
 7872WAT     H223859   4.732   5.828   0.409
 7873WAT      O23860   7.126   2.868   4.590
 7873WAT     H123861   7.058   2.890   4.661
 7873WAT     H223862   7.112   2.775   4.558
 7874WAT      O23863   9.746   4.152   7.994
 7874WAT     H123864   9.803   4.092   8.049
 7874WAT     H223865   9.665   4.180   8.047
 7875WAT      O23866   8.921   1.128   9.605
 7875WAT     H123867   8.897   1.157   9.512
 7875WAT     H223868   9.013   1.160   9.627
 7876WAT      O23869   2.421   9.780   4.102
 7876WAT     H123870   2.380   9.712   4.163
 7876WAT     H223871   2.392   9.761   4.008
 7877WAT      O23872   1.751   1.085   6.595
 7877WAT     H123873   1.837   1.065   6.641
 7877WAT     H223874   1.743   1.184   6.581
 7878WAT      O23875   9.352   0.072   1.189
 7878WAT     H123876   9.397   0.157   1.163
 7878WAT     H223877   9.373   0.001   1.121
 7879WAT      O23878   0.739   5.785   3.250
 7879WAT     H123879   0.670   5.714   3.255
 7879WAT     H223880   0.812   5.757   3.188
 7880WAT      O23881   1.700   2.868   4.017
 7880WAT     H123882   1.687   2.769   4.030
 7880WAT     H223883   1.796   2.887   3.998
 7881WAT      O23884   7.894   8.507   3.452
 7881WAT     H123885   7.958   8.559   3.395
 7881WAT     H223886   7.943   8.436   3.502
 7882WAT      O23887   1.142   3.892   6.765
 7882WAT     H123888   1.222   3.891   6.826
 7882WAT     H223889   1.151   3.819   6.698
 7883WAT      O23890   8.865   5.894   9.722
 7883WAT     H123891   8.769   5.921   9.723
 7883WAT     H223892   8.873   5.797   9.700
 7884WAT      O23893   4.944   8.434   4.456
 7884WAT     H123894   5.000   8.355   4.483
 7884WAT     H223895   4.896   8.413   4.371
 7885WAT      O23896   7.655   3.817   1.582
 7885WAT     H123897   7.590   3.884   1.546
 7885WAT     H223898   7.612   3.727   1.583
 7886WAT      O23899   0.022   7.008   2.587
 7886WAT     H123900   0.030   7.067   2.507
 7886WAT     H223901   0.026   6.912   2.558
 7887WAT      O23902   6.695   9.655   4.343
 7887WAT     H123903   6.739   9.699   4.421
 7887WAT     H223904   6.678   9.723   4.271
 7888WAT      O23905   3.833   5.221   5.375
 7888WAT     H123906   3.927   5.254   5.383
 7888WAT     H223907   3.832   5.132   5.331
 7889WAT      O23908   9.282   1.178   8.838
 7889WAT     H123909   9.220   1.100   8.844
 7889WAT     H223910   9.376   1.145   8.828
 7890WAT      O23911   5.512   5.861   4.860
 7890WAT     H123912   5.426   5.889   4.903
 7890WAT     H223913   5.555   5.941   4.817
 7891WAT      O23914   1.106   3.146   0.324
 7891WAT     H123915   1.193   3.194   0.316
 7891WAT     H223916   1.034   3.212   0.347
 7892WAT      O23917   6.462   6.436   6.484
 7892WAT     H123918   6.556   6.403   6.493
 7892WAT     H223919   6.459   6.508   6.414
 7893WAT      O23920   4.309   9.732   0.432
 7893WAT     H123921   4.303   9.831   0.423
 7893WAT     H223922   4.399   9.701   0.403
 7894WAT      O23923   3.318   6.566   8.429
 7894WAT     H123924   3.316   6.527   8.521
 7894WAT     H223925   3.407   6.549   8.388
 7895WAT      O23926   0.312   6.754   5.820
 7895WAT     H123927   0.242   6.798   5.876
 7895WAT     H223928   0.314   6.798   5.730
 7896WAT      O23929   0.914   8.610   4.961
 7896WAT     H123930   0.864   8.670   4.899
 7896WAT     H223931   0.858   8.530   4.981
 7897WAT      O23932   2.690   7.888   4.901
 7897WAT     H123933   2.740   7.922   4.981
 7897WAT     H223934   2.653   7.965   4.849
 7898WAT      O23935   4.788   9.368   2.600
 7898WAT     H123936   4.753   9.460   2.618
 7898WAT     H223937   4.718   9.315   2.552
 7899WAT      O23938   7.067   6.514   4.854
 7899WAT     H123939   7.001   6.535   4.782
 7899WAT     H223940   7.148   6.572   4.842
 7900WAT      O23941   1.641   7.860   9.654
 7900WAT     H123942   1.560   7.869   9.712
 7900WAT     H223943   1.717   7.826   9.709
 7901WAT      O23944   5.703   0.796   1.665
 7901WAT     H123945   5.689   0.725   1.733
 7901WAT     H223946   5.680   0.761   1.574
 7902WAT      O23947   3.643   5.757   9.814
 7902WAT     H123948   3.739   5.759   9.785
 7902WAT     H223949   3.631   5.816   9.893
 7903WAT      O23950   6.320   0.164   3.640
 7903WAT     H123951   6.361   0.098   3.703
 7903WAT     H223952   6.392   0.216   3.594
 7904WAT      O23953   3.127   2.595   9.866
 7904WAT     H123954   3.114   2.578   9.964
 7904WAT     H223955   3.114   2.509   9.816
 7905WAT      O23956   3.713   9.664   3.106
 7905WAT     H123957   3.653   9.624   3.175
 7905WAT     H223958   3.768   9.737   3.148
 7906WAT      O23959   4.570   3.120   8.507
 7906WAT     H123960   4.471   3.122   8.516
 7906WAT     H223961   4.599   3.187   8.438
 7907WAT      O23962   6.955   1.483   0.358
 7907WAT     H123963   6.879   1.537   0.395
 7907WAT     H223964   6.960   1.396   0.407
 7908WAT      O23965   7.558   3.314   9.471
 7908WAT     H123966   7.534   3.401   9.429
 7908WAT     H223967   7.526   3.239   9.413
 7909WAT      O23968   7.031   0.140   1.953
 7909WAT     H123969   6.978   0.072   1.903
 7909WAT     H223970   7.034   0.225   1.900
 7910WAT      O23971   4.345   0.783   8.580
 7910WAT     H123972   4.361   0.876   8.546
 7910WAT     H223973   4.271   0.785   8.647
 7911WAT      O23974   2.816   5.392   8.442
 7911WAT     H123975   2.801   5.367   8.537
 7911WAT     H223976   2.799   5.490   8.431
 7912WAT      O23977   2.458   5.363   4.247
 7912WAT     H123978   2.422   5.456   4.239
 7912WAT     H223979   2.488   5.330   4.158
 7913WAT      O23980   0.506   4.935   7.132
 7913WAT     H123981   0.445   4.912   7.207
 7913WAT     H223982   0.581   4.992   7.166
 7914WAT      O23983   5.326   1.209   8.426
 7914WAT     H123984   5.404   1.209   8.363
 7914WAT     H223985   5.343   1.275   8.499
 7915WAT      O23986   7.131   4.589   4.108
 7915WAT     H123987   7.174   4.521   4.168
 7915WAT     H223988   7.113   4.548   4.019
 7916WAT      O23989   0.810   3.267   2.495
 7916WAT     H123990   0.867   3.339   2.533
 7916WAT     H223991   0.722   3.305   2.467
 7917WAT      O23992   1.742   1.820   3.153
 7917WAT     H123993   1.748   1.773   3.065
 7917WAT     H223994   1.743   1.753   3.227
 7918WAT      O23995   5.858   5.890   3.178
 7918WAT     H123996   5.909   5.901   3.093
 7918WAT     H223997   5.870   5.971   3.235
 7919WAT      O23998   5.731   6.372   9.534
 7919WAT     H123999   5.692   6.380   9.625
 7919WAT     H224000   5.677   6.427   9.470
 7920WAT      O24001   4.688   1.406   7.941
 7920WAT     H124002   4.762   1.353   7.898
 7920WAT     H224003   4.602   1.387   7.893
 7921WAT      O24004   0.471   2.990   4.159
 7921WAT     H124005   0.563   3.023   4.142
 7921WAT     H224006   0.473   2.920   4.231
 7922WAT      O24007   2.430   8.157   5.019
 7922WAT     H124008   2.366   8.228   5.046
 7922WAT     H224009   2.517   8.199   4.991
 7923WAT      O24010   7.953   0.456   3.313
 7923WAT     H124011   7.938   0.543   3.266
 7923WAT     H224012   8.048   0.427   3.300
 7924WAT      O24013   6.860   6.195   4.429
 7924WAT     H124014   6.899   6.239   4.510
 7924WAT     H224015   6.791   6.128   4.458
 7925WAT      O24016   1.118   3.315   1.323
 7925WAT     H124017   1.209   3.350   1.346
 7925WAT     H224018   1.049   3.378   1.358
 7926WAT      O24019   4.914   9.746   0.075
 7926WAT     H124020   5.005   9.731   0.113
 7926WAT     H224021   4.848   9.686   0.120
 7927WAT      O24022   1.462   3.262   3.924
 7927WAT     H124023   1.370   3.291   3.900
 7927WAT     H224024   1.461   3.165   3.948
 7928WAT      O24025   8.468   7.859   8.324
 7928WAT     H124026   8.379   7.885   8.285
 7928WAT     H224027   8.518   7.941   8.350
 7929WAT      O24028   0.684   6.877   0.846
 7929WAT     H124029   0.729   6.945   0.788
 7929WAT     H224030   0.708   6.785   0.815
 7930WAT      O24031   7.969   4.517   6.377
 7930WAT     H124032   7.995   4.506   6.281
 7930WAT     H224033   7.954   4.614   6.397
 7931WAT      O24034   1.853   2.790   0.965
 7931WAT     H124035   1.866   2.819   0.870
 7931WAT     H224036   1.882   2.863   1.026
 7932WAT      O24037   1.545   9.308   2.044
 7932WAT     H124038   1.547   9.214   2.010
 7932WAT     H224039   1.616   9.362   1.998
 7933WAT      O24040   1.467   9.718   5.381
 7933WAT     H124041   1.384   9.676   5.343
 7933WAT     H224042   1.540   9.650   5.382
 7934WAT      O24043   8.593   0.490   6.636
 7934WAT     H124044   8.560   0.584   6.628
 7934WAT     H224045   8.516   0.429   6.654
 7935WAT      O24046   2.503   5.527   3.427
 7935WAT     H124047   2.419   5.503   3.475
 7935WAT     H224048   2.558   5.445   3.412
 7936WAT      O24049   1.034   1.793   9.545
 7936WAT     H124050   0.984   1.879   9.559
 7936WAT     H224051   0.969   1.718   9.535
 7937WAT      O24052   1.653   5.131   8.400
 7937WAT     H124053   1.599   5.048   8.404
 7937WAT     H224054   1.626   5.192   8.475
 7938WAT      O24055   0.788   4.927   6.675
 7938WAT     H124056   0.780   4.983   6.757
 7938WAT     H224057   0.880   4.887   6.671
 7939WAT      O24058   3.356   8.360   1.136
 7939WAT     H124059   3.390   8.271   1.167
 7939WAT     H224060   3.409   8.433   1.178
 7940WAT      O24061   7.783   4.426   5.533
 7940WAT     H124062   7.805   4.446   5.628
 7940WAT     H224063   7.736   4.337   5.528
 7941WAT      O24064   3.677   3.905   2.215
 7941WAT     H124065   3.712   3.913   2.309
 7941WAT     H224066   3.740   3.949   2.152
 7942WAT      O24067   7.746   6.709   7.518
 7942WAT     H124068   7.707   6.764   7.592
 7942WAT     H224069   7.683   6.634   7.496
 7943WAT      O24070   7.189   5.639   8.240
 7943WAT     H124071   7.199   5.541   8.224
 7943WAT     H224072   7.166   5.655   8.336
 7944WAT      O24073   6.191   1.592   6.608
 7944WAT     H124074   6.248   1.641   6.675
 7944WAT     H224075   6.152   1.511   6.651
 7945WAT      O24076   6.112   0.620   8.984
 7945WAT     H124077   6.203   0.629   8.945
 7945WAT     H224078   6.090   0.523   8.996
 7946WAT      O24079   1.123   8.188   3.217
 7946WAT     H124080   1.024   8.190   3.230
 7946WAT     H224081   1.149   8.253   3.146
 7947WAT      O24082   1.094   2.489   9.640
 7947WAT     H124083   1.122   2.454   9.729
 7947WAT     H224084   1.135   2.580   9.626
 7948WAT      O24085   9.208   3.102   8.027
 7948WAT     H124086   9.136   3.158   7.987
 7948WAT     H224087   9.276   3.162   8.071
 7949WAT      O24088   3.950   9.107   8.869
 7949WAT     H124089   3.856   9.081   8.848
 7949WAT     H224090   3.977   9.067   8.957
 7950WAT      O24091   3.452   6.526   2.459
 7950WAT     H124092   3.473   6.429   2.467
 7950WAT     H224093   3.536   6.577   2.440
 7951WAT      O24094   4.059   0.881   2.985
 7951WAT     H124095   3.968   0.921   2.982
 7951WAT     H224096   4.077   0.845   3.077
 7952WAT      O24097   5.176   4.701   6.536
 7952WAT     H124098   5.235   4.780   6.518
 7952WAT     H224099   5.215   4.620   6.493
 7953WAT      O24100   3.046   6.436   4.128
 7953WAT     H124101   3.106   6.444   4.049
 7953WAT     H224102   2.951   6.450   4.099
 7954WAT      O24103   4.729   3.242   1.974
 7954WAT     H124104   4.762   3.148   1.981
 7954WAT     H224105   4.780   3.299   2.039
 7955WAT      O24106   4.138   6.637   0.927
 7955WAT     H124107   4.194   6.707   0.884
 7955WAT     H224108   4.053   6.678   0.961
 7956WAT      O24109   8.131   0.438   2.987
 7956WAT     H124110   8.118   0.528   3.031
 7956WAT     H224111   8.061   0.375   3.020
 7957WAT      O24112   0.186   3.776   5.760
 7957WAT     H124113   0.134   3.845   5.710
 7957WAT     H224114   0.191   3.802   5.857
 7958WAT      O24115   1.473   3.115   4.735
 7958WAT     H124116   1.398   3.137   4.797
 7958WAT     H224117   1.502   3.199   4.687
 7959WAT      O24118   3.583   7.258   3.632
 7959WAT     H124119   3.522   7.180   3.641
 7959WAT     H224120   3.636   7.250   3.548
 7960WAT      O24121   1.569   2.583   1.342
 7960WAT     H124122   1.638   2.571   1.270
 7960WAT     H224123   1.486   2.624   1.302
 7961WAT      O24124   4.554   4.438   8.720
 7961WAT     H124125   4.512   4.429   8.630
 7961WAT     H224126   4.621   4.512   8.719
 7962WAT      O24127   7.148   7.198   9.679
 7962WAT     H124128   7.193   7.116   9.713
 7962WAT     H224129   7.049   7.181   9.671
 7963WAT      O24130   1.398   7.734   9.836
 7963WAT     H124131   1.427   7.826   9.810
 7963WAT     H224132   1.298   7.729   9.839
 7964WAT      O24133   3.066   0.082   7.097
 7964WAT     H124134   3.106   0.016   7.034
 7964WAT     H224135   3.012   0.149   7.045
 7965WAT      O24136   9.734   8.243   9.592
 7965WAT     H124137   9.678   8.318   9.627
 7965WAT     H224138   9.806   8.280   9.534
 7966WAT      O24139   3.915   5.885   1.051
 7966WAT     H124140   3.996   5.882   0.993
 7966WAT     H224141   3.937   5.848   1.141
 7967WAT      O24142   4.451   8.019   5.045
 7967WAT     H124143   4.500   7.941   5.085
 7967WAT     H224144   4.489   8.104   5.082
 7968WAT      O24145   8.704   4.598   1.823
 7968WAT     H124146   8.668   4.599   1.730
 7968WAT     H224147   8.629   4.589   1.888
 7969WAT      O24148   0.681   3.080   2.718
 7969WAT     H124149   0.757   3.078   2.653
 7969WAT     H224150   0.695   3.155   2.783
 7970WAT      O24151   3.718   0.214   3.209
 7970WAT     H124152   3.721   0.280   3.284
 7970WAT     H224153   3.755   0.126   3.241
 7971WAT      O24154   5.349   3.204   4.901
 7971WAT     H124155   5.270   3.153   4.866
 7971WAT     H224156   5.423   3.139   4.921
 7972WAT      O24157   5.280   0.071   3.435
 7972WAT     H124158   5.375   0.050   3.455
 7972WAT     H224159   5.225  -0.012   3.445
 7973WAT      O24160   2.721   3.663   2.325
 7973WAT     H124161   2.704   3.694   2.231
 7973WAT     H224162   2.819   3.662   2.342
 7974WAT      O24163   8.159   6.054   7.049
 7974WAT     H124164   8.075   6.083   7.095
 7974WAT     H224165   8.208   5.988   7.106
 7975WAT      O24166   8.151   6.510   7.306
 7975WAT     H124167   8.137   6.577   7.233
 7975WAT     H224168   8.103   6.540   7.388
 7976WAT      O24169   0.273   0.167   8.151
 7976WAT     H124170   0.346   0.106   8.182
 7976WAT     H224171   0.242   0.139   8.060
 7977WAT      O24172   2.479   2.356   7.264
 7977WAT     H124173   2.383   2.340   7.286
 7977WAT     H224174   2.534   2.346   7.347
 7978WAT      O24175   4.790   9.179   5.742
 7978WAT     H124176   4.759   9.131   5.824
 7978WAT     H224177   4.817   9.272   5.767
 7979WAT      O24178   2.782   1.307   1.318
 7979WAT     H124179   2.856   1.321   1.383
 7979WAT     H224180   2.747   1.395   1.288
 7980WAT      O24181   8.503   7.406   7.605
 7980WAT     H124182   8.449   7.333   7.647
 7980WAT     H224183   8.598   7.398   7.635
 7981WAT      O24184   6.435   1.537   2.481
 7981WAT     H124185   6.468   1.627   2.512
 7981WAT     H224186   6.501   1.496   2.419
 7982WAT      O24187   2.310   6.048   2.742
 7982WAT     H124188   2.366   6.065   2.660
 7982WAT     H224189   2.214   6.057   2.718
 7983WAT      O24190   4.587   7.950   2.656
 7983WAT     H124191   4.668   7.891   2.661
 7983WAT     H224192   4.507   7.895   2.630
 7984WAT      O24193   6.614   1.426   2.321
 7984WAT     H124194   6.688   1.368   2.354
 7984WAT     H224195   6.552   1.372   2.264
 7985WAT      O24196   9.821   0.207   2.200
 7985WAT     H124197   9.726   0.174   2.203
 7985WAT     H224198   9.883   0.130   2.192
 7986WAT      O24199   4.003   4.753   6.502
 7986WAT     H124200   4.025   4.823   6.569
 7986WAT     H224201   4.051   4.772   6.416
 7987WAT      O24202   3.274   1.526   0.615
 7987WAT     H124203   3.245   1.503   0.708
 7987WAT     H224204   3.313   1.618   0.614
 7988WAT      O24205   0.674   8.246   2.736
 7988WAT     H124206   0.704   8.162   2.691
 7988WAT     H224207   0.618   8.222   2.816
 7989WAT      O24208   5.097   1.255   5.887
 7989WAT     H124209   5.100   1.343   5.935
 7989WAT     H224210   5.132   1.184   5.947
 7990WAT      O24211   3.016   4.645   9.482
 7990WAT     H124212   2.949   4.637   9.556
 7990WAT     H224213   2.995   4.579   9.410
 7991WAT      O24214   4.136   1.147   3.148
 7991WAT     H124215   4.081   1.222   3.110
 7991WAT     H224216   4.125   1.065   3.092
 7992WAT      O24217   9.615   0.407   0.923
 7992WAT     H124218   9.698   0.354   0.905
 7992WAT     H224219   9.560   0.359   0.992
 7993WAT      O24220   3.928   2.351   2.196
 7993WAT     H124221   3.996   2.416   2.230
 7993WAT     H224222   3.902   2.376   2.103
 7994WAT      O24223   1.941   5.977   7.127
 7994WAT     H124224   1.936   5.885   7.087
 7994WAT     H224225   1.868   6.034   7.089
 7995WAT      O24226   2.210   0.305   7.936
 7995WAT     H124227   2.298   0.271   7.967
 7995WAT     H224228   2.198   0.400   7.964
 7996WAT      O24229   0.125   3.442   7.231
 7996WAT     H124230   0.108   3.478   7.140
 7996WAT     H224231   0.214   3.474   7.264
 7997WAT      O24232   7.338   1.603   3.762
 7997WAT     H124233   7.340   1.649   3.673
 7997WAT     H224234   7.428   1.567   3.784
 7998WAT      O24235   0.823   8.029   7.025
 7998WAT     H124236   0.865   8.106   6.977
 7998WAT     H224237   0.725   8.028   7.009
 7999WAT      O24238   7.413   2.343   2.027
 7999WAT     H124239   7.367   2.273   2.082
 7999WAT     H224240   7.413   2.316   1.931
 8000WAT      O24241   9.720   7.451   1.597
 8000WAT     H124242   9.764   7.538   1.576
 8000WAT     H224243   9.703   7.401   1.512
 8001WAT      O24244   5.112   9.033   1.755
 8001WAT     H124245   5.094   9.122   1.796
 8001WAT     H224246   5.038   8.970   1.779
 8002WAT      O24247   6.261   0.380   9.845
 8002WAT     H124248   6.256   0.420   9.936
 8002WAT     H224249   6.207   0.296   9.843
 8003WAT      O24250   5.990   4.095   0.325
 8003WAT     H124251   6.055   4.164   0.357
 8003WAT     H224252   6.040   4.013   0.299
 8004WAT      O24253   7.647   0.901   8.128
 8004WAT     H124254   7.632   0.898   8.029
 8004WAT     H224255   7.575   0.851   8.175
 8005WAT      O24256   9.330   6.221   6.242
 8005WAT     H124257   9.327   6.175   6.153
 8005WAT     H224258   9.425   6.240   6.267
 8006WAT      O24259   2.746   6.943   8.149
 8006WAT     H124260   2.678   6.941   8.077
 8006WAT     H224261   2.719   7.010   8.219
 8007WAT      O24262   1.465   5.852   4.147
 8007WAT     H124263   1.475   5.926   4.214
 8007WAT     H224264   1.438   5.891   4.059
 8008WAT      O24265   4.306   3.296   2.996
 8008WAT     H124266   4.381   3.336   3.048
 8008WAT     H224267   4.320   3.312   2.898
 8009WAT      O24268   1.608   9.257   1.479
 8009WAT     H124269   1.600   9.232   1.382
 8009WAT     H224270   1.536   9.211   1.531
 8010WAT      O24271   9.272   4.316   4.479
 8010WAT     H124272   9.196   4.287   4.537
 8010WAT     H224273   9.348   4.348   4.536
 8011WAT      O24274   7.316   9.117   1.058
 8011WAT     H124275   7.336   9.024   1.089
 8011WAT     H224276   7.224   9.144   1.089
 8012WAT      O24277   4.812   0.270   6.954
 8012WAT     H124278   4.734   0.247   7.013
 8012WAT     H224279   4.785   0.262   6.858
 8013WAT      O24280   5.739   3.268   5.341
 8013WAT     H124281   5.744   3.357   5.295
 8013WAT     H224282   5.792   3.271   5.426
 8014WAT      O24283   2.294   9.105   9.862
 8014WAT     H124284   2.367   9.038   9.878
 8014WAT     H224285   2.284   9.120   9.763
 8015WAT      O24286   0.591   7.774   1.269
 8015WAT     H124287   0.559   7.682   1.248
 8015WAT     H224288   0.573   7.795   1.365
 8016WAT      O24289   7.869   7.808   8.461
 8016WAT     H124290   7.915   7.780   8.545
 8016WAT     H224291   7.937   7.820   8.388
 8017WAT      O24292   3.021   4.185   9.708
 8017WAT     H124293   2.976   4.198   9.619
 8017WAT     H224294   3.083   4.262   9.726
 8018WAT      O24295   7.972   3.768   6.201
 8018WAT     H124296   8.041   3.780   6.130
 8018WAT     H224297   7.957   3.670   6.216
 8019WAT      O24298   1.037   0.049   1.909
 8019WAT     H124299   1.020  -0.046   1.934
 8019WAT     H224300   1.101   0.090   1.974
 8020WAT      O24301   7.306   6.861   9.486
 8020WAT     H124302   7.375   6.928   9.514
 8020WAT     H224303   7.253   6.897   9.410
 8021WAT      O24304   6.395   4.699   4.621
 8021WAT     H124305   6.361   4.718   4.529
 8021WAT     H224306   6.492   4.675   4.617
 8022WAT      O24307   6.323   9.553   7.526
 8022WAT     H124308   6.328   9.487   7.601
 8022WAT     H224309   6.415   9.583   7.502
 8023WAT      O24310   6.315   4.197   6.008
 8023WAT     H124311   6.360   4.268   5.954
 8023WAT     H224312   6.383   4.137   6.050
 8024WAT      O24313   4.568   0.074   6.498
 8024WAT     H124314   4.497   0.133   6.538
 8024WAT     H224315   4.526   0.015   6.429
 8025WAT      O24316   4.456   7.681   6.946
 8025WAT     H124317   4.432   7.599   6.894
 8025WAT     H224318   4.545   7.668   6.989
 8026WAT      O24319   8.520   0.495   0.017
 8026WAT     H124320   8.439   0.437   0.023
 8026WAT     H224321   8.601   0.437   0.003
 8027WAT      O24322   4.217   3.854   5.364
 8027WAT     H124323   4.118   3.840   5.363
 8027WAT     H224324   4.257   3.806   5.441
 8028WAT      O24325   7.166   4.782   8.124
 8028WAT     H124326   7.187   4.829   8.038
 8028WAT     H224327   7.127   4.692   8.104
 8029WAT      O24328   8.242   8.428   1.072
 8029WAT     H124329   8.147   8.460   1.069
 8029WAT     H224330   8.295   8.475   1.001
 8030WAT      O24331   7.822   7.166   5.425
 8030WAT     H124332   7.906   7.140   5.473
 8030WAT     H224333   7.803   7.099   5.352
 8031WAT      O24334   9.015   9.698   8.249
 8031WAT     H124335   8.976   9.785   8.218
 8031WAT     H224336   8.951   9.653   8.312
 8032WAT      O24337   8.075   1.458   2.057
 8032WAT     H124338   8.130   1.500   1.984
 8032WAT     H224339   8.016   1.527   2.097
 8033WAT      O24340   4.128   4.950   9.732
 8033WAT     H124341   4.149   5.001   9.815
 8033WAT     H224342   4.169   4.858   9.739
 8034WAT      O24343   8.143   3.750   6.003
 8034WAT     H124344   8.192   3.676   6.050
 8034WAT     H224345   8.207   3.805   5.950
 8035WAT      O24346   3.094   3.677   5.708
 8035WAT     H124347   3.080   3.698   5.612
 8035WAT     H224348   3.021   3.615   5.739
 8036WAT      O24349   1.089   9.230   5.539
 8036WAT     H124350   1.105   9.237   5.441
 8036WAT     H224351   1.171   9.259   5.589
 8037WAT      O24352   1.836   4.222   3.360
 8037WAT     H124353   1.854   4.144   3.419
 8037WAT     H224354   1.782   4.192   3.281
 8038WAT      O24355   6.432   6.579   0.207
 8038WAT     H124356   6.343   6.621   0.229
 8038WAT     H224357   6.460   6.607   0.115
 8039WAT      O24358   9.200   2.346   2.478
 8039WAT     H124359   9.152   2.382   2.558
 8039WAT     H224360   9.150   2.267   2.442
 8040WAT      O24361   7.104   2.858   7.180
 8040WAT     H124362   7.114   2.913   7.263
 8040WAT     H224363   7.093   2.762   7.206
 8041WAT      O24364   3.639   2.679   4.083
 8041WAT     H124365   3.548   2.639   4.093
 8041WAT     H224366   3.672   2.709   4.173
 8042WAT      O24367   8.896   6.646   2.811
 8042WAT     H124368   8.939   6.558   2.830
 8042WAT     H224369   8.827   6.664   2.881
 8043WAT      O24370   2.620   8.254   4.381
 8043WAT     H124371   2.540   8.290   4.333
 8043WAT     H224372   2.613   8.274   4.478
 8044WAT      O24373   0.913   6.646   9.409
 8044WAT     H124374   1.009   6.636   9.383
 8044WAT     H224375   0.906   6.671   9.505
 8045WAT      O24376   5.205   4.339   0.236
 8045WAT     H124377   5.281   4.274   0.238
 8045WAT     H224378   5.119   4.291   0.256
 8046WAT      O24379   8.551   9.813   8.961
 8046WAT     H124380   8.512   9.845   8.875
 8046WAT     H224381   8.558   9.713   8.959
 8047WAT      O24382   9.767   2.533   0.040
 8047WAT     H124383   9.775   2.447   0.091
 8047WAT     H224384   9.671   2.558   0.031
 8048WAT      O24385   4.291   2.102   7.564
 8048WAT     H124386   4.247   2.050   7.637
 8048WAT     H224387   4.382   2.063   7.545
 8049WAT      O24388   4.782   3.511   7.731
 8049WAT     H124389   4.737   3.561   7.657
 8049WAT     H224390   4.862   3.562   7.762
 8050WAT      O24391   1.519   1.307   3.715
 8050WAT     H124392   1.491   1.222   3.760
 8050WAT     H224393   1.579   1.285   3.638
 8051WAT      O24394   1.118   0.567   1.077
 8051WAT     H124395   1.114   0.534   0.982
 8051WAT     H224396   1.169   0.501   1.132
 8052WAT      O24397   8.119   0.161   8.887
 8052WAT     H124398   8.032   0.190   8.848
 8052WAT     H224399   8.191   0.173   8.819
 8053WAT      O24400   0.780   1.840   3.315
 8053WAT     H124401   0.852   1.881   3.259
 8053WAT     H224402   0.705   1.905   3.325
 8054WAT      O24403   5.869   4.553   1.227
 8054WAT     H124404   5.856   4.514   1.136
 8054WAT     H224405   5.796   4.618   1.247
 8055WAT      O24406   0.326   1.303   0.059
 8055WAT     H124407   0.422   1.329   0.054
 8055WAT     H224408   0.309   1.228  -0.005
 8056WAT      O24409   6.353   8.640   2.336
 8056WAT     H124410   6.452   8.650   2.338
 8056WAT     H224411   6.329   8.549   2.301
 8057WAT      O24412   3.069   7.596   6.167
 8057WAT     H124413   3.155   7.638   6.196
 8057WAT     H224414   3.027   7.548   6.244
 8058WAT      O24415   3.713   4.850   1.414
 8058WAT     H124416   3.757   4.761   1.415
 8058WAT     H224417   3.778   4.919   1.384
 8059WAT      O24418   8.188   4.822   6.296
 8059WAT     H124419   8.233   4.902   6.335
 8059WAT     H224420   8.241   4.740   6.319
 8060WAT      O24421   0.249   5.266   7.124
 8060WAT     H124422   0.169   5.323   7.103
 8060WAT     H224423   0.237   5.177   7.081
 8061WAT      O24424   4.673   1.595   9.142
 8061WAT     H124425   4.653   1.666   9.074
 8061WAT     H224426   4.641   1.506   9.107
 8062WAT      O24427   4.191   6.264   9.206
 8062WAT     H124428   4.246   6.200   9.260
 8062WAT     H224429   4.161   6.220   9.121
 8063WAT      O24430   3.574   3.518   3.454
 8063WAT     H124431   3.549   3.555   3.365
 8063WAT     H224432   3.551   3.584   3.526
 8064WAT      O24433   3.690   4.531   8.537
 8064WAT     H124434   3.736   4.450   8.573
 8064WAT     H224435   3.595   4.532   8.568
 8065WAT      O24436   1.454   8.895   9.437
 8065WAT     H124437   1.529   8.878   9.501
 8065WAT     H224438   1.380   8.941   9.484
 8066WAT      O24439   0.053   1.226   3.032
 8066WAT     H124440   0.041   1.136   3.074
 8066WAT     H224441   0.098   1.215   2.944
 8067WAT      O24442   3.233   8.556   8.923
 8067WAT     H124443   3.296   8.479   8.928
 8067WAT     H224444   3.235   8.596   8.832
 8068WAT      O24445   5.846   7.984   2.159
 8068WAT     H124446   5.868   7.925   2.236
 8068WAT     H224447   5.764   8.037   2.180
 8069WAT      O24448   6.985   7.568   2.411
 8069WAT     H124449   6.933   7.541   2.330
 8069WAT     H224450   6.997   7.668   2.411
 8070WAT      O24451   4.453   2.590   6.414
 8070WAT     H124452   4.479   2.658   6.345
 8070WAT     H224453   4.504   2.505   6.398
 8071WAT      O24454   8.671   8.406   2.720
 8071WAT     H124455   8.704   8.312   2.727
 8071WAT     H224456   8.668   8.447   2.811
 8072WAT      O24457   4.481   8.335   1.735
 8072WAT     H124458   4.439   8.373   1.653
 8072WAT     H224459   4.450   8.240   1.747
 8073WAT      O24460   1.413   4.598   2.262
 8073WAT     H124461   1.371   4.687   2.284
 8073WAT     H224462   1.488   4.612   2.197
 8074WAT      O24463   6.203   0.925   6.809
 8074WAT     H124464   6.155   0.870   6.877
 8074WAT     H224465   6.203   1.021   6.837
 8075WAT      O24466   8.253   1.526   4.650
 8075WAT     H124467   8.282   1.590   4.721
 8075WAT     H224468   8.171   1.562   4.604
 8076WAT      O24469   9.585   3.893   1.292
 8076WAT     H124470   9.512   3.869   1.227
 8076WAT     H224471   9.605   3.814   1.350
 8077WAT      O24472   0.331   2.836   4.549
 8077WAT     H124473   0.308   2.750   4.593
 8077WAT     H224474   0.413   2.824   4.493
 8078WAT      O24475   6.323   6.841   7.484
 8078WAT     H124476   6.318   6.893   7.399
 8078WAT     H224477   6.280   6.752   7.471
 8079WAT      O24478   5.212   7.249   7.249
 8079WAT     H124479   5.177   7.343   7.244
 8079WAT     H224480   5.162   7.191   7.186
 8080WAT      O24481   7.189   3.555   3.702
 8080WAT     H124482   7.282   3.585   3.679
 8080WAT     H224483   7.191   3.461   3.734
 8081WAT      O24484   0.280   4.867   8.662
 8081WAT     H124485   0.369   4.840   8.625
 8081WAT     H224486   0.218   4.889   8.586
 8082WAT      O24487   9.268   2.995   0.068
 8082WAT     H124488   9.208   3.032   0.139
 8082WAT     H224489   9.241   2.901   0.047
 8083WAT      O24490   2.236   5.087   1.017
 8083WAT     H124491   2.265   4.998   1.053
 8083WAT     H224492   2.137   5.086   1.001
 8084WAT      O24493   2.596   0.956   1.744
 8084WAT     H124494   2.525   1.020   1.774
 8084WAT     H224495   2.631   0.983   1.655
 8085WAT      O24496   8.551   5.248   7.041
 8085WAT     H124497   8.509   5.186   7.108
 8085WAT     H224498   8.574   5.334   7.086
 8086WAT      O24499   4.180   4.071   4.118
 8086WAT     H124500   4.267   4.076   4.167
 8086WAT     H224501   4.184   4.132   4.038
 8087WAT      O24502   6.536   0.487   0.544
 8087WAT     H124503   6.586   0.454   0.464
 8087WAT     H224504   6.489   0.572   0.521
 8088WAT      O24505   5.921   3.048   3.084
 8088WAT     H124506   5.898   3.051   2.987
 8088WAT     H224507   5.847   3.005   3.135
 8089WAT      O24508   2.797   3.161   8.795
 8089WAT     H124509   2.814   3.139   8.699
 8089WAT     H224510   2.718   3.222   8.801
 8090WAT      O24511   4.795   2.645   7.562
 8090WAT     H124512   4.856   2.671   7.487
 8090WAT     H224513   4.758   2.554   7.545
 8091WAT      O24514   6.218   4.161   9.886
 8091WAT     H124515   6.147   4.092   9.903
 8091WAT     H224516   6.275   4.131   9.810
 8092WAT      O24517   4.329   3.186   9.368
 8092WAT     H124518   4.275   3.194   9.451
 8092WAT     H224519   4.329   3.274   9.320
 8093WAT      O24520   8.862   7.861   8.793
 8093WAT     H124521   8.783   7.800   8.784
 8093WAT     H224522   8.833   7.950   8.827
 8094WAT      O24523   0.102   9.454   8.030
 8094WAT     H124524   0.169   9.425   8.099
 8094WAT     H224525   0.088   9.553   8.036
 8095WAT      O24526   8.026   1.141   7.966
 8095WAT     H124527   8.065   1.215   7.912
 8095WAT     H224528   8.031   1.055   7.915
 8096WAT      O24529   2.752   1.775   8.689
 8096WAT     H124530   2.664   1.760   8.734
 8096WAT     H224531   2.767   1.873   8.676
 8097WAT      O24532   7.327   7.457   2.330
 8097WAT     H124533   7.296   7.456   2.425
 8097WAT     H224534   7.393   7.383   2.315
 8098WAT      O24535   1.806   1.984   7.070
 8098WAT     H124536   1.746   2.024   7.140
 8098WAT     H224537   1.754   1.918   7.016
 8099WAT      O24538   1.928   2.462   4.754
 8099WAT     H124539   1.919   2.509   4.842
 8099WAT     H224540   1.844   2.474   4.701
 8100WAT      O24541   4.214   8.859   9.229
 8100WAT     H124542   4.159   8.849   9.312
 8100WAT     H224543   4.306   8.824   9.245
 8101WAT      O24544   8.174   8.420   0.003
 8101WAT     H124545   8.252   8.434  -0.058
 8101WAT     H224546   8.188   8.336   0.056
 8102WAT      O24547   5.418   8.235   6.735
 8102WAT     H124548   5.344   8.176   6.701
 8102WAT     H224549   5.482   8.181   6.788
 8103WAT      O24550   1.041   9.396   9.785
 8103WAT     H124551   1.125   9.342   9.781
 8103WAT     H224552   1.042   9.454   9.867
 8104WAT      O24553   2.416   5.822   3.812
 8104WAT     H124554   2.495   5.813   3.872
 8104WAT     H224555   2.369   5.908   3.831
 8105WAT      O24556   5.419   9.050   0.783
 8105WAT     H124557   5.430   9.123   0.850
 8105WAT     H224558   5.398   9.090   0.693
 8106WAT      O24559   7.895   2.060   6.830
 8106WAT     H124560   7.965   2.016   6.885
 8106WAT     H224561   7.834   1.991   6.791
 8107WAT      O24562   5.960   4.968   3.573
 8107WAT     H124563   5.966   5.015   3.662
 8107WAT     H224564   6.019   5.014   3.507
 8108WAT      O24565   6.992   1.526   5.661
 8108WAT     H124566   6.937   1.589   5.606
 8108WAT     H224567   7.079   1.509   5.614
 8109WAT      O24568   8.338   5.850   0.279
 8109WAT     H124569   8.246   5.864   0.243
 8109WAT     H224570   8.385   5.937   0.285
 8110WAT      O24571   0.094   8.154   2.693
 8110WAT     H124572   0.156   8.232   2.701
 8110WAT     H224573   0.147   8.069   2.690
 8111WAT      O24574   8.033   1.239   1.886
 8111WAT     H124575   8.045   1.323   1.940
 8111WAT     H224576   8.061   1.256   1.791
 8112WAT      O24577   5.709   9.178   4.186
 8112WAT     H124578   5.726   9.275   4.174
 8112WAT     H224579   5.713   9.155   4.283
 8113WAT      O24580   3.457   9.165   7.564
 8113WAT     H124581   3.471   9.124   7.654
 8113WAT     H224582   3.366   9.207   7.559
 8114WAT      O24583   2.193   8.827   7.083
 8114WAT     H124584   2.205   8.913   7.033
 8114WAT     H224585   2.252   8.757   7.043
 8115WAT      O24586   8.557   1.592   7.287
 8115WAT     H124587   8.654   1.619   7.287
 8115WAT     H224588   8.500   1.673   7.275
 8116WAT      O24589   1.640   6.874   6.186
 8116WAT     H124590   1.729   6.914   6.163
 8116WAT     H224591   1.567   6.927   6.142
 8117WAT      O24592   9.048   1.215   2.753
 8117WAT     H124593   9.053   1.196   2.851
 8117WAT     H224594   9.099   1.146   2.702
 8118WAT      O24595   6.851   3.510   1.343
 8118WAT     H124596   6.921   3.522   1.273
 8118WAT     H224597   6.835   3.597   1.390
 8119WAT      O24598   1.595   6.563   4.702
 8119WAT     H124599   1.571   6.481   4.753
 8119WAT     H224600   1.545   6.641   4.740
 8120WAT      O24601   3.554   6.637   5.374
 8120WAT     H124602   3.502   6.562   5.415
 8120WAT     H224603   3.532   6.645   5.277
 8121WAT      O24604   1.501   7.538   2.509
 8121WAT     H124605   1.445   7.537   2.592
 8121WAT     H224606   1.596   7.514   2.532
 8122WAT      O24607   0.829   5.235   2.354
 8122WAT     H124608   0.778   5.199   2.432
 8122WAT     H224609   0.925   5.246   2.380
 8123WAT      O24610   4.863   9.076   9.053
 8123WAT     H124611   4.865   9.059   8.954
 8123WAT     H224612   4.906   9.164   9.072
 8124WAT      O24613   0.537   1.475   0.513
 8124WAT     H124614   0.522   1.431   0.602
 8124WAT     H224615   0.459   1.456   0.453
 8125WAT      O24616   7.089   6.501   5.872
 8125WAT     H124617   7.084   6.498   5.972
 8125WAT     H224618   7.150   6.575   5.844
 8126WAT      O24619   5.594   5.354   6.615
 8126WAT     H124620   5.528   5.423   6.645
 8126WAT     H224621   5.651   5.325   6.692
 8127WAT      O24622   9.229   8.842   7.893
 8127WAT     H124623   9.309   8.889   7.932
 8127WAT     H224624   9.168   8.909   7.852
 8128WAT      O24625   6.133   5.536   3.205
 8128WAT     H124626   6.210   5.478   3.230
 8128WAT     H224627   6.047   5.492   3.233
 8129WAT      O24628   8.920   3.118   3.914
 8129WAT     H124629   8.896   3.090   3.822
 8129WAT     H224630   8.963   3.041   3.962
 8130WAT      O24631   5.582   3.751   9.553
 8130WAT     H124632   5.554   3.744   9.649
 8130WAT     H224633   5.601   3.846   9.530
 8131WAT      O24634   0.687   3.432   9.666
 8131WAT     H124635   0.781   3.446   9.696
 8131WAT     H224636   0.683   3.354   9.604
 8132WAT      O24637   9.786   1.700   3.795
 8132WAT     H124638   9.795   1.692   3.894
 8132WAT     H224639   9.849   1.637   3.751
 8133WAT      O24640   2.163   7.984   6.174
 8133WAT     H124641   2.110   7.903   6.199
 8133WAT     H224642   2.101   8.053   6.136
 8134WAT      O24643   0.271   2.839   5.119
 8134WAT     H124644   0.332   2.789   5.181
 8134WAT     H224645   0.319   2.921   5.086
 8135WAT      O24646   3.461   3.619   2.109
 8135WAT     H124647   3.443   3.713   2.079
 8135WAT     H224648   3.377   3.581   2.149
 8136WAT      O24649   6.952   5.179   6.143
 8136WAT     H124650   6.939   5.261   6.198
 8136WAT     H224651   7.046   5.176   6.108
 8137WAT      O24652   2.525   1.672   4.485
 8137WAT     H124653   2.498   1.587   4.439
 8137WAT     H224654   2.622   1.667   4.509
 8138WAT      O24655   6.914   9.192   3.751
 8138WAT     H124656   6.878   9.100   3.762
 8138WAT     H224657   7.013   9.189   3.739
 8139WAT      O24658   8.289   8.108   6.634
 8139WAT     H124659   8.269   8.014   6.606
 8139WAT     H224660   8.288   8.114   6.733
 8140WAT      O24661   4.018   5.296   3.633
 8140WAT     H124662   4.043   5.375   3.576
 8140WAT     H224663   4.066   5.215   3.600
 8141WAT      O24664   9.836   9.269   3.815
 8141WAT     H124665   9.781   9.301   3.892
 8141WAT     H224666   9.929   9.304   3.823
 8142WAT      O24667   4.632   2.510   7.300
 8142WAT     H124668   4.718   2.527   7.253
 8142WAT     H224669   4.577   2.593   7.301
 8143WAT      O24670   5.482   4.924   0.764
 8143WAT     H124671   5.458   4.885   0.853
 8143WAT     H224672   5.422   4.886   0.694
 8144WAT      O24673   9.460   2.358   4.049
 8144WAT     H124674   9.520   2.312   3.983
 8144WAT     H224675   9.515   2.418   4.107
 8145WAT      O24676   1.603   7.492   8.773
 8145WAT     H124677   1.574   7.491   8.678
 8145WAT     H224678   1.702   7.486   8.778
 8146WAT      O24679   9.432   7.632   5.036
 8146WAT     H124680   9.483   7.715   5.011
 8146WAT     H224681   9.432   7.569   4.958
 8147WAT      O24682   3.456   3.182   2.369
 8147WAT     H124683   3.365   3.147   2.347
 8147WAT     H224684   3.501   3.120   2.433
 8148WAT      O24685   0.840   8.538   2.258
 8148WAT     H124686   0.819   8.483   2.177
 8148WAT     H224687   0.939   8.542   2.270
 8149WAT      O24688   4.116   5.730   3.445
 8149WAT     H124689   4.043   5.665   3.428
 8149WAT     H224690   4.089   5.792   3.519
 8150WAT      O24691   0.280   0.687   0.560
 8150WAT     H124692   0.237   0.613   0.610
 8150WAT     H224693   0.221   0.714   0.483
 8151WAT      O24694   3.977   0.410   6.246
 8151WAT     H124695   3.899   0.348   6.247
 8151WAT     H224696   3.956   0.488   6.187
 8152WAT      O24697   4.603   6.408   6.354
 8152WAT     H124698   4.646   6.321   6.378
 8152WAT     H224699   4.505   6.393   6.337
 8153WAT      O24700   5.335   2.835   3.286
 8153WAT     H124701   5.344   2.749   3.336
 8153WAT     H224702   5.353   2.819   3.189
 8154WAT      O24703   3.493   5.976   4.061
 8154WAT     H124704   3.404   5.963   4.018
 8154WAT     H224705   3.500   5.917   4.142
 8155WAT      O24706   4.255   7.268   5.181
 8155WAT     H124707   4.206   7.353   5.200
 8155WAT     H224708   4.311   7.279   5.099
 8156WAT      O24709   2.457   8.058   7.502
 8156WAT     H124710   2.450   8.028   7.597
 8156WAT     H224711   2.537   8.116   7.491
 8157WAT      O24712   7.403   4.702   8.846
 8157WAT     H124713   7.350   4.780   8.813
 8157WAT     H224714   7.455   4.729   8.927
 8158WAT      O24715   3.518   8.123   9.887
 8158WAT     H124716   3.475   8.104   9.798
 8158WAT     H224717   3.506   8.220   9.909
 8159WAT      O24718   1.905   9.826   9.719
 8159WAT     H124719   1.947   9.739   9.695
 8159WAT     H224720   1.965   9.875   9.783
 8160WAT      O24721   8.866   2.137   1.274
 8160WAT     H124722   8.839   2.091   1.190
 8160WAT     H224723   8.871   2.235   1.258
 8161WAT      O24724   5.478   6.697   0.142
 8161WAT     H124725   5.496   6.741   0.054
 8161WAT     H224726   5.422   6.616   0.127
 8162WAT      O24727   4.100   9.102   5.132
 8162WAT     H124728   4.034   9.127   5.203
 8162WAT     H224729   4.150   9.020   5.160
 8163WAT      O24730   1.229   7.624   3.086
 8163WAT     H124731   1.241   7.619   2.986
 8163WAT     H224732   1.272   7.708   3.120
 8164WAT      O24733   7.438   9.181   5.149
 8164WAT     H124734   7.429   9.100   5.207
 8164WAT     H224735   7.366   9.180   5.079
 8165WAT      O24736   7.687   0.705   4.321
 8165WAT     H124737   7.760   0.658   4.272
 8165WAT     H224738   7.709   0.707   4.419
 8166WAT      O24739   0.082   1.768   9.596
 8166WAT     H124740   0.087   1.866   9.616
 8166WAT     H224741   0.170   1.737   9.560
 8167WAT      O24742   4.358   8.547   1.863
 8167WAT     H124743   4.408   8.476   1.814
 8167WAT     H224744   4.374   8.635   1.818
 8168WAT      O24745   5.967   9.175   8.494
 8168WAT     H124746   5.997   9.137   8.407
 8168WAT     H224747   6.026   9.252   8.519
 8169WAT      O24748   5.208   9.270   0.739
 8169WAT     H124749   5.146   9.194   0.759
 8169WAT     H224750   5.156   9.348   0.705
 8170WAT      O24751   3.364   6.553   8.706
 8170WAT     H124752   3.289   6.578   8.767
 8170WAT     H224753   3.431   6.627   8.705
 8171WAT      O24754   6.390   9.035   6.760
 8171WAT     H124755   6.414   9.088   6.841
 8171WAT     H224756   6.304   8.987   6.776
 8172WAT      O24757   1.190   8.993   4.157
 8172WAT     H124758   1.280   8.958   4.184
 8172WAT     H224759   1.138   8.921   4.113
 8173WAT      O24760   6.133   0.742   1.903
 8173WAT     H124761   6.085   0.824   1.875
 8173WAT     H224762   6.199   0.764   1.976
 8174WAT      O24763   9.362   6.130   0.253
 8174WAT     H124764   9.402   6.088   0.171
 8174WAT     H224765   9.434   6.171   0.308
 8175WAT      O24766   4.810   0.916   1.751
 8175WAT     H124767   4.735   0.957   1.699
 8175WAT     H224768   4.858   0.987   1.802
 8176WAT      O24769   3.988   4.982   0.906
 8176WAT     H124770   4.079   4.971   0.866
 8176WAT     H224771   3.928   5.030   0.842
 8177WAT      O24772   1.614   9.735   6.277
 8177WAT     H124773   1.712   9.746   6.265
 8177WAT     H224774   1.581   9.798   6.347
 8178WAT      O24775   4.708   2.068   4.347
 8178WAT     H124776   4.738   1.985   4.395
 8178WAT     H224777   4.621   2.051   4.302
 8179WAT      O24778   4.552   0.326   8.880
 8179WAT     H124779   4.601   0.410   8.859
 8179WAT     H224780   4.603   0.248   8.844
 8180WAT      O24781   0.827   1.638   5.944
 8180WAT     H124782   0.907   1.605   5.996
 8180WAT     H224783   0.749   1.578   5.962
 8181WAT      O24784   0.931   3.104   6.037
 8181WAT     H124785   0.857   3.049   6.075
 8181WAT     H224786   0.994   3.045   5.986
 8182WAT      O24787   7.272   4.861   9.510
 8182WAT     H124788   7.230   4.928   9.450
 8182WAT     H224789   7.256   4.887   9.606
 8183WAT      O24790   3.476   1.239   3.502
 8183WAT     H124791   3.564   1.283   3.484
 8183WAT     H224792   3.449   1.253   3.597
 8184WAT      O24793   9.294   5.110   3.784
 8184WAT     H124794   9.335   5.200   3.799
 8184WAT     H224795   9.328   5.046   3.852
 8185WAT      O24796   8.023   7.799   4.177
 8185WAT     H124797   8.110   7.752   4.165
 8185WAT     H224798   7.967   7.750   4.243
 8186WAT      O24799   2.213   7.553   5.810
 8186WAT     H124800   2.219   7.620   5.883
 8186WAT     H224801   2.138   7.490   5.829
 8187WAT      O24802   3.496   8.536   9.323
 8187WAT     H124803   3.447   8.465   9.375
 8187WAT     H224804   3.594   8.515   9.324
 8188WAT      O24805   9.778   5.657   2.808
 8188WAT     H124806   9.756   5.672   2.905
 8188WAT     H224807   9.833   5.734   2.774
 8189WAT      O24808   3.280   7.775   3.626
 8189WAT     H124809   3.279   7.684   3.586
 8189WAT     H224810   3.310   7.842   3.558
 8190WAT      O24811   9.804   4.759   7.287
 8190WAT     H124812   9.834   4.758   7.383
 8190WAT     H224813   9.834   4.844   7.245
 8191WAT      O24814   9.347   6.079   3.301
 8191WAT     H124815   9.292   6.162   3.292
 8191WAT     H224816   9.442   6.104   3.323
 8192WAT      O24817   6.498   6.774   1.424
 8192WAT     H124818   6.447   6.711   1.365
 8192WAT     H224819   6.443   6.856   1.439
 8193WAT      O24820   5.534   3.917   3.688
 8193WAT     H124821   5.584   3.941   3.771
 8193WAT     H224822   5.581   3.840   3.643
 8194WAT      O24823   7.014   5.954   4.593
 8194WAT     H124824   6.997   5.894   4.671
 8194WAT     H224825   7.012   6.049   4.623
 8195WAT      O24826   3.862   3.778   9.414
 8195WAT     H124827   3.958   3.758   9.436
 8195WAT     H224828   3.832   3.721   9.338
 8196WAT      O24829   1.790   7.079   5.249
 8196WAT     H124830   1.713   7.027   5.286
 8196WAT     H224831   1.831   7.029   5.173
 8197WAT      O24832   6.601   6.755   4.280
 8197WAT     H124833   6.533   6.682   4.269
 8197WAT     H224834   6.676   6.722   4.337
 8198WAT      O24835   3.718   1.354   8.198
 8198WAT     H124836   3.750   1.448   8.190
 8198WAT     H224837   3.756   1.299   8.123
 8199WAT      O24838   5.899   1.578   5.632
 8199WAT     H124839   5.882   1.491   5.586
 8199WAT     H224840   5.892   1.652   5.565
 8200WAT      O24841   6.031   0.166   7.922
 8200WAT     H124842   6.003   0.088   7.978
 8200WAT     H224843   6.085   0.229   7.978
 8201WAT      O24844   0.008   1.937   3.728
 8201WAT     H124845   0.005   1.959   3.631
 8201WAT     H224846  -0.053   1.860   3.747
 8202WAT      O24847   9.452   6.474   3.347
 8202WAT     H124848   9.395   6.531   3.407
 8202WAT     H224849   9.548   6.500   3.358
 8203WAT      O24850   5.954   1.583   2.496
 8203WAT     H124851   6.009   1.620   2.571
 8203WAT     H224852   6.013   1.529   2.435
 8204WAT      O24853   6.655   7.511   0.949
 8204WAT     H124854   6.580   7.549   1.003
 8204WAT     H224855   6.617   7.457   0.873
 8205WAT      O24856   6.273   1.545   1.405
 8205WAT     H124857   6.317   1.487   1.336
 8205WAT     H224858   6.188   1.583   1.367
 8206WAT      O24859   5.625   9.038   0.259
 8206WAT     H124860   5.615   9.068   0.354
 8206WAT     H224861   5.722   9.043   0.233
 8207WAT      O24862   7.085   3.411   3.433
 8207WAT     H124863   7.158   3.451   3.377
 8207WAT     H224864   7.125   3.342   3.493
 8208WAT      O24865   0.950   8.093   9.509
 8208WAT     H124866   1.000   8.067   9.592
 8208WAT     H224867   0.974   8.031   9.435
 8209WAT      O24868   0.678   5.839   6.531
 8209WAT     H124869   0.699   5.934   6.508
 8209WAT     H224870   0.742   5.806   6.600
 8210WAT      O24871   2.351   9.248   8.837
 8210WAT     H124872   2.309   9.300   8.911
 8210WAT     H224873   2.432   9.200   8.872
 8211WAT      O24874   7.122   6.709   5.176
 8211WAT     H124875   7.143   6.721   5.079
 8211WAT     H224876   7.035   6.752   5.198
 8212WAT      O24877   2.526   2.577   4.513
 8212WAT     H124878   2.494   2.670   4.498
 8212WAT     H224879   2.520   2.525   4.428
 8213WAT      O24880   2.272   4.793   6.035
 8213WAT     H124881   2.215   4.790   5.953
 8213WAT     H224882   2.292   4.888   6.058
 8214WAT      O24883   4.132   2.821   8.109
 8214WAT     H124884   4.184   2.844   8.027
 8214WAT     H224885   4.153   2.727   8.136
 8215WAT      O24886   4.497   5.595   2.260
 8215WAT     H124887   4.472   5.546   2.344
 8215WAT     H224888   4.589   5.567   2.232
 8216WAT      O24889   6.109   4.659   6.458
 8216WAT     H124890   6.033   4.628   6.400
 8216WAT     H224891   6.114   4.603   6.540
 8217WAT      O24892   6.192   2.920   3.210
 8217WAT     H124893   6.260   2.883   3.146
 8217WAT     H224894   6.124   2.973   3.159
 8218WAT      O24895   4.342   1.553   3.320
 8218WAT     H124896   4.344   1.616   3.243
 8218WAT     H224897   4.435   1.533   3.350
 8219WAT      O24898   0.352   0.579   7.898
 8219WAT     H124899   0.358   0.540   7.990
 8219WAT     H224900   0.343   0.679   7.905
 8220WAT      O24901   5.085   9.492   0.619
 8220WAT     H124902   5.161   9.545   0.656
 8220WAT     H224903   5.102   9.470   0.523
 8221WAT      O24904   5.899   8.456   2.280
 8221WAT     H124905   5.900   8.556   2.282
 8221WAT     H224906   5.839   8.424   2.207
 8222WAT      O24907   7.527   2.087   4.164
 8222WAT     H124908   7.468   2.166   4.181
 8222WAT     H224909   7.565   2.094   4.072
 8223WAT      O24910   3.227   1.451   8.584
 8223WAT     H124911   3.159   1.378   8.579
 8223WAT     H224912   3.193   1.532   8.535
 8224WAT      O24913   4.672   0.962   1.125
 8224WAT     H124914   4.772   0.968   1.125
 8224WAT     H224915   4.640   0.931   1.215
 8225WAT      O24916   5.538   4.708   1.806
 8225WAT     H124917   5.593   4.702   1.722
 8225WAT     H224918   5.597   4.690   1.885
 8226WAT      O24919   1.375   2.363   9.015
 8226WAT     H124920   1.442   2.290   9.004
 8226WAT     H224921   1.377   2.396   9.110
 8227WAT      O24922   0.124   0.976   1.409
 8227WAT     H124923   0.116   0.883   1.446
 8227WAT     H224924   0.203   1.022   1.451
 8228WAT      O24925   9.101   1.262   1.484
 8228WAT     H124926   9.161   1.254   1.405
 8228WAT     H224927   9.037   1.184   1.485
 8229WAT      O24928   9.373   2.975   7.118
 8229WAT     H124929   9.420   3.053   7.158
 8229WAT     H224930   9.277   2.997   7.101
 8230WAT      O24931   2.944   4.261   2.729
 8230WAT     H124932   2.864   4.288   2.783
 8230WAT     H224933   2.915   4.238   2.636
 8231WAT      O24934   3.841   1.562   0.319
 8231WAT     H124935   3.876   1.640   0.372
 8231WAT     H224936   3.774   1.595   0.253
 8232WAT      O24937   5.557   1.080   2.258
 8232WAT     H124938   5.578   1.174   2.231
 8232WAT     H224939   5.637   1.022   2.241
 8233WAT      O24940   5.681   9.524   7.285
 8233WAT     H124941   5.778   9.547   7.270
 8233WAT     H224942   5.651   9.564   7.371
 8234WAT      O24943   7.166   1.250   5.023
 8234WAT     H124944   7.106   1.198   4.962
 8234WAT     H224945   7.158   1.214   5.116
 8235WAT      O24946   1.723   7.598   1.575
 8235WAT     H124947   1.779   7.581   1.494
 8235WAT     H224948   1.678   7.687   1.567
 8236WAT      O24949   1.136   4.241   9.107
 8236WAT     H124950   1.139   4.308   9.181
 8236WAT     H224951   1.094   4.157   9.139
 8237WAT      O24952   7.946   7.317   4.240
 8237WAT     H124953   8.037   7.351   4.263
 8237WAT     H224954   7.950   7.218   4.228
 8238WAT      O24955   6.679   3.336   9.469
 8238WAT     H124956   6.641   3.418   9.512
 8238WAT     H224957   6.724   3.279   9.537
 8239WAT      O24958   7.812   2.166   1.418
 8239WAT     H124959   7.897   2.172   1.365
 8239WAT     H224960   7.800   2.072   1.451
 8240WAT      O24961   0.957   8.584   4.307
 8240WAT     H124962   0.902   8.668   4.302
 8240WAT     H224963   0.983   8.567   4.402
 8241WAT      O24964   6.941   7.863   6.377
 8241WAT     H124965   6.897   7.945   6.413
 8241WAT     H224966   7.021   7.889   6.323
 8242WAT      O24967   8.400   0.105   4.090
 8242WAT     H124968   8.303   0.082   4.079
 8242WAT     H224969   8.456   0.035   4.046
 8243WAT      O24970   7.090   5.227   1.423
 8243WAT     H124971   7.163   5.159   1.427
 8243WAT     H224972   7.092   5.283   1.506
 8244WAT      O24973   6.327   5.441   3.399
 8244WAT     H124974   6.266   5.501   3.451
 8244WAT     H224975   6.421   5.475   3.405
 8245WAT      O24976   8.482   0.514   5.639
 8245WAT     H124977   8.577   0.492   5.662
 8245WAT     H224978   8.479   0.604   5.596
 8246WAT      O24979   5.042   3.408   4.854
 8246WAT     H124980   5.076   3.316   4.876
 8246WAT     H224981   4.964   3.430   4.912
 8247WAT      O24982   3.969   5.825   0.120
 8247WAT     H124983   4.031   5.807   0.196
 8247WAT     H224984   3.984   5.757   0.048
 8248WAT      O24985   8.859   7.494   6.180
 8248WAT     H124986   8.776   7.441   6.160
 8248WAT     H224987   8.893   7.471   6.271
 8249WAT      O24988   7.828   9.085   3.538
 8249WAT     H124989   7.855   9.031   3.459
 8249WAT     H224990   7.786   9.024   3.606
 8250WAT      O24991   7.046   5.356   0.944
 8250WAT     H124992   7.070   5.349   1.041
 8250WAT     H224993   7.047   5.453   0.917
 8251WAT      O24994   6.132   0.474   0.432
 8251WAT     H124995   6.183   0.398   0.472
 8251WAT     H224996   6.153   0.558   0.481
 8252WAT      O24997   8.457   6.462   6.385
 8252WAT     H124998   8.492   6.370   6.366
 8252WAT     H224999   8.359   6.458   6.400
 8253WAT      O25000   4.241   9.788   2.112
 8253WAT     H125001   4.273   9.697   2.136
 8253WAT     H225002   4.237   9.797   2.013
 8254WAT      O25003   3.981   6.115   9.470
 8254WAT     H125004   3.915   6.175   9.425
 8254WAT     H225005   4.054   6.169   9.511
 8255WAT      O25006   3.386   4.737   9.016
 8255WAT     H125007   3.375   4.701   9.109
 8255WAT     H225008   3.433   4.825   9.020
 8256WAT      O25009   6.439   2.008   5.972
 8256WAT     H125010   6.437   2.100   6.011
 8256WAT     H225011   6.349   1.966   5.982
 8257WAT      O25012   9.072   5.962   0.247
 8257WAT     H125013   9.156   5.945   0.299
 8257WAT     H225014   9.026   6.043   0.282
 8258WAT      O25015   3.327   8.963   7.922
 8258WAT     H125016   3.419   8.986   7.892
 8258WAT     H225017   3.264   9.037   7.897
 8259WAT      O25018   8.354   5.905   6.758
 8259WAT     H125019   8.347   5.992   6.808
 8259WAT     H225020   8.446   5.868   6.769
 8260WAT      O25021   4.944   2.839   3.344
 8260WAT     H125022   4.892   2.895   3.408
 8260WAT     H225023   5.025   2.802   3.389
 8261WAT      O25024   0.280   1.845   2.157
 8261WAT     H125025   0.237   1.840   2.067
 8261WAT     H225026   0.275   1.938   2.192
 8262WAT      O25027   0.046   5.911   9.850
 8262WAT     H125028   0.013   5.868   9.934
 8262WAT     H225029  -0.029   5.957   9.803
 8263WAT      O25030   6.793   8.847   8.883
 8263WAT     H125031   6.751   8.828   8.972
 8263WAT     H225032   6.777   8.943   8.859
 8264WAT      O25033   8.086   7.335   7.196
 8264WAT     H125034   8.186   7.341   7.194
 8264WAT     H225035   8.051   7.384   7.275
 8265WAT      O25036   3.750   4.991   6.156
 8265WAT     H125037   3.671   4.977   6.216
 8265WAT     H225038   3.748   4.924   6.082
 8266WAT      O25039   8.668   9.217   3.635
 8266WAT     H125040   8.576   9.250   3.655
 8266WAT     H225041   8.733   9.293   3.638
 8267WAT      O25042   8.195   4.393   6.525
 8267WAT     H125043   8.181   4.294   6.527
 8267WAT     H225044   8.114   4.437   6.487
 8268WAT      O25045   9.512   5.942   7.281
 8268WAT     H125046   9.483   5.957   7.376
 8268WAT     H225047   9.474   6.015   7.223
 8269WAT      O25048   8.514   1.444   5.580
 8269WAT     H125049   8.489   1.368   5.639
 8269WAT     H225050   8.614   1.453   5.577
 8270WAT      O25051   0.850   6.312   4.853
 8270WAT     H125052   0.805   6.242   4.798
 8270WAT     H225053   0.807   6.401   4.836
 8271WAT      O25054   3.564   1.532   3.390
 8271WAT     H125055   3.617   1.514   3.472
 8271WAT     H225056   3.606   1.487   3.312
 8272WAT      O25057   8.397   1.353   3.751
 8272WAT     H125058   8.459   1.426   3.725
 8272WAT     H225059   8.413   1.273   3.694
 8273WAT      O25060   6.334   6.000   2.329
 8273WAT     H125061   6.249   5.976   2.282
 8273WAT     H225062   6.344   5.943   2.411
 8274WAT      O25063   1.869   5.560   4.127
 8274WAT     H125064   1.877   5.463   4.151
 8274WAT     H225065   1.959   5.599   4.114
 8275WAT      O25066   2.834   4.448   7.225
 8275WAT     H125067   2.890   4.506   7.284
 8275WAT     H225068   2.856   4.467   7.129
 8276WAT      O25069   8.586   6.826   2.430
 8276WAT     H125070   8.622   6.835   2.337
 8276WAT     H225071   8.562   6.916   2.466
 8277WAT      O25072   8.737   2.754   9.246
 8277WAT     H125073   8.643   2.777   9.221
 8277WAT     H225074   8.799   2.826   9.215
 8278WAT      O25075   8.077   8.846   8.806
 8278WAT     H125076   8.085   8.945   8.794
 8278WAT     H225077   7.988   8.824   8.847
 8279WAT      O25078   1.212   0.314   6.124
 8279WAT     H125079   1.122   0.325   6.083
 8279WAT     H225080   1.203   0.304   6.223
 8280WAT      O25081   6.762   6.519   6.823
 8280WAT     H125082   6.672   6.477   6.834
 8280WAT     H225083   6.813   6.509   6.909
 8281WAT      O25084   4.904   0.109   2.246
 8281WAT     H125085   4.960   0.176   2.295
 8281WAT     H225086   4.807   0.128   2.263
 8282WAT      O25087   7.639   1.489   8.305
 8282WAT     H125088   7.722   1.534   8.273
 8282WAT     H225089   7.582   1.465   8.226
 8283WAT      O25090   0.285   1.041   6.485
 8283WAT     H125091   0.299   1.001   6.395
 8283WAT     H225092   0.189   1.067   6.497
 8284WAT      O25093   6.059   0.368   4.991
 8284WAT     H125094   6.105   0.342   5.075
 8284WAT     H225095   5.963   0.342   4.995
 8285WAT      O25096   7.842   6.224   6.390
 8285WAT     H125097   7.830   6.172   6.475
 8285WAT     H225098   7.920   6.186   6.340
 8286WAT      O25099   3.297   6.227   7.002
 8286WAT     H125100   3.248   6.198   6.919
 8286WAT     H225101   3.325   6.322   6.992
 8287WAT      O25102   8.932   6.679   7.827
 8287WAT     H125103   8.925   6.622   7.745
 8287WAT     H225104   8.992   6.636   7.894
 8288WAT      O25105   7.387   5.014   1.931
 8288WAT     H125106   7.375   4.915   1.946
 8288WAT     H225107   7.297   5.058   1.929
 8289WAT      O25108   9.264   9.741   3.737
 8289WAT     H125109   9.214   9.675   3.681
 8289WAT     H225110   9.296   9.817   3.679
 8290WAT      O25111   9.778   2.655   8.846
 8290WAT     H125112   9.830   2.740   8.833
 8290WAT     H225113   9.834   2.577   8.817
 8291WAT      O25114   0.033   0.237   5.688
 8291WAT     H125115   0.029   0.270   5.594
 8291WAT     H225116   0.126   0.208   5.710
 8292WAT      O25117   1.349   9.584   6.650
 8292WAT     H125118   1.328   9.504   6.707
 8292WAT     H225119   1.357   9.665   6.709
 8293WAT      O25120   1.247   9.745   1.471
 8293WAT     H125121   1.324   9.732   1.534
 8293WAT     H225122   1.203   9.657   1.453
 8294WAT      O25123   2.581   5.927   2.907
 8294WAT     H125124   2.680   5.939   2.898
 8294WAT     H225125   2.541   6.009   2.947
 8295WAT      O25126   4.071   4.081   2.846
 8295WAT     H125127   4.029   4.151   2.904
 8295WAT     H225128   4.074   3.995   2.896
 8296WAT      O25129   7.896   1.886   0.945
 8296WAT     H125130   7.914   1.976   0.905
 8296WAT     H225131   7.912   1.815   0.876
 8297WAT      O25132   4.418   5.233   8.717
 8297WAT     H125133   4.399   5.243   8.619
 8297WAT     H225134   4.479   5.155   8.731
 8298WAT      O25135   4.436   2.708   7.355
 8298WAT     H125136   4.478   2.738   7.269
 8298WAT     H225137   4.485   2.748   7.432
 8299WAT      O25138   1.427   2.747   5.702
 8299WAT     H125139   1.376   2.720   5.620
 8299WAT     H225140   1.373   2.728   5.783
 8300WAT      O25141   8.156   2.267   8.246
 8300WAT     H125142   8.100   2.344   8.213
 8300WAT     H225143   8.205   2.295   8.328
 8301WAT      O25144   5.241   6.117   0.054
 8301WAT     H125145   5.250   6.144   0.150
 8301WAT     H225146   5.158   6.157   0.016
 8302WAT      O25147   1.888   0.014   3.364
 8302WAT     H125148   1.961   0.080   3.379
 8302WAT     H225149   1.825   0.049   3.295
 8303WAT      O25150   1.439   3.142   8.803
 8303WAT     H125151   1.405   3.228   8.842
 8303WAT     H225152   1.416   3.138   8.706
 8304WAT      O25153   0.718   6.760   7.044
 8304WAT     H125154   0.784   6.833   7.028
 8304WAT     H225155   0.757   6.693   7.106
 8305WAT      O25156   6.364   2.870   2.983
 8305WAT     H125157   6.366   2.918   2.895
 8305WAT     H225158   6.437   2.801   2.985
 8306WAT      O25159   1.515   7.874   9.202
 8306WAT     H125160   1.495   7.946   9.136
 8306WAT     H225161   1.449   7.800   9.190
 8307WAT      O25162   2.396   3.666   4.525
 8307WAT     H125163   2.346   3.586   4.491
 8307WAT     H225164   2.333   3.742   4.536
 8308WAT      O25165   4.129   4.528   7.246
 8308WAT     H125166   4.180   4.615   7.245
 8308WAT     H225167   4.036   4.544   7.278
 8309WAT      O25168   3.592   5.548   5.628
 8309WAT     H125169   3.615   5.529   5.723
 8309WAT     H225170   3.677   5.561   5.576
 8310WAT      O25171   6.339   7.719   4.173
 8310WAT     H125172   6.429   7.748   4.139
 8310WAT     H225173   6.272   7.790   4.152
 8311WAT      O25174   8.953   1.922   4.128
 8311WAT     H125175   8.959   1.843   4.188
 8311WAT     H225176   9.042   1.940   4.086
 8312WAT      O25177   0.068   5.204   5.032
 8312WAT     H125178   0.069   5.131   5.100
 8312WAT     H225179   0.066   5.164   4.940
 8313WAT      O25180   8.499   0.554   6.339
 8313WAT     H125181   8.524   0.618   6.266
 8313WAT     H225182   8.575   0.546   6.404
 8314WAT      O25183   1.494   0.256   0.813
 8314WAT     H125184   1.408   0.217   0.843
 8314WAT     H225185   1.499   0.255   0.713
 8315WAT      O25186   1.579   1.888   3.461
 8315WAT     H125187   1.629   1.853   3.382
 8315WAT     H225188   1.487   1.915   3.433
 8316WAT      O25189   3.292   1.289   2.233
 8316WAT     H125190   3.304   1.217   2.165
 8316WAT     H225191   3.212   1.269   2.289
 8317WAT      O25192   5.369   1.609   2.639
 8317WAT     H125193   5.350   1.554   2.558
 8317WAT     H225194   5.339   1.703   2.623
 8318WAT      O25195   9.317   1.649   2.855
 8318WAT     H125196   9.415   1.640   2.838
 8318WAT     H225197   9.302   1.717   2.927
 8319WAT      O25198   7.774   8.215   9.066
 8319WAT     H125199   7.688   8.236   9.021
 8319WAT     H225200   7.784   8.116   9.075
 8320WAT      O25201   8.717   9.394   2.995
 8320WAT     H125202   8.716   9.310   3.050
 8320WAT     H225203   8.755   9.469   3.049
 8321WAT      O25204   0.426   8.234   0.808
 8321WAT     H125205   0.451   8.184   0.725
 8321WAT     H225206   0.427   8.332   0.789
 8322WAT      O25207   8.439   3.893   8.182
 8322WAT     H125208   8.512   3.868   8.117
 8322WAT     H225209   8.446   3.990   8.203
 8323WAT      O25210   0.738   2.963   6.156
 8323WAT     H125211   0.800   2.949   6.233
 8323WAT     H225212   0.646   2.981   6.190
 8324WAT      O25213   8.486   1.246   6.986
 8324WAT     H125214   8.516   1.235   7.080
 8324WAT     H225215   8.561   1.221   6.924
 8325WAT      O25216   7.951   7.019   6.583
 8325WAT     H125217   7.873   7.076   6.609
 8325WAT     H225218   7.962   7.023   6.484
 8326WAT      O25219   8.094   9.755   5.673
 8326WAT     H125220   8.055   9.847   5.664
 8326WAT     H225221   8.104   9.733   5.770
 8327WAT      O25222   5.851   4.651   0.692
 8327WAT     H125223   5.775   4.662   0.756
 8327WAT     H225224   5.892   4.741   0.673
 8328WAT      O25225   6.015   3.639   2.961
 8328WAT     H125226   5.944   3.575   2.991
 8328WAT     H225227   6.058   3.682   3.040
 8329WAT      O25228   7.753   0.091   4.139
 8329WAT     H125229   7.775   0.182   4.104
 8329WAT     H225230   7.655   0.075   4.132
 8330WAT      O25231   9.148   8.514   4.170
 8330WAT     H125232   9.241   8.548   4.184
 8330WAT     H225233   9.142   8.419   4.200
 8331WAT      O25234   0.766   2.877   4.228
 8331WAT     H125235   0.842   2.812   4.231
 8331WAT     H225236   0.797   2.963   4.187
 8332WAT      O25237   9.768   1.586   7.248
 8332WAT     H125238   9.787   1.593   7.150
 8332WAT     H225239   9.848   1.616   7.299
 8333WAT      O25240   0.359   5.225   9.191
 8333WAT     H125241   0.292   5.151   9.182
 8333WAT     H225242   0.450   5.190   9.165
 8334WAT      O25243   8.752   5.547   7.405
 8334WAT     H125244   8.754   5.470   7.469
 8334WAT     H225245   8.840   5.595   7.408
 8335WAT      O25246   8.601   1.010   2.075
 8335WAT     H125247   8.605   1.110   2.081
 8335WAT     H225248   8.692   0.973   2.093
 8336WAT      O25249   6.062   2.357   0.178
 8336WAT     H125250   6.136   2.389   0.119
 8336WAT     H225251   6.020   2.276   0.139
 8337WAT      O25252   1.322   6.014   7.305
 8337WAT     H125253   1.239   5.996   7.359
 8337WAT     H225254   1.381   5.933   7.308
 8338WAT      O25255   0.903   5.389   6.165
 8338WAT     H125256   0.837   5.316   6.146
 8338WAT     H225257   0.924   5.390   6.263
 8339WAT      O25258   6.274   8.371   2.673
 8339WAT     H125259   6.195   8.405   2.621
 8339WAT     H225260   6.279   8.418   2.760
 8340WAT      O25261   7.339   2.185   0.571
 8340WAT     H125262   7.432   2.213   0.595
 8340WAT     H225263   7.327   2.193   0.473
 8341WAT      O25264   3.453   0.128   4.612
 8341WAT     H125265   3.534   0.071   4.625
 8341WAT     H225266   3.391   0.085   4.547
 8342WAT      O25267   1.323   4.750   6.822
 8342WAT     H125268   1.258   4.719   6.892
 8342WAT     H225269   1.317   4.691   6.742
 8343WAT      O25270   1.036   8.971   5.388
 8343WAT     H125271   0.962   8.978   5.455
 8343WAT     H225272   1.008   9.015   5.303
 8344WAT      O25273   6.172   3.838   0.397
 8344WAT     H125274   6.096   3.805   0.453
 8344WAT     H225275   6.204   3.765   0.337
 8345WAT      O25276   9.616   7.817   2.860
 8345WAT     H125277   9.536   7.852   2.810
 8345WAT     H225278   9.660   7.892   2.909
 8346WAT      O25279   3.476   0.767   8.998
 8346WAT     H125280   3.529   0.834   8.947
 8346WAT     H225281   3.424   0.814   9.070
 8347WAT      O25282   9.105   4.643   7.197
 8347WAT     H125283   9.077   4.739   7.191
 8347WAT     H225284   9.188   4.629   7.143
 8348WAT      O25285   9.858   2.511   0.821
 8348WAT     H125286   9.882   2.477   0.912
 8348WAT     H225287   9.854   2.611   0.824
 8349WAT      O25288   5.233   3.231   2.685
 8349WAT     H125289   5.236   3.221   2.784
 8349WAT     H225290   5.198   3.321   2.661
 8350WAT      O25291   2.509   4.129   0.209
 8350WAT     H125292   2.595   4.078   0.208
 8350WAT     H225293   2.516   4.205   0.274
 8351WAT      O25294   7.536   6.811   7.966
 8351WAT     H125295   7.503   6.902   7.994
 8351WAT     H225296   7.463   6.764   7.916
 8352WAT      O25297   3.585   9.009   9.639
 8352WAT     H125298   3.597   9.058   9.726
 8352WAT     H225299   3.649   8.933   9.635
 8353WAT      O25300   8.661   4.150   0.561
 8353WAT     H125301   8.588   4.085   0.538
 8353WAT     H225302   8.686   4.140   0.657
 8354WAT      O25303   7.716   1.659   7.638
 8354WAT     H125304   7.766   1.581   7.676
 8354WAT     H225305   7.773   1.706   7.570
 8355WAT      O25306   5.593   1.287   5.384
 8355WAT     H125307   5.590   1.347   5.305
 8355WAT     H225308   5.686   1.250   5.395
 8356WAT      O25309   6.432   8.178   6.451
 8356WAT     H125310   6.485   8.122   6.515
 8356WAT     H225311   6.463   8.159   6.358
 8357WAT      O25312   1.373   8.708   8.762
 8357WAT     H125313   1.327   8.739   8.845
 8357WAT     H225314   1.436   8.634   8.785
 8358WAT      O25315   9.666   1.125   3.230
 8358WAT     H125316   9.668   1.224   3.234
 8358WAT     H225317   9.751   1.087   3.266
 8359WAT      O25318   0.920   3.921   8.979
 8359WAT     H125319   0.841   3.868   9.008
 8359WAT     H225320   0.952   3.888   8.890
 8360WAT      O25321   1.539   5.178   7.006
 8360WAT     H125322   1.449   5.158   6.967
 8360WAT     H225323   1.608   5.122   6.959
 8361WAT      O25324   1.638   5.464   5.454
 8361WAT     H125325   1.617   5.369   5.433
 8361WAT     H225326   1.737   5.476   5.461
 8362WAT      O25327   6.501   3.446   3.248
 8362WAT     H125328   6.528   3.509   3.321
 8362WAT     H225329   6.453   3.368   3.288
 8363WAT      O25330   3.121   6.485   8.878
 8363WAT     H125331   3.076   6.412   8.827
 8363WAT     H225332   3.123   6.460   8.976
 8364WAT      O25333   8.609   1.183   1.373
 8364WAT     H125334   8.518   1.141   1.378
 8364WAT     H225335   8.605   1.273   1.418
 8365WAT      O25336   5.667   4.206   9.203
 8365WAT     H125337   5.591   4.142   9.212
 8365WAT     H225338   5.681   4.255   9.289
 8366WAT      O25339   8.442   7.114   8.310
 8366WAT     H125340   8.535   7.093   8.280
 8366WAT     H225341   8.377   7.082   8.242
 8367WAT      O25342   0.177   0.901   4.858
 8367WAT     H125343   0.082   0.888   4.828
 8367WAT     H225344   0.217   0.978   4.808
 8368WAT      O25345   1.310   5.856   0.303
 8368WAT     H125346   1.356   5.775   0.339
 8368WAT     H225347   1.283   5.915   0.379
 8369WAT      O25348   1.666   2.065   0.366
 8369WAT     H125349   1.608   2.141   0.337
 8369WAT     H225350   1.690   2.077   0.462
 8370WAT      O25351   2.802   8.907   2.300
 8370WAT     H125352   2.764   8.999   2.311
 8370WAT     H225353   2.872   8.891   2.370
 8371WAT      O25354   2.767   7.452   9.723
 8371WAT     H125355   2.739   7.523   9.657
 8371WAT     H225356   2.834   7.491   9.787
 8372WAT      O25357   7.730   5.457   8.162
 8372WAT     H125358   7.727   5.533   8.227
 8372WAT     H225359   7.663   5.387   8.191
 8373WAT      O25360   8.924   4.015   7.836
 8373WAT     H125361   8.949   3.955   7.912
 8373WAT     H225362   8.840   4.063   7.859
 8374WAT      O25363   3.804   8.330   1.151
 8374WAT     H125364   3.891   8.377   1.165
 8374WAT     H225365   3.813   8.263   1.078
 8375WAT      O25366   5.214   4.324   8.051
 8375WAT     H125367   5.277   4.386   8.004
 8375WAT     H225368   5.264   4.242   8.078
 8376WAT      O25369   4.526   2.344   6.330
 8376WAT     H125370   4.611   2.374   6.288
 8376WAT     H225371   4.492   2.262   6.283
 8377WAT      O25372   3.294   2.988   7.738
 8377WAT     H125373   3.287   3.059   7.667
 8377WAT     H225374   3.328   3.029   7.823
 8378WAT      O25375   3.432   5.007   0.502
 8378WAT     H125376   3.476   5.092   0.532
 8378WAT     H225377   3.347   4.994   0.552
 8379WAT      O25378   3.631   3.595   7.126
 8379WAT     H125379   3.536   3.620   7.105
 8379WAT     H225380   3.639   3.496   7.129
 8380WAT      O25381   7.967   8.004   6.905
 8380WAT     H125382   7.941   7.977   6.813
 8380WAT     H225383   7.907   7.958   6.971
 8381WAT      O25384   2.609   2.342   8.196
 8381WAT     H125385   2.584   2.397   8.275
 8381WAT     H225386   2.690   2.287   8.218
 8382WAT      O25387   3.504   9.096   6.831
 8382WAT     H125388   3.455   9.182   6.841
 8382WAT     H225389   3.597   9.106   6.865
 8383WAT      O25390   2.862   9.730   5.805
 8383WAT     H125391   2.821   9.820   5.790
 8383WAT     H225392   2.791   9.660   5.798
 8384WAT      O25393   2.973   8.884   2.986
 8384WAT     H125394   2.951   8.905   3.082
 8384WAT     H225395   2.998   8.787   2.979
 8385WAT      O25396   4.621   5.415   9.821
 8385WAT     H125397   4.719   5.427   9.811
 8385WAT     H225398   4.602   5.336   9.880
 8386WAT      O25399   3.375   3.817   0.004
 8386WAT     H125400   3.346   3.724   0.026
 8386WAT     H225401   3.296   3.872  -0.024
 8387WAT      O25402   4.937   0.083   0.734
 8387WAT     H125403   4.928   0.137   0.650
 8387WAT     H225404   4.967   0.143   0.809
 8388WAT      O25405   7.534   7.939   1.037
 8388WAT     H125406   7.588   7.900   0.962
 8388WAT     H225407   7.593   7.992   1.097
 8389WAT      O25408   1.804   4.959   1.456
 8389WAT     H125409   1.728   4.999   1.406
 8389WAT     H225410   1.876   5.028   1.469
 8390WAT      O25411   0.520   9.051   1.535
 8390WAT     H125412   0.603   9.056   1.480
 8390WAT     H225413   0.442   9.032   1.476
 8391WAT      O25414   9.133   7.214   7.353
 8391WAT     H125415   9.133   7.258   7.263
 8391WAT     H225416   9.211   7.151   7.360
 8392WAT      O25417   8.183   1.630   0.638
 8392WAT     H125418   8.244   1.656   0.713
 8392WAT     H225419   8.192   1.533   0.619
 8393WAT      O25420   7.736   2.492   4.763
 8393WAT     H125421   7.757   2.397   4.786
 8393WAT     H225422   7.816   2.534   4.719
 8394WAT      O25423   5.915   8.360   6.215
 8394WAT     H125424   5.996   8.302   6.226
 8394WAT     H225425   5.944   8.454   6.196
 8395WAT      O25426   9.703   2.258   8.245
 8395WAT     H125427   9.667   2.251   8.152
 8395WAT     H225428   9.784   2.200   8.254
 8396WAT      O25429   1.088   8.016   7.594
 8396WAT     H125430   1.000   8.062   7.605
 8396WAT     H225431   1.083   7.925   7.634
 8397WAT      O25432   2.840   9.132   7.269
 8397WAT     H125433   2.817   9.228   7.257
 8397WAT     H225434   2.794   9.077   7.198
 8398WAT      O25435   4.503   9.209   8.065
 8398WAT     H125436   4.568   9.133   8.073
 8398WAT     H225437   4.552   9.296   8.078
 8399WAT      O25438   6.454   5.348   4.773
 8399WAT     H125439   6.522   5.353   4.847
 8399WAT     H225440   6.362   5.357   4.812
 8400WAT      O25441   2.681   2.757   0.454
 8400WAT     H125442   2.716   2.816   0.382
 8400WAT     H225443   2.645   2.813   0.529
 8401WAT      O25444   2.999   6.555   3.394
 8401WAT     H125445   2.926   6.622   3.408
 8401WAT     H225446   3.005   6.495   3.473
 8402WAT      O25447   2.561   7.379   5.280
 8402WAT     H125448   2.537   7.473   5.259
 8402WAT     H225449   2.660   7.372   5.293
 8403WAT      O25450   2.182   8.833   4.421
 8403WAT     H125451   2.210   8.761   4.485
 8403WAT     H225452   2.185   8.922   4.468
 8404WAT      O25453   0.099   5.806   6.153
 8404WAT     H125454   0.138   5.881   6.207
 8404WAT     H225455   0.158   5.726   6.160
 8405WAT      O25456   9.053   0.902   0.243
 8405WAT     H125457   9.069   0.982   0.186
 8405WAT     H225458   9.018   0.931   0.332
 8406WAT      O25459   1.209   2.899   9.121
 8406WAT     H125460   1.296   2.930   9.159
 8406WAT     H225461   1.158   2.850   9.192
 8407WAT      O25462   6.204   6.634   8.163
 8407WAT     H125463   6.183   6.730   8.147
 8407WAT     H225464   6.233   6.621   8.258
 8408WAT      O25465   3.954   8.325   5.013
 8408WAT     H125466   3.860   8.294   5.011
 8408WAT     H225467   3.991   8.316   5.106
 8409WAT      O25468   2.968   1.772   7.581
 8409WAT     H125469   2.907   1.750   7.505
 8409WAT     H225470   2.991   1.689   7.631
 8410WAT      O25471   7.577   6.693   9.294
 8410WAT     H125472   7.628   6.608   9.280
 8410WAT     H225473   7.482   6.679   9.268
 8411WAT      O25474   4.178   9.321   6.509
 8411WAT     H125475   4.085   9.357   6.501
 8411WAT     H225476   4.191   9.283   6.601
 8412WAT      O25477   8.629   2.609   9.719
 8412WAT     H125478   8.700   2.638   9.783
 8412WAT     H225479   8.661   2.623   9.625
 8413WAT      O25480   7.729   4.901   3.741
 8413WAT     H125481   7.637   4.912   3.778
 8413WAT     H225482   7.725   4.849   3.655
 8414WAT      O25483   5.617   2.713   3.380
 8414WAT     H125484   5.528   2.669   3.372
 8414WAT     H225485   5.678   2.654   3.433
 8415WAT      O25486   6.059   8.707   7.234
 8415WAT     H125487   5.978   8.765   7.238
 8415WAT     H225488   6.051   8.642   7.159
 8416WAT      O25489   6.775   5.185   6.756
 8416WAT     H125490   6.825   5.112   6.801
 8416WAT     H225491   6.808   5.274   6.789
 8417WAT      O25492   0.943   2.066   7.381
 8417WAT     H125493   0.910   2.086   7.473
 8417WAT     H225494   1.043   2.068   7.382
 8418WAT      O25495   9.749   1.721   9.431
 8418WAT     H125496   9.823   1.736   9.497
 8418WAT     H225497   9.693   1.804   9.425
 8419WAT      O25498   9.523   4.598   5.489
 8419WAT     H125499   9.491   4.520   5.435
 8419WAT     H225500   9.508   4.579   5.586
 8420WAT      O25501   5.510   1.355   4.357
 8420WAT     H125502   5.490   1.428   4.422
 8420WAT     H225503   5.593   1.377   4.306
 8421WAT      O25504   5.773   4.809   5.196
 8421WAT     H125505   5.718   4.749   5.139
 8421WAT     H225506   5.845   4.756   5.241
 8422WAT      O25507   1.296   2.237   6.435
 8422WAT     H125508   1.289   2.193   6.524
 8422WAT     H225509   1.300   2.167   6.363
 8423WAT      O25510   0.257   3.018   7.432
 8423WAT     H125511   0.310   2.952   7.486
 8423WAT     H225512   0.307   3.104   7.427
 8424WAT      O25513   4.550   6.812   9.408
 8424WAT     H125514   4.490   6.812   9.328
 8424WAT     H225515   4.640   6.779   9.382
 8425WAT      O25516   8.333   1.795   4.797
 8425WAT     H125517   8.312   1.883   4.840
 8425WAT     H225518   8.411   1.753   4.844
 8426WAT      O25519   7.480   7.033   8.514
 8426WAT     H125520   7.474   6.999   8.420
 8426WAT     H225521   7.569   7.008   8.552
 8427WAT      O25522   5.711   5.585   9.825
 8427WAT     H125523   5.690   5.495   9.787
 8427WAT     H225524   5.810   5.597   9.830
 8428WAT      O25525   9.809   7.252   5.212
 8428WAT     H125526   9.847   7.162   5.232
 8428WAT     H225527   9.839   7.317   5.282
 8429WAT      O25528   7.988   5.005   3.201
 8429WAT     H125529   8.033   5.094   3.192
 8429WAT     H225530   7.932   4.988   3.120
 8430WAT      O25531   2.029   1.455   2.675
 8430WAT     H125532   2.001   1.486   2.766
 8430WAT     H225533   2.087   1.525   2.632
 8431WAT      O25534   7.870   7.490   7.788
 8431WAT     H125535   7.929   7.551   7.734
 8431WAT     H225536   7.885   7.395   7.761
 8432WAT      O25537   1.329   1.887   0.014
 8432WAT     H125538   1.378   1.969  -0.016
 8432WAT     H225539   1.351   1.869   0.110
 8433WAT      O25540   6.263   6.881   1.669
 8433WAT     H125541   6.229   6.897   1.576
 8433WAT     H225542   6.223   6.796   1.704
 8434WAT      O25543   3.458   7.962   7.135
 8434WAT     H125544   3.458   8.043   7.194
 8434WAT     H225545   3.496   7.985   7.046
 8435WAT      O25546   6.777   6.592   1.750
 8435WAT     H125547   6.807   6.611   1.656
 8435WAT     H225548   6.713   6.516   1.750
 8436WAT      O25549   8.574   3.004   2.825
 8436WAT     H125550   8.480   3.032   2.845
 8436WAT     H225551   8.635   3.082   2.833
 8437WAT      O25552   3.223   9.140   6.043
 8437WAT     H125553   3.302   9.195   6.069
 8437WAT     H225554   3.181   9.101   6.125
 8438WAT      O25555   5.628   3.165   2.000
 8438WAT     H125556   5.607   3.231   1.928
 8438WAT     H225557   5.699   3.102   1.969
 8439WAT      O25558   8.579   0.586   4.680
 8439WAT     H125559   8.488   0.626   4.670
 8439WAT     H225560   8.573   0.487   4.673
 8440WAT      O25561   8.585   6.919   8.670
 8440WAT     H125562   8.649   6.922   8.747
 8440WAT     H225563   8.533   7.005   8.667
 8441WAT      O25564   4.989   3.485   8.438
 8441WAT     H125565   4.918   3.459   8.503
 8441WAT     H225566   4.983   3.583   8.419
 8442WAT      O25567   1.912   5.357   1.138
 8442WAT     H125568   1.945   5.349   1.232
 8442WAT     H225569   1.869   5.271   1.110
 8443WAT      O25570   6.806   8.808   6.633
 8443WAT     H125571   6.819   8.759   6.720
 8443WAT     H225572   6.824   8.746   6.557
 8444WAT      O25573   1.297   5.390   6.645
 8444WAT     H125574   1.322   5.316   6.582
 8444WAT     H225575   1.247   5.461   6.597
 8445WAT      O25576   3.610   5.867   1.945
 8445WAT     H125577   3.606   5.807   2.024
 8445WAT     H225578   3.640   5.958   1.974
 8446WAT      O25579   1.298   2.349   2.774
 8446WAT     H125580   1.279   2.425   2.836
 8446WAT     H225581   1.222   2.339   2.709
 8447WAT      O25582   3.165   0.993   5.386
 8447WAT     H125583   3.203   0.978   5.295
 8447WAT     H225584   3.195   1.082   5.421
 8448WAT      O25585   8.586   7.911   1.089
 8448WAT     H125586   8.645   7.838   1.053
 8448WAT     H225587   8.609   7.998   1.046
 8449WAT      O25588   9.472   1.791   8.578
 8449WAT     H125589   9.391   1.840   8.608
 8449WAT     H225590   9.460   1.693   8.595
 8450WAT      O25591   7.088   3.066   2.265
 8450WAT     H125592   7.094   2.987   2.204
 8450WAT     H225593   7.014   3.052   2.330
 8451WAT      O25594   1.722   4.477   7.018
 8451WAT     H125595   1.642   4.431   6.981
 8451WAT     H225596   1.786   4.498   6.944
 8452WAT      O25597   9.497   6.003   0.071
 8452WAT     H125598   9.432   5.947   0.019
 8452WAT     H225599   9.566   5.944   0.112
 8453WAT      O25600   7.318   2.843   3.571
 8453WAT     H125601   7.269   2.867   3.655
 8453WAT     H225602   7.262   2.781   3.516
 8454WAT      O25603   1.022   7.346   4.244
 8454WAT     H125604   1.071   7.408   4.305
 8454WAT     H225605   0.971   7.399   4.177
 8455WAT      O25606   7.108   9.355   2.378
 8455WAT     H125607   7.021   9.405   2.375
 8455WAT     H225608   7.172   9.396   2.313
 8456WAT      O25609   9.831   0.790   7.642
 8456WAT     H125610   9.748   0.808   7.589
 8456WAT     H225611   9.904   0.762   7.581
 8457WAT      O25612   5.278   5.514   9.049
 8457WAT     H125613   5.348   5.450   9.018
 8457WAT     H225614   5.205   5.521   8.981
 8458WAT      O25615   4.371   0.200   2.482
 8458WAT     H125616   4.365   0.104   2.511
 8458WAT     H225617   4.329   0.211   2.392
 8459WAT      O25618   6.369   3.002   6.189
 8459WAT     H125619   6.278   2.985   6.151
 8459WAT     H225620   6.396   2.925   6.245
 8460WAT      O25621   8.539   1.970   1.145
 8460WAT     H125622   8.509   2.030   1.218
 8460WAT     H225623   8.599   1.899   1.182
 8461WAT      O25624   8.941   9.425   0.651
 8461WAT     H125625   8.870   9.489   0.626
 8461WAT     H225626   9.030   9.472   0.652
 8462WAT      O25627   7.772   5.005   5.735
 8462WAT     H125628   7.784   5.003   5.835
 8462WAT     H225629   7.782   5.099   5.703
 8463WAT      O25630   8.294   0.511   8.124
 8463WAT     H125631   8.391   0.494   8.110
 8463WAT     H225632   8.253   0.430   8.167
 8464WAT      O25633   7.458   4.118   0.326
 8464WAT     H125634   7.414   4.125   0.415
 8464WAT     H225635   7.528   4.048   0.328
 8465WAT      O25636   6.050   8.419   2.513
 8465WAT     H125637   6.002   8.448   2.430
 8465WAT     H225638   6.016   8.473   2.591
 8466WAT      O25639   2.320   6.851   2.033
 8466WAT     H125640   2.334   6.752   2.040
 8466WAT     H225641   2.346   6.895   2.119
 8467WAT      O25642   5.596   5.573   1.710
 8467WAT     H125643   5.633   5.595   1.620
 8467WAT     H225644   5.496   5.582   1.709
 8468WAT      O25645   4.957   7.265   2.122
 8468WAT     H125646   4.870   7.225   2.152
 8468WAT     H225647   5.014   7.194   2.081
 8469WAT      O25648   7.889   1.707   5.709
 8469WAT     H125649   7.820   1.777   5.726
 8469WAT     H225650   7.979   1.750   5.699
 8470WAT      O25651   9.798   8.919   4.768
 8470WAT     H125652   9.892   8.936   4.795
 8470WAT     H225653   9.746   8.885   4.847
 8471WAT      O25654   9.472   8.007   0.165
 8471WAT     H125655   9.521   8.065   0.100
 8471WAT     H225656   9.455   8.059   0.249
 8472WAT      O25657   5.667   6.145   1.625
 8472WAT     H125658   5.766   6.134   1.636
 8472WAT     H225659   5.637   6.231   1.667
 8473WAT      O25660   3.982   2.460   6.208
 8473WAT     H125661   4.077   2.490   6.195
 8473WAT     H225662   3.977   2.402   6.289
 8474WAT      O25663   6.767   4.622   6.282
 8474WAT     H125664   6.721   4.702   6.320
 8474WAT     H225665   6.782   4.554   6.354
 8475WAT      O25666   5.358   6.741   1.451
 8475WAT     H125667   5.444   6.731   1.501
 8475WAT     H225668   5.290   6.786   1.509
 8476WAT      O25669   2.721   5.659   8.772
 8476WAT     H125670   2.742   5.587   8.706
 8476WAT     H225671   2.799   5.673   8.832
 8477WAT      O25672   3.120   4.458   8.297
 8477WAT     H125673   3.214   4.491   8.301
 8477WAT     H225674   3.119   4.359   8.280
 8478WAT      O25675   2.807   6.831   7.124
 8478WAT     H125676   2.872   6.814   7.050
 8478WAT     H225677   2.775   6.745   7.162
 8479WAT      O25678   4.056   3.818   1.491
 8479WAT     H125679   3.974   3.859   1.450
 8479WAT     H225680   4.035   3.782   1.581
 8480WAT      O25681   9.384   0.020   9.188
 8480WAT     H125682   9.398   0.006   9.090
 8480WAT     H225683   9.309   0.083   9.203
 8481WAT      O25684   3.948   7.070   0.895
 8481WAT     H125685   3.905   7.139   0.954
 8481WAT     H225686   4.027   7.030   0.942
 8482WAT      O25687   9.534   0.934   5.636
 8482WAT     H125688   9.524   0.846   5.590
 8482WAT     H225689   9.629   0.945   5.667
 8483WAT      O25690   2.535   1.578   3.190
 8483WAT     H125691   2.479   1.501   3.159
 8483WAT     H225692   2.492   1.621   3.269
 8484WAT      O25693   4.604   3.452   2.470
 8484WAT     H125694   4.542   3.493   2.537
 8484WAT     H225695   4.598   3.353   2.476
 8485WAT      O25696   6.736   4.823   4.572
 8485WAT     H125697   6.735   4.750   4.503
 8485WAT     H225698   6.656   4.881   4.560
 8486WAT      O25699   0.773   2.874   3.319
 8486WAT     H125700   0.845   2.807   3.335
 8486WAT     H225701   0.691   2.827   3.286
 8487WAT      O25702   3.794   4.328   8.683
 8487WAT     H125703   3.817   4.232   8.696
 8487WAT     H225704   3.756   4.365   8.768
 8488WAT      O25705   2.891   8.886   7.610
 8488WAT     H125706   2.950   8.960   7.578
 8488WAT     H225707   2.850   8.840   7.531
 8489WAT      O25708   4.656   0.974   3.971
 8489WAT     H125709   4.607   0.946   3.889
 8489WAT     H225710   4.754   0.956   3.958
 8490WAT      O25711   6.851   4.216   6.000
 8490WAT     H125712   6.908   4.180   6.074
 8490WAT     H225713   6.785   4.281   6.037
 8491WAT      O25714   8.157   3.515   5.085
 8491WAT     H125715   8.200   3.454   5.020
 8491WAT     H225716   8.224   3.581   5.119
 8492WAT      O25717   7.096   9.133   0.834
 8492WAT     H125718   7.008   9.090   0.857
 8492WAT     H225719   7.169   9.064   0.837
 8493WAT      O25720   5.497   8.069   7.481
 8493WAT     H125721   5.541   8.025   7.403
 8493WAT     H225722   5.472   7.999   7.548
 8494WAT      O25723   3.593   5.263   0.533
 8494WAT     H125724   3.544   5.345   0.504
 8494WAT     H225725   3.643   5.225   0.455
 8495WAT      O25726   5.563   5.269   5.117
 8495WAT     H125727   5.535   5.355   5.158
 8495WAT     H225728   5.584   5.203   5.189
 8496WAT      O25729   2.519   8.258   6.347
 8496WAT     H125730   2.570   8.279   6.430
 8496WAT     H225731   2.565   8.185   6.297
 8497WAT      O25732   6.801   4.185   4.450
 8497WAT     H125733   6.847   4.242   4.382
 8497WAT     H225734   6.851   4.189   4.537
 8498WAT      O25735   1.607   6.601   7.856
 8498WAT     H125736   1.701   6.632   7.874
 8498WAT     H225737   1.608   6.534   7.781
 8499WAT      O25738   1.598   7.369   0.241
 8499WAT     H125739   1.595   7.462   0.205
 8499WAT     H225740   1.543   7.364   0.324
 8500WAT      O25741   5.450   0.462   0.564
 8500WAT     H125742   5.524   0.397   0.579
 8500WAT     H225743   5.401   0.478   0.650
 8501WAT      O25744   6.184   4.933   2.944
 8501WAT     H125745   6.115   4.992   2.903
 8501WAT     H225746   6.188   4.846   2.895
 8502WAT      O25747   1.461   1.289   5.395
 8502WAT     H125748   1.494   1.212   5.449
 8502WAT     H225749   1.485   1.375   5.440
 8503WAT      O25750   0.154   0.636   3.168
 8503WAT     H125751   0.132   0.720   3.118
 8503WAT     H225752   0.104   0.559   3.129
 8504WAT      O25753   6.620   0.775   1.277
 8504WAT     H125754   6.616   0.847   1.208
 8504WAT     H225755   6.662   0.810   1.360
 8505WAT      O25756   0.125   5.484   9.747
 8505WAT     H125757   0.176   5.438   9.674
 8505WAT     H225758   0.037   5.516   9.711
 8506WAT      O25759   3.634   6.060   1.275
 8506WAT     H125760   3.544   6.105   1.273
 8506WAT     H225761   3.706   6.129   1.273
 8507WAT      O25762   2.960   8.082   9.315
 8507WAT     H125763   2.960   8.072   9.215
 8507WAT     H225764   2.997   8.172   9.339
 8508WAT      O25765   9.440   0.435   2.411
 8508WAT     H125766   9.340   0.437   2.419
 8508WAT     H225767   9.473   0.346   2.441
 8509WAT      O25768   0.471   7.074   7.772
 8509WAT     H125769   0.567   7.099   7.789
 8509WAT     H225770   0.411   7.143   7.814
 8510WAT      O25771   6.624   1.397   1.068
 8510WAT     H125772   6.657   1.482   1.025
 8510WAT     H225773   6.648   1.320   1.009
 8511WAT      O25774   1.723   0.273   4.917
 8511WAT     H125775   1.675   0.264   4.829
 8511WAT     H225776   1.690   0.354   4.965
 8512WAT      O25777   1.877   2.840   5.831
 8512WAT     H125778   1.823   2.817   5.911
 8512WAT     H225779   1.902   2.937   5.834
 8513WAT      O25780   2.814   2.604   6.208
 8513WAT     H125781   2.821   2.644   6.299
 8513WAT     H225782   2.902   2.564   6.182
 8514WAT      O25783   8.480   7.108   3.826
 8514WAT     H125784   8.580   7.101   3.828
 8514WAT     H225785   8.443   7.039   3.764
 8515WAT      O25786   5.164   6.959   2.462
 8515WAT     H125787   5.232   7.032   2.461
 8515WAT     H225788   5.140   6.934   2.368
 8516WAT      O25789   9.176   6.813   2.620
 8516WAT     H125790   9.167   6.765   2.533
 8516WAT     H225791   9.096   6.871   2.635
 8517WAT      O25792   3.475   4.905   4.133
 8517WAT     H125793   3.536   4.859   4.197
 8517WAT     H225794   3.517   4.990   4.101
 8518WAT      O25795   7.575   4.108   5.229
 8518WAT     H125796   7.607   4.077   5.140
 8518WAT     H225797   7.640   4.173   5.268
 8519WAT      O25798   6.015   8.937   3.163
 8519WAT     H125799   5.985   9.026   3.196
 8519WAT     H225800   6.076   8.948   3.085
 8520WAT      O25801   2.238   1.230   6.790
 8520WAT     H125802   2.209   1.167   6.862
 8520WAT     H225803   2.253   1.178   6.705
 8521WAT      O25804   9.088   9.834   1.801
 8521WAT     H125805   9.113   9.918   1.849
 8521WAT     H225806   9.155   9.816   1.728
 8522WAT      O25807   3.608   1.312   7.826
 8522WAT     H125808   3.521   1.323   7.874
 8522WAT     H225809   3.663   1.244   7.874
 8523WAT      O25810   7.408   2.253   7.583
 8523WAT     H125811   7.388   2.276   7.488
 8523WAT     H225812   7.325   2.217   7.626
 8524WAT      O25813   0.374   9.366   1.996
 8524WAT     H125814   0.360   9.465   1.997
 8524WAT     H225815   0.308   9.325   1.933
 8525WAT      O25816   8.958   4.787   6.450
 8525WAT     H125817   9.004   4.864   6.406
 8525WAT     H225818   8.945   4.714   6.383
 8526WAT      O25819   8.428   8.026   0.502
 8526WAT     H125820   8.367   8.022   0.423
 8526WAT     H225821   8.399   8.100   0.562
 8527WAT      O25822   5.628   6.332   7.859
 8527WAT     H125823   5.710   6.327   7.915
 8527WAT     H225824   5.556   6.275   7.900
 8528WAT      O25825   0.711   4.897   8.874
 8528WAT     H125826   0.636   4.948   8.832
 8528WAT     H225827   0.682   4.863   8.963
 8529WAT      O25828   9.360   0.564   9.643
 8529WAT     H125829   9.418   0.489   9.677
 8529WAT     H225830   9.411   0.618   9.576
 8530WAT      O25831   7.718   3.724   9.419
 8530WAT     H125832   7.751   3.630   9.429
 8530WAT     H225833   7.629   3.724   9.373
 8531WAT      O25834   7.980   9.396   7.973
 8531WAT     H125835   8.067   9.349   7.991
 8531WAT     H225836   7.985   9.442   7.885
 8532WAT      O25837   2.781   8.652   6.288
 8532WAT     H125838   2.772   8.712   6.208
 8532WAT     H225839   2.738   8.694   6.367
 8533WAT      O25840   7.120   2.528   5.557
 8533WAT     H125841   7.218   2.525   5.576
 8533WAT     H225842   7.085   2.620   5.579
 8534WAT      O25843   4.699   8.184   0.862
 8534WAT     H125844   4.757   8.150   0.936
 8534WAT     H225845   4.754   8.194   0.779
 8535WAT      O25846   3.116   8.133   8.488
 8535WAT     H125847   3.055   8.212   8.492
 8535WAT     H225848   3.209   8.164   8.467
 8536WAT      O25849   4.253   5.743   8.134
 8536WAT     H125850   4.154   5.738   8.123
 8536WAT     H225851   4.289   5.819   8.079
 8537WAT      O25852   7.423   6.204   1.971
 8537WAT     H125853   7.394   6.115   1.937
 8537WAT     H225854   7.521   6.216   1.953
 8538WAT      O25855   1.204   7.084   1.830
 8538WAT     H125856   1.212   7.137   1.746
 8538WAT     H225857   1.205   7.146   1.909
 8539WAT      O25858   5.423   9.443   0.527
 8539WAT     H125859   5.367   9.498   0.589
 8539WAT     H225860   5.515   9.482   0.520
 8540WAT      O25861   4.329   8.156   8.742
 8540WAT     H125862   4.291   8.064   8.738
 8540WAT     H225863   4.409   8.162   8.682
 8541WAT      O25864   8.994   1.074   6.560
 8541WAT     H125865   9.033   1.035   6.477
 8541WAT     H225866   9.058   1.062   6.636
 8542WAT      O25867   7.223   0.321   0.594
 8542WAT     H125868   7.266   0.233   0.615
 8542WAT     H225869   7.153   0.341   0.663
 8543WAT      O25870   0.796   7.924   3.881
 8543WAT     H125871   0.754   7.978   3.953
 8543WAT     H225872   0.892   7.948   3.872
 8544WAT      O25873   7.200   2.226   3.699
 8544WAT     H125874   7.162   2.142   3.739
 8544WAT     H225875   7.253   2.275   3.769
 8545WAT      O25876   5.001   8.751   6.615
 8545WAT     H125877   5.096   8.725   6.629
 8545WAT     H225878   4.941   8.694   6.672
 8546WAT      O25879   0.688   5.087   1.410
 8546WAT     H125880   0.740   5.110   1.492
 8546WAT     H225881   0.750   5.046   1.343
 8547WAT      O25882   9.005   5.662   7.117
 8547WAT     H125883   9.102   5.637   7.120
 8547WAT     H225884   8.996   5.761   7.128
 8548WAT      O25885   3.619   7.712   1.414
 8548WAT     H125886   3.715   7.730   1.436
 8548WAT     H225887   3.560   7.773   1.468
 8549WAT      O25888   4.098   8.040   5.732
 8549WAT     H125889   4.190   8.076   5.748
 8549WAT     H225890   4.077   7.971   5.801
 8550WAT      O25891   8.287   0.520   6.995
 8550WAT     H125892   8.319   0.439   6.945
 8550WAT     H225893   8.320   0.516   7.089
 8551WAT      O25894   9.487   6.626   5.600
 8551WAT     H125895   9.563   6.607   5.663
 8551WAT     H225896   9.523   6.655   5.512
 8552WAT      O25897   9.179   7.828   6.126
 8552WAT     H125898   9.159   7.751   6.065
 8552WAT     H225899   9.112   7.901   6.109
 8553WAT      O25900   5.871   6.513   3.300
 8553WAT     H125901   5.928   6.548   3.374
 8553WAT     H225902   5.862   6.582   3.229
 8554WAT      O25903   9.881   1.213   1.518
 8554WAT     H125904   9.907   1.295   1.568
 8554WAT     H225905   9.896   1.133   1.575
 8555WAT      O25906   2.563   6.118   3.199
 8555WAT     H125907   2.603   6.207   3.181
 8555WAT     H225908   2.480   6.107   3.145
 8556WAT      O25909   5.697   6.491   5.438
 8556WAT     H125910   5.709   6.406   5.386
 8556WAT     H225911   5.670   6.564   5.376
 8557WAT      O25912   9.350   4.504   1.505
 8557WAT     H125913   9.262   4.481   1.464
 8557WAT     H225914   9.386   4.425   1.555
 8558WAT      O25915   9.418   0.276   5.503
 8558WAT     H125916   9.434   0.200   5.566
 8558WAT     H225917   9.402   0.359   5.556
 8559WAT      O25918   9.489   6.508   2.947
 8559WAT     H125919   9.436   6.444   2.891
 8559WAT     H225920   9.428   6.580   2.982
 8560WAT      O25921   6.808   1.276   2.659
 8560WAT     H125922   6.871   1.340   2.614
 8560WAT     H225923   6.811   1.291   2.758
 8561WAT      O25924   8.160   6.362   3.391
 8561WAT     H125925   8.125   6.361   3.485
 8561WAT     H225926   8.256   6.390   3.392
 8562WAT      O25927   1.442   1.595   8.373
 8562WAT     H125928   1.385   1.677   8.363
 8562WAT     H225929   1.383   1.514   8.375
 8563WAT      O25930   0.532   8.025   3.133
 8563WAT     H125931   0.513   8.059   3.225
 8563WAT     H225932   0.521   8.100   3.067
 8564WAT      O25933   4.639   5.774   0.722
 8564WAT     H125934   4.550   5.780   0.677
 8564WAT     H225935   4.710   5.759   0.653
 8565WAT      O25936   4.663   6.851   1.214
 8565WAT     H125937   4.651   6.876   1.310
 8565WAT     H225938   4.751   6.806   1.202
 8566WAT      O25939   4.242   6.375   6.841
 8566WAT     H125940   4.220   6.473   6.844
 8566WAT     H225941   4.321   6.361   6.782
 8567WAT      O25942   4.515   0.540   8.556
 8567WAT     H125943   4.612   0.530   8.531
 8567WAT     H225944   4.494   0.637   8.569
 8568WAT      O25945   2.931   7.327   4.930
 8568WAT     H125946   2.984   7.323   4.845
 8568WAT     H225947   2.982   7.280   5.003
 8569WAT      O25948   0.254   1.552   1.724
 8569WAT     H125949   0.279   1.555   1.627
 8569WAT     H225950   0.329   1.589   1.779
 8570WAT      O25951   3.748   4.509   4.742
 8570WAT     H125952   3.711   4.421   4.714
 8570WAT     H225953   3.702   4.539   4.826
 8571WAT      O25954   3.463   4.188   1.148
 8571WAT     H125955   3.416   4.125   1.086
 8571WAT     H225956   3.537   4.234   1.098
 8572WAT      O25957   2.311   8.506   6.327
 8572WAT     H125958   2.390   8.445   6.335
 8572WAT     H225959   2.227   8.453   6.336
 8573WAT      O25960   8.365   8.425   9.686
 8573WAT     H125961   8.459   8.392   9.696
 8573WAT     H225962   8.323   8.383   9.605
 8574WAT      O25963   3.993   6.367   5.805
 8574WAT     H125964   3.993   6.280   5.856
 8574WAT     H225965   3.919   6.366   5.739
 8575WAT      O25966   3.388   2.218   7.742
 8575WAT     H125967   3.481   2.243   7.714
 8575WAT     H225968   3.366   2.127   7.706
 8576WAT      O25969   5.764   0.387   1.727
 8576WAT     H125970   5.842   0.423   1.676
 8576WAT     H225971   5.712   0.325   1.669
 8577WAT      O25972   1.963   6.353   0.820
 8577WAT     H125973   1.992   6.276   0.763
 8577WAT     H225974   1.863   6.356   0.823
 8578WAT      O25975   4.923   0.878   9.092
 8578WAT     H125976   5.019   0.892   9.069
 8578WAT     H225977   4.917   0.833   9.181
 8579WAT      O25978   5.879   7.074   3.992
 8579WAT     H125979   5.962   7.059   3.938
 8579WAT     H225980   5.806   7.016   3.957
 8580WAT      O25981   5.382   1.262   1.169
 8580WAT     H125982   5.466   1.300   1.130
 8580WAT     H225983   5.382   1.163   1.160
 8581WAT      O25984   5.368   5.205   8.816
 8581WAT     H125985   5.298   5.146   8.857
 8581WAT     H225986   5.415   5.255   8.889
 8582WAT      O25987   9.815   8.036   3.140
 8582WAT     H125988   9.816   8.053   3.042
 8582WAT     H225989   9.907   8.046   3.177
 8583WAT      O25990   2.481   9.457   3.611
 8583WAT     H125991   2.563   9.471   3.666
 8583WAT     H225992   2.406   9.425   3.670
 8584WAT      O25993   6.998   9.157   9.480
 8584WAT     H125994   7.056   9.082   9.448
 8584WAT     H225995   7.049   9.211   9.547
 8585WAT      O25996   7.872   4.402   2.118
 8585WAT     H125997   7.952   4.412   2.178
 8585WAT     H225998   7.790   4.430   2.169
 8586WAT      O25999   1.659   3.426   2.542
 8586WAT     H126000   1.647   3.366   2.463
 8586WAT     H226001   1.706   3.510   2.512
 8587WAT      O26002   6.525   6.031   7.046
 8587WAT     H126003   6.600   6.069   6.991
 8587WAT     H226004   6.557   5.949   7.095
 8588WAT      O26005   4.597   0.271   7.820
 8588WAT     H126006   4.566   0.310   7.733
 8588WAT     H226007   4.564   0.177   7.828
 8589WAT      O26008   4.051   8.161   0.464
 8589WAT     H126009   4.142   8.176   0.424
 8589WAT     H226010   4.014   8.074   0.431
 8590WAT      O26011   4.450   0.710   1.720
 8590WAT     H126012   4.398   0.743   1.798
 8590WAT     H226013   4.546   0.736   1.730
 8591WAT      O26014   0.222   0.434   0.257
 8591WAT     H126015   0.305   0.473   0.295
 8591WAT     H226016   0.144   0.455   0.317
 8592WAT      O26017   3.828   5.058   2.276
 8592WAT     H126018   3.812   5.135   2.215
 8592WAT     H226019   3.759   5.058   2.348
 8593WAT      O26020   6.706   1.698   6.477
 8593WAT     H126021   6.733   1.605   6.452
 8593WAT     H226022   6.660   1.697   6.566
 8594WAT      O26023   9.878   2.960   7.456
 8594WAT     H126024   9.973   2.980   7.433
 8594WAT     H226025   9.861   2.862   7.448
 8595WAT      O26026   8.055   8.961   2.734
 8595WAT     H126027   8.151   8.964   2.706
 8595WAT     H226028   7.998   9.005   2.665
 8596WAT      O26029   2.639   3.182   5.258
 8596WAT     H126030   2.547   3.215   5.238
 8596WAT     H226031   2.706   3.234   5.205
 8597WAT      O26032   3.713   0.685   0.383
 8597WAT     H126033   3.670   0.769   0.350
 8597WAT     H226034   3.747   0.633   0.305
 8598WAT      O26035   2.888   5.225   5.877
 8598WAT     H126036   2.980   5.232   5.916
 8598WAT     H226037   2.821   5.233   5.950
 8599WAT      O26038   9.694   9.277   6.689
 8599WAT     H126039   9.763   9.331   6.737
 8599WAT     H226040   9.739   9.202   6.640
 8600WAT      O26041   0.126   9.318   4.796
 8600WAT     H126042   0.176   9.255   4.736
 8600WAT     H226043   0.192   9.372   4.849
 8601WAT      O26044   7.032   5.975   1.539
 8601WAT     H126045   6.955   5.915   1.517
 8601WAT     H226046   7.094   5.929   1.603
 8602WAT      O26047   4.032   6.643   5.813
 8602WAT     H126048   4.109   6.649   5.876
 8602WAT     H226049   4.017   6.547   5.788
 8603WAT      O26050   6.914   6.764   6.879
 8603WAT     H126051   6.903   6.805   6.969
 8603WAT     H226052   6.837   6.702   6.861
 8604WAT      O26053   3.248   1.465   3.436
 8604WAT     H126054   3.293   1.381   3.406
 8604WAT     H226055   3.312   1.520   3.489
 8605WAT      O26056   0.338   7.434   9.359
 8605WAT     H126057   0.241   7.446   9.379
 8605WAT     H226058   0.393   7.477   9.430
 8606WAT      O26059   8.535   4.534   7.025
 8606WAT     H126060   8.524   4.587   6.941
 8606WAT     H226061   8.547   4.437   7.003
 8607WAT      O26062   0.328   0.255   3.372
 8607WAT     H126063   0.388   0.179   3.347
 8607WAT     H226064   0.376   0.317   3.434
 8608WAT      O26065   4.849   2.864   8.252
 8608WAT     H126066   4.791   2.939   8.219
 8608WAT     H226067   4.811   2.777   8.220
 8609WAT      O26068   9.681   0.331   1.355
 8609WAT     H126069   9.631   0.378   1.428
 8609WAT     H226070   9.775   0.315   1.385
 8610WAT      O26071   6.124   0.018   0.200
 8610WAT     H126072   6.117   0.047   0.295
 8610WAT     H226073   6.193  -0.055   0.193
 8611WAT      O26074   7.278   7.825   7.497
 8611WAT     H126075   7.204   7.806   7.561
 8611WAT     H226076   7.246   7.888   7.426
 8612WAT      O26077   0.288   7.994   1.993
 8612WAT     H126078   0.285   8.086   2.033
 8612WAT     H226079   0.201   7.947   2.012
 8613WAT      O26080   9.365   3.793   6.507
 8613WAT     H126081   9.321   3.882   6.513
 8613WAT     H226082   9.461   3.805   6.481
 8614WAT      O26083   0.214   3.423   3.759
 8614WAT     H126084   0.297   3.458   3.802
 8614WAT     H226085   0.194   3.478   3.678
 8615WAT      O26086   7.320   6.185   2.815
 8615WAT     H126087   7.328   6.283   2.837
 8615WAT     H226088   7.372   6.166   2.731
 8616WAT      O26089   3.385   4.483   8.318
 8616WAT     H126090   3.423   4.572   8.291
 8616WAT     H226091   3.394   4.471   8.417
 8617WAT      O26092   8.288   8.468   5.634
 8617WAT     H126093   8.216   8.496   5.698
 8617WAT     H226094   8.247   8.440   5.548
 8618WAT      O26095   6.656   7.415   7.141
 8618WAT     H126096   6.700   7.411   7.052
 8618WAT     H226097   6.557   7.416   7.129
 8619WAT      O26098   4.954   8.516   0.295
 8619WAT     H126099   5.013   8.592   0.267
 8619WAT     H226100   4.986   8.480   0.383
 8620WAT      O26101   9.812   7.427   9.644
 8620WAT     H126102   9.835   7.397   9.737
 8620WAT     H226103   9.714   7.441   9.637
 8621WAT      O26104   3.501   1.255   4.855
 8621WAT     H126105   3.594   1.226   4.876
 8621WAT     H226106   3.436   1.184   4.883
 8622WAT      O26107   0.942   2.300   7.752
 8622WAT     H126108   0.874   2.279   7.822
 8622WAT     H226109   0.914   2.381   7.701
 8623WAT      O26110   1.912   1.050   9.231
 8623WAT     H126111   1.967   0.967   9.242
 8623WAT     H226112   1.934   1.115   9.304
 8624WAT      O26113   5.878   2.737   3.086
 8624WAT     H126114   5.819   2.804   3.132
 8624WAT     H226115   5.825   2.654   3.067
 8625WAT      O26116   2.458   6.909   6.251
 8625WAT     H126117   2.430   6.954   6.166
 8625WAT     H226118   2.503   6.974   6.311
 8626WAT      O26119   7.262   4.182   9.735
 8626WAT     H126120   7.196   4.257   9.739
 8626WAT     H226121   7.320   4.184   9.817
 8627WAT      O26122   7.816   5.082   4.491
 8627WAT     H126123   7.781   5.099   4.399
 8627WAT     H226124   7.766   5.138   4.557
 8628WAT      O26125   2.407   3.312   5.204
 8628WAT     H126126   2.354   3.234   5.173
 8628WAT     H226127   2.345   3.385   5.235
 8629WAT      O26128   1.782   7.389   6.614
 8629WAT     H126129   1.761   7.484   6.591
 8629WAT     H226130   1.787   7.334   6.531
 8630WAT      O26131   4.043   5.839   9.374
 8630WAT     H126132   4.089   5.842   9.285
 8630WAT     H226133   4.019   5.932   9.402
 8631WAT      O26134   2.068   7.292   4.729
 8631WAT     H126135   2.132   7.258   4.798
 8631WAT     H226136   2.021   7.373   4.764
 8632WAT      O26137   2.021   8.203   1.010
 8632WAT     H126138   2.108   8.210   1.058
 8632WAT     H226139   1.991   8.108   1.010
 8633WAT      O26140   1.057   3.974   9.206
 8633WAT     H126141   1.067   3.901   9.274
 8633WAT     H226142   0.992   3.944   9.135
 8634WAT      O26143   2.825   6.523   8.320
 8634WAT     H126144   2.893   6.597   8.315
 8634WAT     H226145   2.871   6.437   8.341
 8635WAT      O26146   7.302   0.174   8.007
 8635WAT     H126147   7.341   0.265   8.017
 8635WAT     H226148   7.259   0.146   8.093
 8636WAT      O26149   3.480   3.494   3.006
 8636WAT     H126150   3.492   3.407   2.958
 8636WAT     H226151   3.424   3.480   3.087
 8637WAT      O26152   7.729   3.755   4.658
 8637WAT     H126153   7.769   3.693   4.591
 8637WAT     H226154   7.775   3.743   4.746
 8638WAT      O26155   3.173   7.917   9.670
 8638WAT     H126156   3.191   7.832   9.719
 8638WAT     H226157   3.119   7.897   9.588
 8639WAT      O26158   1.071   7.502   5.059
 8639WAT     H126159   1.168   7.493   5.036
 8639WAT     H226160   1.028   7.412   5.057
 8640WAT      O26161   2.035   5.296   1.378
 8640WAT     H126162   2.058   5.200   1.390
 8640WAT     H226163   2.114   5.353   1.405
 8641WAT      O26164   8.002   5.572   5.280
 8641WAT     H126165   8.023   5.653   5.224
 8641WAT     H226166   8.082   5.512   5.283
 8642WAT      O26167   3.418   4.372   5.029
 8642WAT     H126168   3.516   4.388   5.020
 8642WAT     H226169   3.379   4.350   4.939
 8643WAT      O26170   4.394   8.919   8.066
 8643WAT     H126171   4.298   8.938   8.047
 8643WAT     H226172   4.448   9.003   8.059
 8644WAT      O26173   9.535   0.047   9.695
 8644WAT     H126174   9.630   0.040   9.665
 8644WAT     H226175   9.476   0.002   9.629
 8645WAT      O26176   1.900   6.656   4.779
 8645WAT     H126177   1.951   6.729   4.734
 8645WAT     H226178   1.802   6.676   4.773
 8646WAT      O26179   5.706   3.468   2.787
 8646WAT     H126180   5.754   3.485   2.701
 8646WAT     H226181   5.610   3.494   2.777
 8647WAT      O26182   5.607   7.552   2.532
 8647WAT     H126183   5.598   7.554   2.433
 8647WAT     H226184   5.655   7.634   2.564
 8648WAT      O26185   4.528   7.809   0.330
 8648WAT     H126186   4.539   7.905   0.305
 8648WAT     H226187   4.441   7.776   0.294
 8649WAT      O26188   7.572   0.200   5.516
 8649WAT     H126189   7.640   0.128   5.530
 8649WAT     H226190   7.520   0.213   5.600
 8650WAT      O26191   0.183   0.182   1.714
 8650WAT     H126192   0.120   0.110   1.743
 8650WAT     H226193   0.230   0.220   1.794
 8651WAT      O26194   4.262   4.954   4.350
 8651WAT     H126195   4.347   4.947   4.299
 8651WAT     H226196   4.225   4.862   4.367
 8652WAT      O26197   7.510   2.688   6.002
 8652WAT     H126198   7.480   2.723   5.913
 8652WAT     H226199   7.441   2.624   6.037
 8653WAT      O26200   5.863   2.398   9.670
 8653WAT     H126201   5.939   2.338   9.696
 8653WAT     H226202   5.870   2.484   9.722
 8654WAT      O26203   5.424   0.135   1.928
 8654WAT     H126204   5.503   0.087   1.966
 8654WAT     H226205   5.424   0.230   1.959
 8655WAT      O26206   0.803   2.517   4.495
 8655WAT     H126207   0.709   2.534   4.525
 8655WAT     H226208   0.867   2.562   4.558
 8656WAT      O26209   4.446   1.004   0.392
 8656WAT     H126210   4.359   0.973   0.430
 8656WAT     H226211   4.516   1.005   0.464
 8657WAT      O26212   8.362   5.134   5.947
 8657WAT     H126213   8.437   5.079   5.983
 8657WAT     H226214   8.286   5.074   5.921
 8658WAT      O26215   0.842   9.428   3.297
 8658WAT     H126216   0.755   9.414   3.250
 8658WAT     H226217   0.846   9.522   3.333
 8659WAT      O26218   4.753   3.279   4.675
 8659WAT     H126219   4.786   3.190   4.706
 8659WAT     H226220   4.688   3.315   4.742
 8660WAT      O26221   3.571   6.916   6.476
 8660WAT     H126222   3.530   6.844   6.532
 8660WAT     H226223   3.534   6.911   6.383
 8661WAT      O26224   2.643   9.820   6.399
 8661WAT     H126225   2.553   9.825   6.356
 8661WAT     H226226   2.638   9.760   6.479
 8662WAT      O26227   2.939   2.298   3.392
 8662WAT     H126228   2.899   2.268   3.306
 8662WAT     H226229   3.005   2.372   3.374
 8663WAT      O26230   9.077   6.938   0.347
 8663WAT     H126231   9.053   6.936   0.444
 8663WAT     H226232   9.175   6.951   0.337
 8664WAT      O26233   3.285   4.901   4.331
 8664WAT     H126234   3.283   5.000   4.340
 8664WAT     H226235   3.335   4.877   4.247
 8665WAT      O26236   6.721   0.428   5.224
 8665WAT     H126237   6.639   0.482   5.241
 8665WAT     H226238   6.699   0.330   5.231
 8666WAT      O26239   0.133   4.256   0.546
 8666WAT     H126240   0.061   4.320   0.571
 8666WAT     H226241   0.217   4.306   0.526
 8667WAT      O26242   3.526   3.201   9.280
 8667WAT     H126243   3.495   3.251   9.199
 8667WAT     H226244   3.446   3.175   9.335
 8668WAT      O26245   2.963   4.909   1.236
 8668WAT     H126246   2.935   4.949   1.323
 8668WAT     H226247   2.884   4.867   1.192
 8669WAT      O26248   2.809   9.365   6.629
 8669WAT     H126249   2.799   9.454   6.585
 8669WAT     H226250   2.893   9.363   6.683
 8670WAT      O26251   7.641   4.739   9.574
 8670WAT     H126252   7.735   4.741   9.541
 8670WAT     H226253   7.584   4.798   9.517
 8671WAT      O26254   2.952   3.541   8.837
 8671WAT     H126255   2.915   3.450   8.856
 8671WAT     H226256   3.051   3.536   8.829
 8672WAT      O26257   2.823   8.272   3.966
 8672WAT     H126258   2.867   8.319   3.889
 8672WAT     H226259   2.845   8.319   4.051
 8673WAT      O26260   9.076   4.122   7.192
 8673WAT     H126261   9.012   4.197   7.212
 8673WAT     H226262   9.101   4.124   7.096
 8674WAT      O26263   2.652   0.167   6.703
 8674WAT     H126264   2.717   0.135   6.634
 8674WAT     H226265   2.656   0.108   6.783
 8675WAT      O26266   4.562   2.471   4.114
 8675WAT     H126267   4.584   2.380   4.080
 8675WAT     H226268   4.494   2.464   4.188
 8676WAT      O26269   7.033   1.934   5.225
 8676WAT     H126270   7.021   1.838   5.198
 8676WAT     H226271   7.126   1.963   5.204
 8677WAT      O26272   4.980   9.844   5.288
 8677WAT     H126273   5.064   9.878   5.330
 8677WAT     H226274   4.972   9.745   5.303
 8678WAT      O26275   0.160   4.089   1.833
 8678WAT     H126276   0.072   4.138   1.828
 8678WAT     H226277   0.154   4.017   1.902
 8679WAT      O26278   5.935   9.248   7.125
 8679WAT     H126279   5.983   9.298   7.197
 8679WAT     H226280   5.839   9.277   7.124
 8680WAT      O26281   5.738   9.499   9.728
 8680WAT     H126282   5.821   9.554   9.733
 8680WAT     H226283   5.729   9.462   9.636
 8681WAT      O26284   9.344   5.619   1.016
 8681WAT     H126285   9.380   5.666   1.096
 8681WAT     H226286   9.280   5.680   0.968
 8682WAT      O26287   8.708   6.747   9.137
 8682WAT     H126288   8.684   6.765   9.232
 8682WAT     H226289   8.789   6.687   9.134
 8683WAT      O26290   9.493   1.691   4.215
 8683WAT     H126291   9.562   1.702   4.286
 8683WAT     H226292   9.440   1.776   4.206
 8684WAT      O26293   6.364   0.484   4.335
 8684WAT     H126294   6.334   0.539   4.413
 8684WAT     H226295   6.333   0.390   4.347
 8685WAT      O26296   1.291   4.789   1.721
 8685WAT     H126297   1.270   4.849   1.798
 8685WAT     H226298   1.370   4.732   1.745
 8686WAT      O26299   5.855   6.423   7.977
 8686WAT     H126300   5.869   6.474   7.892
 8686WAT     H226301   5.880   6.481   8.055
 8687WAT      O26302   2.889   2.344   8.527
 8687WAT     H126303   2.795   2.329   8.559
 8687WAT     H226304   2.942   2.387   8.600
 8688WAT      O26305   3.188   4.830   3.861
 8688WAT     H126306   3.097   4.806   3.827
 8688WAT     H226307   3.185   4.841   3.960
 8689WAT      O26308   9.540   9.400   8.523
 8689WAT     H126309   9.605   9.476   8.525
 8689WAT     H226310   9.534   9.359   8.614
 8690WAT      O26311   0.249   2.814   9.034
 8690WAT     H126312   0.338   2.770   9.048
 8690WAT     H226313   0.229   2.872   9.113
 8691WAT      O26314   6.043   2.871   2.700
 8691WAT     H126315   6.097   2.824   2.770
 8691WAT     H226316   5.991   2.945   2.742
 8692WAT      O26317   5.273   4.316   1.072
 8692WAT     H126318   5.270   4.408   1.033
 8692WAT     H226319   5.238   4.250   1.005
 8693WAT      O26320   0.345   7.410   4.229
 8693WAT     H126321   0.358   7.315   4.199
 8693WAT     H226322   0.250   7.423   4.257
 8694WAT      O26323   8.840   2.680   4.119
 8694WAT     H126324   8.937   2.692   4.098
 8694WAT     H226325   8.830   2.612   4.191
 8695WAT      O26326   3.142   6.683   5.543
 8695WAT     H126327   3.160   6.589   5.570
 8695WAT     H226328   3.149   6.692   5.443
 8696WAT      O26329   5.235   2.056   2.098
 8696WAT     H126330   5.324   2.037   2.141
 8696WAT     H226331   5.248   2.119   2.021
 8697WAT      O26332   0.351   0.063   2.351
 8697WAT     H126333   0.320   0.156   2.369
 8697WAT     H226334   0.295   0.022   2.279
 8698WAT      O26335   2.698   4.322   7.430
 8698WAT     H126336   2.770   4.346   7.495
 8698WAT     H226337   2.712   4.373   7.345
 8699WAT      O26338   7.362   1.306   6.974
 8699WAT     H126339   7.332   1.211   6.984
 8699WAT     H226340   7.325   1.360   7.049
 8700WAT      O26341   3.391   2.589   1.557
 8700WAT     H126342   3.367   2.556   1.465
 8700WAT     H226343   3.484   2.625   1.555
 8701WAT      O26344   1.287   0.783   1.055
 8701WAT     H126345   1.252   0.835   0.977
 8701WAT     H226346   1.226   0.707   1.075
 8702WAT      O26347   1.929   8.069   4.060
 8702WAT     H126348   1.993   8.109   4.126
 8702WAT     H226349   1.903   7.977   4.089
 8703WAT      O26350   3.512   3.367   1.216
 8703WAT     H126351   3.589   3.377   1.154
 8703WAT     H226352   3.466   3.280   1.197
 8704WAT      O26353   1.693   0.605   0.973
 8704WAT     H126354   1.611   0.578   0.922
 8704WAT     H226355   1.672   0.685   1.029
 8705WAT      O26356   3.047   6.473   7.120
 8705WAT     H126357   3.130   6.505   7.073
 8705WAT     H226358   3.021   6.539   7.191
 8706WAT      O26359   3.792   9.238   4.448
 8706WAT     H126360   3.773   9.155   4.395
 8706WAT     H226361   3.729   9.310   4.421
 8707WAT      O26362   9.031   5.609   4.609
 8707WAT     H126363   9.089   5.527   4.616
 8707WAT     H226364   9.085   5.685   4.572
 8708WAT      O26365   5.178   4.160   0.888
 8708WAT     H126366   5.117   4.100   0.940
 8708WAT     H226367   5.132   4.189   0.804
 8709WAT      O26368   1.777   0.863   0.376
 8709WAT     H126369   1.786   0.783   0.436
 8709WAT     H226370   1.724   0.837   0.294
 8710WAT      O26371   9.547   2.937   0.180
 8710WAT     H126372   9.463   2.968   0.135
 8710WAT     H226373   9.534   2.844   0.213
 8711WAT      O26374   9.302   9.044   2.411
 8711WAT     H126375   9.365   9.045   2.489
 8711WAT     H226376   9.326   9.117   2.347
 8712WAT      O26377   7.920   4.880   2.442
 8712WAT     H126378   7.993   4.935   2.483
 8712WAT     H226379   7.835   4.934   2.440
 8713WAT      O26380   1.401   8.955   9.826
 8713WAT     H126381   1.380   8.980   9.921
 8713WAT     H226382   1.373   8.860   9.810
 8714WAT      O26383   0.297   1.753   3.717
 8714WAT     H126384   0.255   1.785   3.803
 8714WAT     H226385   0.385   1.710   3.737
 8715WAT      O26386   4.277   9.554   6.788
 8715WAT     H126387   4.296   9.615   6.712
 8715WAT     H226388   4.361   9.510   6.818
 8716WAT      O26389   2.187   2.980   9.841
 8716WAT     H126390   2.181   2.979   9.941
 8716WAT     H226391   2.187   2.886   9.807
 8717WAT      O26392   4.055   7.973   7.129
 8717WAT     H126393   3.979   7.908   7.124
 8717WAT     H226394   4.141   7.923   7.128
 8718WAT      O26395   4.263   1.529   7.826
 8718WAT     H126396   4.259   1.567   7.919
 8718WAT     H226397   4.224   1.596   7.762
 8719WAT      O26398   9.192   3.669   6.724
 8719WAT     H126399   9.256   3.715   6.663
 8719WAT     H226400   9.110   3.725   6.735
 8720WAT      O26401   6.703   3.280   7.706
 8720WAT     H126402   6.654   3.363   7.678
 8720WAT     H226403   6.772   3.258   7.637
 8721WAT      O26404   9.140   2.834   9.617
 8721WAT     H126405   9.067   2.863   9.678
 8721WAT     H226406   9.104   2.770   9.550
 8722WAT      O26407   3.557   9.152   0.985
 8722WAT     H126408   3.459   9.158   0.968
 8722WAT     H226409   3.607   9.177   0.902
 8723WAT      O26410   3.421   1.567   9.179
 8723WAT     H126411   3.370   1.537   9.260
 8723WAT     H226412   3.508   1.519   9.174
 8724WAT      O26413   5.379   4.813   9.650
 8724WAT     H126414   5.465   4.842   9.693
 8724WAT     H226415   5.323   4.893   9.629
 8725WAT      O26416   3.902   9.181   5.283
 8725WAT     H126417   3.814   9.154   5.244
 8725WAT     H226418   3.907   9.281   5.288
 8726WAT      O26419   8.462   1.799   6.022
 8726WAT     H126420   8.375   1.841   5.998
 8726WAT     H226421   8.536   1.846   5.975
 8727WAT      O26422   0.717   6.472   6.883
 8727WAT     H126423   0.783   6.403   6.854
 8727WAT     H226424   0.753   6.521   6.962
 8728WAT      O26425   3.538   2.131   0.944
 8728WAT     H126426   3.551   2.230   0.946
 8728WAT     H226427   3.627   2.085   0.943
 8729WAT      O26428   1.581   1.349   9.888
 8729WAT     H126429   1.621   1.257   9.895
 8729WAT     H226430   1.654   1.416   9.878
 8730WAT      O26431   8.021   7.199   3.075
 8730WAT     H126432   8.114   7.178   3.043
 8730WAT     H226433   7.967   7.235   2.999
 8731WAT      O26434   7.418   3.333   1.370
 8731WAT     H126435   7.345   3.355   1.305
 8731WAT     H226436   7.489   3.280   1.324
 8732WAT      O26437   6.690   3.652   5.999
 8732WAT     H126438   6.717   3.669   5.904
 8732WAT     H226439   6.732   3.566   6.030
 8733WAT      O26440   3.483   8.337   6.328
 8733WAT     H126441   3.439   8.248   6.345
 8733WAT     H226442   3.579   8.322   6.306
 8734WAT      O26443   2.838   1.118   0.796
 8734WAT     H126444   2.777   1.193   0.771
 8734WAT     H226445   2.786   1.033   0.802
 8735WAT      O26446   4.081   2.305   1.719
 8735WAT     H126447   4.149   2.378   1.723
 8735WAT     H226448   4.055   2.288   1.624
 8736WAT      O26449   3.516   0.728   8.702
 8736WAT     H126450   3.518   0.665   8.780
 8736WAT     H226451   3.492   0.677   8.619
 8737WAT      O26452   0.607   3.677   1.377
 8737WAT     H126453   0.600   3.773   1.349
 8737WAT     H226454   0.695   3.661   1.421
 8738WAT      O26455   9.554   2.986   4.591
 8738WAT     H126456   9.467   2.940   4.608
 8738WAT     H226457   9.568   2.997   4.492
 8739WAT      O26458   5.749   8.447   1.671
 8739WAT     H126459   5.804   8.493   1.741
 8739WAT     H226460   5.806   8.429   1.590
 8740WAT      O26461   3.295   3.580   4.418
 8740WAT     H126462   3.295   3.668   4.372
 8740WAT     H226463   3.343   3.588   4.506
 8741WAT      O26464   0.253   5.502   6.735
 8741WAT     H126465   0.327   5.437   6.755
 8741WAT     H226466   0.165   5.456   6.743
 8742WAT      O26467   3.091   4.493   1.231
 8742WAT     H126468   3.144   4.414   1.199
 8742WAT     H226469   3.140   4.577   1.209
 8743WAT      O26470   6.435   9.185   9.613
 8743WAT     H126471   6.527   9.211   9.642
 8743WAT     H226472   6.373   9.187   9.692
 8744WAT      O26473   1.581   4.404   3.748
 8744WAT     H126474   1.568   4.387   3.846
 8744WAT     H226475   1.494   4.428   3.706
 8745WAT      O26476   1.642   0.758   6.911
 8745WAT     H126477   1.649   0.691   6.985
 8745WAT     H226478   1.672   0.847   6.944
 8746WAT      O26479   0.020   6.815   7.633
 8746WAT     H126480   0.042   6.847   7.724
 8746WAT     H226481   0.095   6.758   7.598
 8747WAT      O26482   0.179   9.565   0.538
 8747WAT     H126483   0.099   9.589   0.483
 8747WAT     H226484   0.250   9.635   0.526
 8748WAT      O26485   6.974   4.118   8.729
 8748WAT     H126486   6.984   4.089   8.824
 8748WAT     H226487   6.877   4.123   8.706
 8749WAT      O26488   4.511   5.432   5.824
 8749WAT     H126489   4.529   5.434   5.922
 8749WAT     H226490   4.416   5.459   5.807
 8750WAT      O26491   2.292   6.601   3.457
 8750WAT     H126492   2.360   6.674   3.465
 8750WAT     H226493   2.221   6.629   3.393
 8751WAT      O26494   9.249   7.112   5.233
 8751WAT     H126495   9.287   7.082   5.145
 8751WAT     H226496   9.149   7.102   5.231
 8752WAT      O26497   8.628   5.906   7.485
 8752WAT     H126498   8.602   5.914   7.389
 8752WAT     H226499   8.596   5.819   7.521
 8753WAT      O26500   0.293   2.575   1.789
 8753WAT     H126501   0.379   2.604   1.748
 8753WAT     H226502   0.274   2.480   1.764
 8754WAT      O26503   9.763   1.685   6.148
 8754WAT     H126504   9.814   1.666   6.232
 8754WAT     H226505   9.815   1.649   6.070
 8755WAT      O26506   8.435   8.697   5.574
 8755WAT     H126507   8.532   8.700   5.599
 8755WAT     H226508   8.403   8.602   5.578
 8756WAT      O26509   3.713   6.716   9.494
 8756WAT     H126510   3.647   6.659   9.542
 8756WAT     H226511   3.750   6.665   9.416
 8757WAT      O26512   0.079   2.003   7.264
 8757WAT     H126513   0.081   2.091   7.217
 8757WAT     H226514   0.018   2.009   7.343
 8758WAT      O26515   3.192   5.312   0.452
 8758WAT     H126516   3.277   5.365   0.461
 8758WAT     H226517   3.194   5.259   0.368
 8759WAT      O26518   8.898   7.126   4.396
 8759WAT     H126519   8.967   7.120   4.468
 8759WAT     H226520   8.926   7.193   4.328
 8760WAT      O26521   6.821   9.036   0.875
 8760WAT     H126522   6.799   8.940   0.895
 8760WAT     H226523   6.739   9.082   0.841
 8761WAT      O26524   4.436   9.836   0.783
 8761WAT     H126525   4.499   9.812   0.709
 8761WAT     H226526   4.384   9.918   0.757
 8762WAT      O26527   8.197   4.713   1.499
 8762WAT     H126528   8.153   4.693   1.587
 8762WAT     H226529   8.263   4.641   1.478
 8763WAT      O26530   0.431   5.693   1.298
 8763WAT     H126531   0.470   5.616   1.247
 8763WAT     H226532   0.452   5.682   1.395
 8764WAT      O26533   9.689   2.008   4.654
 8764WAT     H126534   9.656   1.916   4.674
 8764WAT     H226535   9.775   2.024   4.703
 8765WAT      O26536   3.786   6.799   5.296
 8765WAT     H126537   3.704   6.762   5.340
 8765WAT     H226538   3.863   6.737   5.311
 8766WAT      O26539   5.903   7.185   3.012
 8766WAT     H126540   5.920   7.233   3.099
 8766WAT     H226541   5.809   7.201   2.983
 8767WAT      O26542   0.553   8.822   5.737
 8767WAT     H126543   0.652   8.811   5.740
 8767WAT     H226544   0.517   8.827   5.830
 8768WAT      O26545   2.423   0.600   7.194
 8768WAT     H126546   2.375   0.549   7.265
 8768WAT     H226547   2.494   0.542   7.153
 8769WAT      O26548   7.838   1.620   9.753
 8769WAT     H126549   7.854   1.699   9.694
 8769WAT     H226550   7.923   1.568   9.763
 8770WAT      O26551   6.498   5.377   4.299
 8770WAT     H126552   6.587   5.368   4.255
 8770WAT     H226553   6.430   5.324   4.248
 8771WAT      O26554   0.539   7.073   2.104
 8771WAT     H126555   0.618   7.128   2.131
 8771WAT     H226556   0.543   6.984   2.152
 8772WAT      O26557   3.531   0.584   7.838
 8772WAT     H126558   3.432   0.570   7.831
 8772WAT     H226559   3.561   0.646   7.766
 8773WAT      O26560   8.083   1.551   8.002
 8773WAT     H126561   8.161   1.504   8.044
 8773WAT     H226562   8.050   1.498   7.924
 8774WAT      O26563   7.138   7.496   4.152
 8774WAT     H126564   7.144   7.397   4.162
 8774WAT     H226565   7.226   7.531   4.119
 8775WAT      O26566   5.975   4.638   9.195
 8775WAT     H126567   5.973   4.700   9.273
 8775WAT     H226568   5.882   4.608   9.174
 8776WAT      O26569   9.847   9.066   7.018
 8776WAT     H126570   9.877   9.011   6.939
 8776WAT     H226571   9.927   9.105   7.063
 8777WAT      O26572   8.143   3.698   0.724
 8777WAT     H126573   8.232   3.738   0.746
 8777WAT     H226574   8.092   3.760   0.665
 8778WAT      O26575   5.634   7.290   5.550
 8778WAT     H126576   5.603   7.292   5.454
 8778WAT     H226577   5.670   7.380   5.575
 8779WAT      O26578   5.549   0.778   3.470
 8779WAT     H126579   5.539   0.833   3.387
 8779WAT     H226580   5.560   0.840   3.548
 8780WAT      O26581   7.541   7.199   1.231
 8780WAT     H126582   7.560   7.195   1.329
 8780WAT     H226583   7.442   7.200   1.216
 8781WAT      O26584   0.552   8.002   9.695
 8781WAT     H126585   0.621   7.933   9.675
 8781WAT     H226586   0.470   7.983   9.640
 8782WAT      O26587   1.074   1.253   7.860
 8782WAT     H126588   0.992   1.258   7.916
 8782WAT     H226589   1.055   1.293   7.770
 8783WAT      O26590   0.288   6.364   0.674
 8783WAT     H126591   0.234   6.301   0.729
 8783WAT     H226592   0.360   6.405   0.731
 8784WAT      O26593   8.874   0.847   9.588
 8784WAT     H126594   8.886   0.946   9.593
 8784WAT     H226595   8.846   0.813   9.678
 8785WAT      O26596   3.120   9.108   6.512
 8785WAT     H126597   3.025   9.081   6.530
 8785WAT     H226598   3.122   9.203   6.482
 8786WAT      O26599   4.012   6.344   4.113
 8786WAT     H126600   4.093   6.296   4.078
 8786WAT     H226601   4.029   6.370   4.208
 8787WAT      O26602   9.444   3.257   6.760
 8787WAT     H126603   9.441   3.354   6.783
 8787WAT     H226604   9.494   3.208   6.831
 8788WAT      O26605   6.071   0.167   4.475
 8788WAT     H126606   6.040   0.228   4.548
 8788WAT     H226607   6.005   0.169   4.400
 8789WAT      O26608   5.401   6.165   8.709
 8789WAT     H126609   5.438   6.234   8.771
 8789WAT     H226610   5.467   6.147   8.636
 8790WAT      O26611   4.864   6.319   7.824
 8790WAT     H126612   4.790   6.374   7.785
 8790WAT     H226613   4.909   6.370   7.897
 8791WAT      O26614   0.499   1.768   0.588
 8791WAT     H126615   0.529   1.764   0.684
 8791WAT     H226616   0.509   1.677   0.547
 8792WAT      O26617   7.302   7.753   0.022
 8792WAT     H126618   7.207   7.720   0.017
 8792WAT     H226619   7.303   7.846   0.057
 8793WAT      O26620   2.954   3.974   8.775
 8793WAT     H126621   2.968   3.886   8.820
 8793WAT     H226622   2.913   4.038   8.839
 8794WAT      O26623   6.742   3.016   2.881
 8794WAT     H126624   6.660   3.073   2.881
 8794WAT     H226625   6.812   3.059   2.937
 8795WAT      O26626   7.163   0.176   7.173
 8795WAT     H126627   7.085   0.157   7.113
 8795WAT     H226628   7.136   0.240   7.244
 8796WAT      O26629   7.073   0.225   5.926
 8796WAT     H126630   6.984   0.191   5.898
 8796WAT     H226631   7.063   0.281   6.008
 8797WAT      O26632   7.012   2.408   8.063
 8797WAT     H126633   6.943   2.342   8.093
 8797WAT     H226634   6.979   2.456   7.981
 8798WAT      O26635   3.788   0.371   7.595
 8798WAT     H126636   3.705   0.420   7.567
 8798WAT     H226637   3.818   0.406   7.684
 8799WAT      O26638   3.460   2.796   7.553
 8799WAT     H126639   3.558   2.794   7.533
 8799WAT     H226640   3.444   2.854   7.633
 8800WAT      O26641   4.057   3.237   3.277
 8800WAT     H126642   4.065   3.321   3.223
 8800WAT     H226643   4.148   3.204   3.301
 8801WAT      O26644   4.163   4.622   5.527
 8801WAT     H126645   4.153   4.535   5.576
 8801WAT     H226646   4.217   4.607   5.444
 8802WAT      O26647   9.112   4.579   5.580
 8802WAT     H126648   9.124   4.491   5.625
 8802WAT     H226649   9.015   4.593   5.558
 8803WAT      O26650   9.866   2.232   3.285
 8803WAT     H126651   9.783   2.258   3.235
 8803WAT     H226652   9.947   2.252   3.230
 8804WAT      O26653   3.118   1.589   5.367
 8804WAT     H126654   3.022   1.612   5.386
 8804WAT     H226655   3.125   1.548   5.277
 8805WAT      O26656   1.480   8.081   6.190
 8805WAT     H126657   1.414   8.006   6.187
 8805WAT     H226658   1.497   8.114   6.098
 8806WAT      O26659   1.715   5.645   3.929
 8806WAT     H126660   1.702   5.560   3.877
 8806WAT     H226661   1.768   5.625   4.011
 8807WAT      O26662   7.802   3.189   0.598
 8807WAT     H126663   7.838   3.282   0.589
 8807WAT     H226664   7.709   3.186   0.562
 8808WAT      O26665   7.899   1.270   9.657
 8808WAT     H126666   7.948   1.310   9.734
 8808WAT     H226667   7.960   1.269   9.577
 8809WAT      O26668   6.173   5.297   3.743
 8809WAT     H126669   6.246   5.314   3.809
 8809WAT     H226670   6.211   5.259   3.659
 8810WAT      O26671   3.035   3.575   1.607
 8810WAT     H126672   3.025   3.477   1.589
 8810WAT     H226673   3.095   3.615   1.537
 8811WAT      O26674   7.741   1.121   3.370
 8811WAT     H126675   7.716   1.097   3.464
 8811WAT     H226676   7.769   1.217   3.366
 8812WAT      O26677   0.726   6.433   4.516
 8812WAT     H126678   0.826   6.435   4.511
 8812WAT     H226679   0.688   6.492   4.445
 8813WAT      O26680   9.073   7.734   2.523
 8813WAT     H126681   9.121   7.739   2.435
 8813WAT     H226682   9.051   7.639   2.544
 8814WAT      O26683   2.939   3.204   0.550
 8814WAT     H126684   2.971   3.299   0.555
 8814WAT     H226685   2.980   3.159   0.471
 8815WAT      O26686   8.249   4.370   9.835
 8815WAT     H126687   8.236   4.366   9.736
 8815WAT     H226688   8.213   4.457   9.870
 8816WAT      O26689   6.866   2.550   9.707
 8816WAT     H126690   6.787   2.500   9.672
 8816WAT     H226691   6.916   2.494   9.772
 8817WAT      O26692   1.824   8.224   7.935
 8817WAT     H126693   1.868   8.142   7.899
 8817WAT     H226694   1.894   8.285   7.973
 8818WAT      O26695   5.156   2.781   3.541
 8818WAT     H126696   5.224   2.814   3.477
 8818WAT     H226697   5.197   2.713   3.602
 8819WAT      O26698   1.862   6.422   8.695
 8819WAT     H126699   1.897   6.411   8.788
 8819WAT     H226700   1.931   6.469   8.639
 8820WAT      O26701   8.695   6.763   2.131
 8820WAT     H126702   8.716   6.683   2.186
 8820WAT     H226703   8.776   6.822   2.126
 8821WAT      O26704   3.645   3.037   4.356
 8821WAT     H126705   3.636   2.947   4.399
 8821WAT     H226706   3.723   3.085   4.395
 8822WAT      O26707   2.447   3.495   2.669
 8822WAT     H126708   2.494   3.557   2.732
 8822WAT     H226709   2.376   3.445   2.718
 8823WAT      O26710   9.447   8.556   0.031
 8823WAT     H126711   9.483   8.621   0.097
 8823WAT     H226712   9.348   8.571   0.020
 8824WAT      O26713   6.091   4.343   4.766
 8824WAT     H126714   6.046   4.346   4.855
 8824WAT     H226715   6.039   4.284   4.704
 8825WAT      O26716   6.605   1.900   5.268
 8825WAT     H126717   6.676   1.961   5.233
 8825WAT     H226718   6.529   1.897   5.204
 8826WAT      O26719   4.701   9.152   2.008
 8826WAT     H126720   4.795   9.183   2.024
 8826WAT     H226721   4.679   9.078   2.072
 8827WAT      O26722   8.138   3.763   7.283
 8827WAT     H126723   8.057   3.822   7.280
 8827WAT     H226724   8.188   3.771   7.197
 8828WAT      O26725   1.342   9.042   3.081
 8828WAT     H126726   1.270   9.108   3.102
 8828WAT     H226727   1.378   9.004   3.166
 8829WAT      O26728   4.308   0.688   5.940
 8829WAT     H126729   4.392   0.738   5.962
 8829WAT     H226730   4.331   0.591   5.925
 8830WAT      O26731   4.358   5.855   5.538
 8830WAT     H126732   4.285   5.844   5.606
 8830WAT     H226733   4.326   5.822   5.449
 8831WAT      O26734   7.863   6.595   9.268
 8831WAT     H126735   7.948   6.596   9.215
 8831WAT     H226736   7.867   6.665   9.339
 8832WAT      O26737   7.122   7.400   1.473
 8832WAT     H126738   7.186   7.464   1.431
 8832WAT     H226739   7.068   7.448   1.543
 8833WAT      O26740   3.139   8.636   0.356
 8833WAT     H126741   3.050   8.682   0.358
 8833WAT     H226742   3.207   8.693   0.401
 8834WAT      O26743   2.728   3.962   5.586
 8834WAT     H126744   2.646   3.914   5.617
 8834WAT     H226745   2.809   3.911   5.616
 8835WAT      O26746   1.878   4.948   4.035
 8835WAT     H126747   1.923   4.969   4.121
 8835WAT     H226748   1.782   4.925   4.052
 8836WAT      O26749   1.003   3.775   8.761
 8836WAT     H126750   0.926   3.790   8.700
 8836WAT     H226751   1.088   3.793   8.712
 8837WAT      O26752   0.450   7.917   8.970
 8837WAT     H126753   0.498   7.845   9.022
 8837WAT     H226754   0.409   7.877   8.888
 8838WAT      O26755   1.034   1.174   8.329
 8838WAT     H126756   1.055   1.082   8.363
 8838WAT     H226757   0.977   1.221   8.396
 8839WAT      O26758   8.528   7.848   2.566
 8839WAT     H126759   8.489   7.908   2.495
 8839WAT     H226760   8.622   7.825   2.541
 8840WAT      O26761   0.334   3.474   0.873
 8840WAT     H126762   0.281   3.396   0.903
 8840WAT     H226763   0.384   3.450   0.790
 8841WAT      O26764   6.690   4.976   0.394
 8841WAT     H126765   6.783   5.011   0.392
 8841WAT     H226766   6.631   5.040   0.443
 8842WAT      O26767   8.632   2.001   5.447
 8842WAT     H126768   8.670   1.931   5.507
 8842WAT     H226769   8.617   2.085   5.499
 8843WAT      O26770   8.246   7.965   8.194
 8843WAT     H126771   8.272   8.057   8.222
 8843WAT     H226772   8.300   7.938   8.114
 8844WAT      O26773   5.310   8.694   2.014
 8844WAT     H126774   5.345   8.782   2.046
 8844WAT     H226775   5.317   8.689   1.915
 8845WAT      O26776   9.409   1.852   3.557
 8845WAT     H126777   9.387   1.829   3.462
 8845WAT     H226778   9.328   1.838   3.614
 8846WAT      O26779   6.871   3.899   5.238
 8846WAT     H126780   6.938   3.966   5.204
 8846WAT     H226781   6.844   3.838   5.163
 8847WAT      O26782   1.993   0.208   4.934
 8847WAT     H126783   1.894   0.223   4.937
 8847WAT     H226784   2.025   0.180   5.025
 8848WAT      O26785   4.279   8.430   5.313
 8848WAT     H126786   4.236   8.462   5.397
 8848WAT     H226787   4.259   8.495   5.239
 8849WAT      O26788   7.443   1.015   0.324
 8849WAT     H126789   7.397   1.088   0.273
 8849WAT     H226790   7.507   0.968   0.263
 8850WAT      O26791   6.201   2.419   8.088
 8850WAT     H126792   6.253   2.335   8.078
 8850WAT     H226793   6.241   2.491   8.032
 8851WAT      O26794   0.365   4.969   4.364
 8851WAT     H126795   0.324   5.049   4.319
 8851WAT     H226796   0.409   4.911   4.295
 8852WAT      O26797   5.517   4.558   4.120
 8852WAT     H126798   5.543   4.552   4.216
 8852WAT     H226799   5.418   4.547   4.111
 8853WAT      O26800   9.136   0.235   6.596
 8853WAT     H126801   9.126   0.191   6.507
 8853WAT     H226802   9.144   0.166   6.667
 8854WAT      O26803   4.714   1.823   8.360
 8854WAT     H126804   4.651   1.814   8.282
 8854WAT     H226805   4.693   1.907   8.410
 8855WAT      O26806   4.339   9.699   6.069
 8855WAT     H126807   4.423   9.696   6.122
 8855WAT     H226808   4.265   9.734   6.126
 8856WAT      O26809   5.489   3.816   0.482
 8856WAT     H126810   5.486   3.775   0.391
 8856WAT     H226811   5.584   3.837   0.506
 8857WAT      O26812   5.262   6.260   0.308
 8857WAT     H126813   5.283   6.220   0.397
 8857WAT     H226814   5.198   6.336   0.320
 8858WAT      O26815   2.830   7.901   8.955
 8858WAT     H126816   2.818   7.808   8.990
 8858WAT     H226817   2.927   7.926   8.961
 8859WAT      O26818   7.895   9.020   2.484
 8859WAT     H126819   7.819   9.086   2.486
 8859WAT     H226820   7.924   9.004   2.390
 8860WAT      O26821   4.340   7.937   3.131
 8860WAT     H126822   4.404   7.993   3.078
 8860WAT     H226823   4.254   7.929   3.081
 8861WAT      O26824   8.918   7.013   7.251
 8861WAT     H126825   8.957   7.067   7.178
 8861WAT     H226826   8.818   7.015   7.246
 8862WAT      O26827   4.085   9.366   6.202
 8862WAT     H126828   4.060   9.269   6.203
 8862WAT     H226829   4.160   9.380   6.138
 8863WAT      O26830   7.553   1.251   7.247
 8863WAT     H126831   7.624   1.191   7.284
 8863WAT     H226832   7.589   1.303   7.170
 8864WAT      O26833   8.320   2.288   1.932
 8864WAT     H126834   8.314   2.285   2.031
 8864WAT     H226835   8.390   2.224   1.901
 8865WAT      O26836   8.325   7.039   3.254
 8865WAT     H126837   8.347   6.951   3.212
 8865WAT     H226838   8.367   7.044   3.344
 8866WAT      O26839   5.238   7.126   8.602
 8866WAT     H126840   5.292   7.190   8.657
 8866WAT     H226841   5.144   7.125   8.634
 8867WAT      O26842   5.089   3.449   9.790
 8867WAT     H126843   5.028   3.465   9.713
 8867WAT     H226844   5.055   3.374   9.846
 8868WAT      O26845   8.316   7.832   1.773
 8868WAT     H126846   8.296   7.743   1.813
 8868WAT     H226847   8.391   7.875   1.822
 8869WAT      O26848   7.015   6.184   6.751
 8869WAT     H126849   7.005   6.121   6.674
 8869WAT     H226850   7.088   6.153   6.811
 8870WAT      O26851   0.469   4.656   2.572
 8870WAT     H126852   0.553   4.608   2.545
 8870WAT     H226853   0.447   4.633   2.667
 8871WAT      O26854   2.325   4.614   9.795
 8871WAT     H126855   2.293   4.531   9.749
 8871WAT     H226856   2.394   4.591   9.863
 8872WAT      O26857   1.070   6.842   9.828
 8872WAT     H126858   1.094   6.892   9.912
 8872WAT     H226859   1.150   6.838   9.768
 8873WAT      O26860   4.681   6.783   3.389
 8873WAT     H126861   4.679   6.730   3.304
 8873WAT     H226862   4.697   6.721   3.466
 8874WAT      O26863   9.885   2.169   9.370
 8874WAT     H126864   9.842   2.256   9.393
 8874WAT     H226865   9.883   2.110   9.451
 8875WAT      O26866   1.098   2.260   9.053
 8875WAT     H126867   1.127   2.172   9.090
 8875WAT     H226868   1.178   2.312   9.024
 8876WAT      O26869   9.366   7.717   0.482
 8876WAT     H126870   9.399   7.634   0.436
 8876WAT     H226871   9.318   7.774   0.415
 8877WAT      O26872   8.663   6.012   0.115
 8877WAT     H126873   8.677   5.913   0.127
 8877WAT     H226874   8.736   6.048   0.057
 8878WAT      O26875   7.575   2.338   0.224
 8878WAT     H126876   7.553   2.414   0.164
 8878WAT     H226877   7.640   2.368   0.294
 8879WAT      O26878   3.260   5.552   6.301
 8879WAT     H126879   3.341   5.513   6.259
 8879WAT     H226880   3.275   5.649   6.320
 8880WAT      O26881   6.837   3.126   6.913
 8880WAT     H126882   6.749   3.117   6.960
 8880WAT     H226883   6.872   3.219   6.925
 8881WAT      O26884   7.826   7.080   6.907
 8881WAT     H126885   7.791   7.136   6.832
 8881WAT     H226886   7.857   6.992   6.871
 8882WAT      O26887   9.092   8.277   3.902
 8882WAT     H126888   9.003   8.293   3.946
 8882WAT     H226889   9.165   8.299   3.967
 8883WAT      O26890   4.650   8.995   1.787
 8883WAT     H126891   4.621   8.935   1.862
 8883WAT     H226892   4.658   9.089   1.820
 8884WAT      O26893   8.137   0.739   8.128
 8884WAT     H126894   8.218   0.797   8.133
 8884WAT     H226895   8.164   0.644   8.113
 8885WAT      O26896   7.970   0.079   7.906
 8885WAT     H126897   7.966   0.038   7.815
 8885WAT     H226898   8.036   0.154   7.906
 8886WAT      O26899   7.759   1.208   8.114
 8886WAT     H126900   7.848   1.203   8.068
 8886WAT     H226901   7.686   1.204   8.047
 8887WAT      O26902   2.202   6.111   3.307
 8887WAT     H126903   2.147   6.092   3.226
 8887WAT     H226904   2.278   6.047   3.311
 8888WAT      O26905   3.471   8.125   1.231
 8888WAT     H126906   3.409   8.063   1.278
 8888WAT     H226907   3.483   8.096   1.136
 8889WAT      O26908   9.356   2.988   4.149
 8889WAT     H126909   9.303   2.928   4.209
 8889WAT     H226910   9.336   2.966   4.054
 8890WAT      O26911   1.070   0.707   8.234
 8890WAT     H126912   1.063   0.719   8.135
 8890WAT     H226913   0.983   0.672   8.269
 8891WAT      O26914   3.708   6.786   8.479
 8891WAT     H126915   3.786   6.725   8.486
 8891WAT     H226916   3.692   6.807   8.382
 8892WAT      O26917   7.797   1.157   0.626
 8892WAT     H126918   7.863   1.210   0.573
 8892WAT     H226919   7.744   1.099   0.564
 8893WAT      O26920   6.515   2.644   6.085
 8893WAT     H126921   6.445   2.594   6.136
 8893WAT     H226922   6.555   2.586   6.015
 8894WAT      O26923   7.383   6.831   3.705
 8894WAT     H126924   7.414   6.880   3.787
 8894WAT     H226925   7.373   6.896   3.630
 8895WAT      O26926   5.643   8.926   8.983
 8895WAT     H126927   5.618   8.829   8.993
 8895WAT     H226928   5.662   8.964   9.073
 8896WAT      O26929   9.485   1.018   1.480
 8896WAT     H126930   9.508   1.115   1.481
 8896WAT     H226931   9.568   0.964   1.464
 8897WAT      O26932   7.614   7.704   4.170
 8897WAT     H126933   7.531   7.680   4.121
 8897WAT     H226934   7.593   7.774   4.238
 8898WAT      O26935   9.823   5.742   3.904
 8898WAT     H126936   9.738   5.728   3.954
 8898WAT     H226937   9.869   5.824   3.939
 8899WAT      O26938   9.100   6.939   5.059
 8899WAT     H126939   9.059   6.904   5.143
 8899WAT     H226940   9.042   7.011   5.021
 8900WAT      O26941   6.302   0.764   2.150
 8900WAT     H126942   6.239   0.694   2.184
 8900WAT     H226943   6.277   0.853   2.190
 8901WAT      O26944   2.554   8.360   8.417
 8901WAT     H126945   2.628   8.426   8.404
 8901WAT     H226946   2.469   8.408   8.440
 8902WAT      O26947   2.747   7.551   3.709
 8902WAT     H126948   2.829   7.541   3.652
 8902WAT     H226949   2.680   7.482   3.682
 8903WAT      O26950   1.853   8.195   9.751
 8903WAT     H126951   1.891   8.245   9.673
 8903WAT     H226952   1.908   8.113   9.768
 8904WAT      O26953   0.289   5.476   9.129
 8904WAT     H126954   0.322   5.480   9.035
 8904WAT     H226955   0.313   5.387   9.168
 8905WAT      O26956   7.108   5.914   8.989
 8905WAT     H126957   7.188   5.951   8.941
 8905WAT     H226958   7.029   5.974   8.973
 8906WAT      O26959   7.426   2.699   2.201
 8906WAT     H126960   7.501   2.734   2.256
 8906WAT     H226961   7.340   2.710   2.250
 8907WAT      O26962   0.112   3.499   5.748
 8907WAT     H126963   0.143   3.594   5.752
 8907WAT     H226964   0.170   3.443   5.807
 8908WAT      O26965   1.391   5.754   6.966
 8908WAT     H126966   1.335   5.836   6.981
 8908WAT     H226967   1.426   5.755   6.872
 8909WAT      O26968   7.201   0.300   2.516
 8909WAT     H126969   7.243   0.391   2.507
 8909WAT     H226970   7.223   0.245   2.436
 8910WAT      O26971   4.362   0.292   1.901
 8910WAT     H126972   4.286   0.356   1.912
 8910WAT     H226973   4.429   0.307   1.973
 8911WAT      O26974   9.120   2.800   0.826
 8911WAT     H126975   9.160   2.891   0.810
 8911WAT     H226976   9.176   2.751   0.893
 8912WAT      O26977   3.136   6.749   8.798
 8912WAT     H126978   3.118   6.657   8.833
 8912WAT     H226979   3.163   6.808   8.874
 8913WAT      O26980   0.823   7.544   6.251
 8913WAT     H126981   0.921   7.539   6.231
 8913WAT     H226982   0.805   7.500   6.339
 8914WAT      O26983   3.396   6.269   5.167
 8914WAT     H126984   3.315   6.281   5.109
 8914WAT     H226985   3.398   6.176   5.202
 8915WAT      O26986   3.239   4.948   9.599
 8915WAT     H126987   3.286   4.958   9.512
 8915WAT     H226988   3.167   5.017   9.606
 8916WAT      O26989   2.138   4.915   5.196
 8916WAT     H126990   2.180   4.967   5.271
 8916WAT     H226991   2.208   4.892   5.128
 8917WAT      O26992   1.150   7.028   8.973
 8917WAT     H126993   1.150   6.928   8.962
 8917WAT     H226994   1.172   7.051   9.067
 8918WAT      O26995   2.283   4.084   7.693
 8918WAT     H126996   2.355   4.085   7.624
 8918WAT     H226997   2.202   4.038   7.655
 8919WAT      O26998   3.068   4.392   3.285
 8919WAT     H126999   3.080   4.467   3.221
 8919WAT     H227000   2.970   4.375   3.299
 8920WAT      O27001   8.950   9.190   1.204
 8920WAT     H127002   8.960   9.248   1.123
 8920WAT     H227003   9.035   9.139   1.219
 8921WAT      O27004   5.765   6.235   8.230
 8921WAT     H127005   5.734   6.162   8.169
 8921WAT     H227006   5.832   6.292   8.183
 8922WAT      O27007   7.081   2.529   2.118
 8922WAT     H127008   7.068   2.571   2.208
 8922WAT     H227009   7.014   2.566   2.054
 8923WAT      O27010   5.247   4.957   8.941
 8923WAT     H127011   5.162   4.907   8.955
 8923WAT     H227012   5.303   4.953   9.024
 8924WAT      O27013   1.741   8.355   4.216
 8924WAT     H127014   1.738   8.454   4.205
 8924WAT     H227015   1.757   8.312   4.128
 8925WAT      O27016   4.605   9.528   1.818
 8925WAT     H127017   4.654   9.580   1.749
 8925WAT     H227018   4.662   9.519   1.900
 8926WAT      O27019   1.363   9.382   1.626
 8926WAT     H127020   1.406   9.465   1.590
 8926WAT     H227021   1.281   9.407   1.678
 8927WAT      O27022   7.442   7.694   6.906
 8927WAT     H127023   7.505   7.729   6.975
 8927WAT     H227024   7.484   7.618   6.857
 8928WAT      O27025   8.731   0.999   7.653
 8928WAT     H127026   8.753   1.006   7.556
 8928WAT     H227027   8.640   1.038   7.670
 8929WAT      O27028   5.097   8.943   5.200
 8929WAT     H127029   5.054   8.982   5.119
 8929WAT     H227030   5.050   8.858   5.225
 8930WAT      O27031   0.143   9.760   0.289
 8930WAT     H127032   0.058   9.722   0.326
 8930WAT     H227033   0.216   9.692   0.298
 8931WAT      O27034   4.709   8.427   5.407
 8931WAT     H127035   4.634   8.466   5.354
 8931WAT     H227036   4.793   8.430   5.353
 8932WAT      O27037   4.939   8.133   3.441
 8932WAT     H127038   4.950   8.158   3.344
 8932WAT     H227039   4.852   8.168   3.474
 8933WAT      O27040   8.610   1.583   3.568
 8933WAT     H127041   8.608   1.671   3.520
 8933WAT     H227042   8.705   1.560   3.591
 8934WAT      O27043   6.498   8.801   6.922
 8934WAT     H127044   6.530   8.865   6.991
 8934WAT     H227045   6.410   8.833   6.885
 8935WAT      O27046   3.903   7.063   4.418
 8935WAT     H127047   3.935   6.990   4.477
 8935WAT     H227048   3.848   7.024   4.344
 8936WAT      O27049   0.290   0.770   1.672
 8936WAT     H127050   0.322   0.684   1.711
 8936WAT     H227051   0.363   0.838   1.680
 8937WAT      O27052   6.900   0.762   5.689
 8937WAT     H127053   6.838   0.760   5.610
 8937WAT     H227054   6.938   0.854   5.698
 8938WAT      O27055   0.250   4.315   9.244
 8938WAT     H127056   0.201   4.240   9.289
 8938WAT     H227057   0.184   4.377   9.202
 8939WAT      O27058   7.656   0.689   3.438
 8939WAT     H127059   7.648   0.662   3.342
 8939WAT     H227060   7.653   0.608   3.496
 8940WAT      O27061   1.598   3.340   1.661
 8940WAT     H127062   1.651   3.276   1.717
 8940WAT     H227063   1.586   3.302   1.569
 8941WAT      O27064   6.412   7.161   1.978
 8941WAT     H127065   6.430   7.113   1.892
 8941WAT     H227066   6.477   7.131   2.048
 8942WAT      O27067   4.645   1.644   6.473
 8942WAT     H127068   4.682   1.683   6.558
 8942WAT     H227069   4.545   1.646   6.476
 8943WAT      O27070   0.694   3.964   3.646
 8943WAT     H127071   0.714   3.889   3.582
 8943WAT     H227072   0.742   4.046   3.616
 8944WAT      O27073   2.197   0.736   5.048
 8944WAT     H127074   2.101   0.711   5.036
 8944WAT     H227075   2.203   0.835   5.065
 8945WAT      O27076   7.273   1.017   0.758
 8945WAT     H127077   7.212   0.973   0.823
 8945WAT     H227078   7.236   1.009   0.666
 8946WAT      O27079   6.276   7.975   8.126
 8946WAT     H127080   6.260   8.071   8.106
 8946WAT     H227081   6.320   7.931   8.047
 8947WAT      O27082   7.767   2.026   9.537
 8947WAT     H127083   7.862   2.035   9.568
 8947WAT     H227084   7.766   1.985   9.446
 8948WAT      O27085   7.061   2.970   3.261
 8948WAT     H127086   7.072   2.886   3.315
 8948WAT     H227087   7.127   2.970   3.186
 8949WAT      O27088   6.934   0.893   3.946
 8949WAT     H127089   6.994   0.956   3.898
 8949WAT     H227090   6.860   0.863   3.885
 8950WAT      O27091   6.678   8.823   9.152
 8950WAT     H127092   6.745   8.897   9.163
 8950WAT     H227093   6.619   8.820   9.233
 8951WAT      O27094   4.142   5.466   4.083
 8951WAT     H127095   4.118   5.430   3.993
 8951WAT     H227096   4.225   5.522   4.075
 8952WAT      O27097   4.712   0.832   4.259
 8952WAT     H127098   4.791   0.783   4.221
 8952WAT     H227099   4.635   0.769   4.267
 8953WAT      O27100   5.520   6.916   7.111
 8953WAT     H127101   5.476   6.960   7.190
 8953WAT     H227102   5.452   6.861   7.062
 8954WAT      O27103   4.590   0.660   3.468
 8954WAT     H127104   4.608   0.748   3.425
 8954WAT     H227105   4.675   0.620   3.501
 8955WAT      O27106   2.200   5.826   4.916
 8955WAT     H127107   2.258   5.786   4.845
 8955WAT     H227108   2.161   5.753   4.973
 8956WAT      O27109   6.740   0.487   3.517
 8956WAT     H127110   6.799   0.520   3.591
 8956WAT     H227111   6.796   0.442   3.447
 8957WAT      O27112   1.641   9.589   3.834
 8957WAT     H127113   1.720   9.651   3.836
 8957WAT     H227114   1.671   9.498   3.805
 8958WAT      O27115   5.036   5.751   1.492
 8958WAT     H127116   5.093   5.822   1.533
 8958WAT     H227117   5.094   5.681   1.451
 8959WAT      O27118   0.958   6.066   1.570
 8959WAT     H127119   1.005   6.002   1.509
 8959WAT     H227120   0.860   6.060   1.556
 8960WAT      O27121   9.055   1.986   8.855
 8960WAT     H127122   9.116   1.911   8.829
 8960WAT     H227123   8.961   1.960   8.833
 8961WAT      O27124   4.688   7.533   9.584
 8961WAT     H127125   4.765   7.476   9.611
 8961WAT     H227126   4.712   7.630   9.597
 8962WAT      O27127   8.780   6.571   4.806
 8962WAT     H127128   8.760   6.476   4.785
 8962WAT     H227129   8.791   6.622   4.721
 8963WAT      O27130   4.712   1.452   0.093
 8963WAT     H127131   4.737   1.428  -0.001
 8963WAT     H227132   4.715   1.551   0.103
 8964WAT      O27133   8.369   8.047   2.398
 8964WAT     H127134   8.334   8.120   2.340
 8964WAT     H227135   8.404   8.086   2.483
 8965WAT      O27136   1.850   1.029   5.101
 8965WAT     H127137   1.768   1.022   5.045
 8965WAT     H227138   1.832   1.089   5.179
 8966WAT      O27139   6.954   4.652   5.137
 8966WAT     H127140   6.866   4.698   5.125
 8966WAT     H227141   6.990   4.672   5.228
 8967WAT      O27142   8.427   3.112   0.252
 8967WAT     H127143   8.339   3.147   0.220
 8967WAT     H227144   8.493   3.187   0.254
 8968WAT      O27145   8.795   4.691   2.695
 8968WAT     H127146   8.721   4.667   2.758
 8968WAT     H227147   8.848   4.767   2.734
 8969WAT      O27148   2.303   7.586   7.961
 8969WAT     H127149   2.247   7.503   7.973
 8969WAT     H227150   2.396   7.560   7.938
 8970WAT      O27151   7.650   6.588   0.271
 8970WAT     H127152   7.696   6.557   0.187
 8970WAT     H227153   7.573   6.527   0.291
 8971WAT      O27154   4.461   0.877   0.711
 8971WAT     H127155   4.490   0.841   0.799
 8971WAT     H227156   4.384   0.940   0.724
 8972WAT      O27157   1.502   0.659   9.758
 8972WAT     H127158   1.462   0.745   9.789
 8972WAT     H227159   1.436   0.585   9.771
 8973WAT      O27160   3.095   3.324   1.556
 8973WAT     H127161   3.075   3.256   1.627
 8973WAT     H227162   3.076   3.286   1.466
 8974WAT      O27163   2.663   3.768   0.591
 8974WAT     H127164   2.621   3.784   0.680
 8974WAT     H227165   2.745   3.824   0.582
 8975WAT      O27166   2.982   9.789   4.923
 8975WAT     H127167   2.968   9.806   4.826
 8975WAT     H227168   3.075   9.815   4.948
 8976WAT      O27169   4.015   9.816   1.391
 8976WAT     H127170   4.057   9.759   1.461
 8976WAT     H227171   3.966   9.892   1.434
 8977WAT      O27172   4.847   2.387   8.773
 8977WAT     H127173   4.910   2.459   8.744
 8977WAT     H227174   4.793   2.357   8.694
 8978WAT      O27175   3.324   1.429   5.950
 8978WAT     H127176   3.396   1.494   5.928
 8978WAT     H227177   3.354   1.336   5.927
 8979WAT      O27178   1.757   9.249   5.823
 8979WAT     H127179   1.756   9.318   5.896
 8979WAT     H227180   1.732   9.292   5.736
 8980WAT      O27181   3.313   1.941   8.947
 8980WAT     H127182   3.257   1.988   8.879
 8980WAT     H227183   3.265   1.860   8.979
 8981WAT      O27184   4.538   8.222   9.728
 8981WAT     H127185   4.471   8.153   9.702
 8981WAT     H227186   4.519   8.307   9.680
 8982WAT      O27187   9.523   6.541   5.214
 8982WAT     H127188   9.438   6.512   5.170
 8982WAT     H227189   9.501   6.601   5.291
 8983WAT      O27190   2.952   7.930   6.987
 8983WAT     H127191   2.905   7.874   7.056
 8983WAT     H227192   3.051   7.912   6.992
 8984WAT      O27193   2.088   4.334   2.640
 8984WAT     H127194   2.050   4.243   2.655
 8984WAT     H227195   2.187   4.333   2.659
 8985WAT      O27196   1.402   8.543   6.901
 8985WAT     H127197   1.485   8.541   6.957
 8985WAT     H227198   1.386   8.636   6.868
 8986WAT      O27199   6.250   7.110   3.438
 8986WAT     H127200   6.236   7.190   3.380
 8986WAT     H227201   6.299   7.138   3.521
 8987WAT      O27202   2.301   0.166   2.021
 8987WAT     H127203   2.270   0.175   2.116
 8987WAT     H227204   2.397   0.195   2.015
 8988WAT      O27205   4.889   8.353   4.207
 8988WAT     H127206   4.988   8.364   4.196
 8988WAT     H227207   4.842   8.384   4.124
 8989WAT      O27208   9.348   3.169   1.638
 8989WAT     H127209   9.448   3.168   1.636
 8989WAT     H227210   9.312   3.183   1.546
 8990WAT      O27211   2.357   9.399   6.954
 8990WAT     H127212   2.290   9.388   7.027
 8990WAT     H227213   2.441   9.350   6.978
 8991WAT      O27214   5.534   2.514   5.606
 8991WAT     H127215   5.539   2.482   5.512
 8991WAT     H227216   5.576   2.605   5.612
 8992WAT      O27217   9.235   8.276   0.060
 8992WAT     H127218   9.188   8.362   0.081
 8992WAT     H227219   9.313   8.265   0.122
 8993WAT      O27220   7.778   4.366   0.719
 8993WAT     H127221   7.835   4.442   0.688
 8993WAT     H227222   7.682   4.394   0.717
 8994WAT      O27223   8.920   9.389   9.620
 8994WAT     H127224   8.934   9.461   9.552
 8994WAT     H227225   8.825   9.390   9.651
 8995WAT      O27226   0.639   7.679   2.719
 8995WAT     H127227   0.549   7.681   2.763
 8995WAT     H227228   0.705   7.728   2.775
 8996WAT      O27229   0.040   8.399   9.770
 8996WAT     H127230  -0.029   8.339   9.811
 8996WAT     H227231  -0.003   8.485   9.743
 8997WAT      O27232   8.450   7.765   4.845
 8997WAT     H127233   8.363   7.794   4.806
 8997WAT     H227234   8.434   7.728   4.937
 8998WAT      O27235   3.176   9.053   2.907
 8998WAT     H127236   3.177   9.037   2.809
 8998WAT     H227237   3.125   8.979   2.952
 8999WAT      O27238   7.198   4.319   4.154
 8999WAT     H127239   7.194   4.222   4.178
 8999WAT     H227240   7.290   4.353   4.170
 9000WAT      O27241   6.131   4.764   5.487
 9000WAT     H127242   6.228   4.784   5.476
 9000WAT     H227243   6.110   4.756   5.585
 9001WAT      O27244   8.463   4.207   9.517
 9001WAT     H127245   8.489   4.273   9.446
 9001WAT     H227246   8.410   4.133   9.477
 9002WAT      O27247   3.180   6.192   5.721
 9002WAT     H127248   3.153   6.095   5.719
 9002WAT     H227249   3.143   6.235   5.804
 9003WAT      O27250   6.118   5.941   5.328
 9003WAT     H127251   6.105   6.040   5.318
 9003WAT     H227252   6.147   5.903   5.240
 9004WAT      O27253   9.567   2.268   8.001
 9004WAT     H127254   9.584   2.206   7.925
 9004WAT     H227255   9.522   2.351   7.968
 9005WAT      O27256   5.253   3.513   8.526
 9005WAT     H127257   5.297   3.579   8.465
 9005WAT     H227258   5.156   3.534   8.533
 9006WAT      O27259   6.092   3.491   5.786
 9006WAT     H127260   6.149   3.492   5.868
 9006WAT     H227261   6.092   3.582   5.745
 9007WAT      O27262   9.500   2.656   5.914
 9007WAT     H127263   9.539   2.664   6.006
 9007WAT     H227264   9.550   2.586   5.863
 9008WAT      O27265   2.533   0.918   1.226
 9008WAT     H127266   2.480   0.833   1.226
 9008WAT     H227267   2.526   0.962   1.316
 9009WAT      O27268   6.686   7.824   4.913
 9009WAT     H127269   6.759   7.853   4.974
 9009WAT     H227270   6.600   7.869   4.940
 9010WAT      O27271   3.423   7.118   8.353
 9010WAT     H127272   3.414   7.030   8.308
 9010WAT     H227273   3.348   7.131   8.419
 9011WAT      O27274   6.135   7.107   1.743
 9011WAT     H127275   6.152   7.166   1.664
 9011WAT     H227276   6.176   7.017   1.727
 9012WAT      O27277   7.436   7.575   8.171
 9012WAT     H127278   7.431   7.647   8.102
 9012WAT     H227279   7.397   7.607   8.257
 9013WAT      O27280   2.972   5.306   2.882
 9013WAT     H127281   2.945   5.210   2.882
 9013WAT     H227282   2.948   5.347   2.970
 9014WAT      O27283   7.247   8.971   5.974
 9014WAT     H127284   7.282   8.963   6.067
 9014WAT     H227285   7.151   8.999   5.977
 9015WAT      O27286   5.279   3.845   9.840
 9015WAT     H127287   5.254   3.924   9.896
 9015WAT     H227288   5.237   3.853   9.750
 9016WAT      O27289   0.860   2.450   3.383
 9016WAT     H127290   0.896   2.535   3.344
 9016WAT     H227291   0.775   2.468   3.431
 9017WAT      O27292   3.944   5.085   6.333
 9017WAT     H127293   3.894   5.144   6.396
 9017WAT     H227294   3.882   5.051   6.263
 9018WAT      O27295   7.047   1.711   9.377
 9018WAT     H127296   7.121   1.643   9.383
 9018WAT     H227297   7.079   1.798   9.414
 9019WAT      O27298   9.072   1.989   1.722
 9019WAT     H127299   9.081   2.065   1.657
 9019WAT     H227300   9.150   1.928   1.711
 9020WAT      O27301   3.531   7.814   6.375
 9020WAT     H127302   3.557   7.787   6.467
 9020WAT     H227303   3.469   7.746   6.336
 9021WAT      O27304   3.937   0.961   7.928
 9021WAT     H127305   3.992   1.008   7.998
 9021WAT     H227306   3.998   0.914   7.864
 9022WAT      O27307   3.002   2.479   2.540
 9022WAT     H127308   3.065   2.458   2.615
 9022WAT     H227309   2.955   2.396   2.512
 9023WAT      O27310   6.972   1.898   1.614
 9023WAT     H127311   6.927   1.848   1.541
 9023WAT     H227312   7.070   1.881   1.611
 9024WAT      O27313   6.686   3.541   6.831
 9024WAT     H127314   6.669   3.565   6.735
 9024WAT     H227315   6.611   3.573   6.888
 9025WAT      O27316   8.638   2.889   9.486
 9025WAT     H127317   8.706   2.822   9.516
 9025WAT     H227318   8.678   2.949   9.417
 9026WAT      O27319   4.475   4.299   2.267
 9026WAT     H127320   4.462   4.381   2.211
 9026WAT     H227321   4.389   4.277   2.313
 9027WAT      O27322   3.781   1.520   2.108
 9027WAT     H127323   3.821   1.539   2.198
 9027WAT     H227324   3.836   1.450   2.061
 9028WAT      O27325   1.117   8.956   2.104
 9028WAT     H127326   1.065   9.039   2.125
 9028WAT     H227327   1.062   8.896   2.045
 9029WAT      O27328   7.673   4.360   7.594
 9029WAT     H127329   7.630   4.438   7.639
 9029WAT     H227330   7.606   4.286   7.587
 9030WAT      O27331   8.674   6.222   4.296
 9030WAT     H127332   8.743   6.268   4.240
 9030WAT     H227333   8.641   6.141   4.249
 9031WAT      O27334   0.039   7.472   7.353
 9031WAT     H127335   0.088   7.447   7.437
 9031WAT     H227336  -0.057   7.491   7.375
 9032WAT      O27337   1.312   4.808   0.634
 9032WAT     H127338   1.353   4.720   0.609
 9032WAT     H227339   1.220   4.793   0.670
 9033WAT      O27340   3.417   6.746   2.242
 9033WAT     H127341   3.343   6.787   2.295
 9033WAT     H227342   3.502   6.751   2.295
 9034WAT      O27343   3.457   5.376   8.130
 9034WAT     H127344   3.466   5.369   8.030
 9034WAT     H227345   3.415   5.293   8.165
 9035WAT      O27346   6.257   2.659   5.172
 9035WAT     H127347   6.221   2.614   5.091
 9035WAT     H227348   6.189   2.657   5.245
 9036WAT      O27349   5.470   1.838   6.111
 9036WAT     H127350   5.515   1.922   6.081
 9036WAT     H227351   5.514   1.805   6.194
 9037WAT      O27352   9.229   0.726   0.125
 9037WAT     H127353   9.171   0.787   0.179
 9037WAT     H227354   9.319   0.720   0.167
 9038WAT      O27355   5.258   8.424   8.762
 9038WAT     H127356   5.299   8.358   8.700
 9038WAT     H227357   5.215   8.498   8.709
 9039WAT      O27358   3.513   9.785   9.723
 9039WAT     H127359   3.451   9.775   9.645
 9039WAT     H227360   3.583   9.713   9.719
 9040WAT      O27361   9.206   6.908   7.542
 9040WAT     H127362   9.299   6.883   7.570
 9040WAT     H227363   9.160   6.957   7.616
 9041WAT      O27364   2.112   7.864   8.706
 9041WAT     H127365   2.091   7.844   8.610
 9041WAT     H227366   2.104   7.962   8.721
 9042WAT      O27367   4.494   7.542   0.163
 9042WAT     H127368   4.453   7.453   0.147
 9042WAT     H227369   4.423   7.609   0.182
 9043WAT      O27370   3.563   8.665   1.920
 9043WAT     H127371   3.591   8.667   2.017
 9043WAT     H227372   3.612   8.736   1.870
 9044WAT      O27373   8.121   9.179   7.776
 9044WAT     H127374   8.110   9.103   7.713
 9044WAT     H227375   8.126   9.145   7.869
 9045WAT      O27376   1.533   6.571   7.006
 9045WAT     H127377   1.523   6.584   6.907
 9045WAT     H227378   1.456   6.613   7.054
 9046WAT      O27379   1.019   1.181   1.457
 9046WAT     H127380   1.087   1.230   1.513
 9046WAT     H227381   1.066   1.133   1.383
 9047WAT      O27382   7.320   2.128   9.272
 9047WAT     H127383   7.323   2.133   9.371
 9047WAT     H227384   7.227   2.149   9.240
 9048WAT      O27385   7.384   3.640   4.256
 9048WAT     H127386   7.396   3.674   4.163
 9048WAT     H227387   7.397   3.540   4.257
 9049WAT      O27388   9.340   1.489   4.692
 9049WAT     H127389   9.428   1.444   4.706
 9049WAT     H227390   9.286   1.484   4.775
 9050WAT      O27391   5.273   1.709   8.897
 9050WAT     H127392   5.300   1.804   8.912
 9050WAT     H227393   5.174   1.699   8.912
 9051WAT      O27394   8.803   0.966   7.410
 9051WAT     H127395   8.888   0.915   7.396
 9051WAT     H227396   8.757   0.979   7.322
 9052WAT      O27397   5.897   5.758   1.341
 9052WAT     H127398   5.911   5.739   1.438
 9052WAT     H227399   5.846   5.683   1.299
 9053WAT      O27400   0.635   1.054   1.368
 9053WAT     H127401   0.698   1.130   1.385
 9053WAT     H227402   0.542   1.089   1.359
 9054WAT      O27403   6.565   7.057   6.580
 9054WAT     H127404   6.614   6.974   6.551
 9054WAT     H227405   6.468   7.038   6.587
 9055WAT      O27406   9.586   1.580   7.444
 9055WAT     H127407   9.574   1.680   7.438
 9055WAT     H227408   9.649   1.550   7.372
 9056WAT      O27409   7.039   1.755   1.974
 9056WAT     H127410   7.102   1.685   2.007
 9056WAT     H227411   7.091   1.833   1.940
 9057WAT      O27412   7.852   0.341   8.142
 9057WAT     H127413   7.815   0.271   8.082
 9057WAT     H227414   7.889   0.417   8.088
 9058WAT      O27415   0.831   0.407   8.920
 9058WAT     H127416   0.856   0.421   8.825
 9058WAT     H227417   0.808   0.311   8.935
 9059WAT      O27418   8.983   7.313   9.371
 9059WAT     H127419   8.970   7.412   9.377
 9059WAT     H227420   9.081   7.293   9.367
 9060WAT      O27421   1.869   8.535   5.384
 9060WAT     H127422   1.905   8.539   5.478
 9060WAT     H227423   1.787   8.592   5.377
 9061WAT      O27424   8.199   5.238   3.742
 9061WAT     H127425   8.199   5.179   3.661
 9061WAT     H227426   8.105   5.250   3.774
 9062WAT      O27427   3.316   1.343   1.368
 9062WAT     H127428   3.303   1.290   1.452
 9062WAT     H227429   3.413   1.343   1.343
 9063WAT      O27430   3.810   8.798   3.192
 9063WAT     H127431   3.773   8.730   3.255
 9063WAT     H227432   3.736   8.845   3.145
 9064WAT      O27433   3.214   5.871   5.478
 9064WAT     H127434   3.291   5.815   5.510
 9064WAT     H227435   3.242   5.923   5.397
 9065WAT      O27436   3.642   2.635   0.038
 9065WAT     H127437   3.557   2.610  -0.009
 9065WAT     H227438   3.621   2.663   0.131
 9066WAT      O27439   0.572   4.042   8.188
 9066WAT     H127440   0.640   3.974   8.160
 9066WAT     H227441   0.594   4.077   8.279
 9067WAT      O27442   7.734   9.293   3.438
 9067WAT     H127443   7.673   9.268   3.363
 9067WAT     H227444   7.780   9.211   3.472
 9068WAT      O27445   5.972   9.679   1.291
 9068WAT     H127446   5.925   9.638   1.370
 9068WAT     H227447   5.937   9.637   1.207
 9069WAT      O27448   6.966   4.193   4.670
 9069WAT     H127449   6.921   4.211   4.758
 9069WAT     H227450   7.023   4.111   4.678
 9070WAT      O27451   2.195   7.890   4.183
 9070WAT     H127452   2.232   7.798   4.195
 9070WAT     H227453   2.266   7.957   4.203
 9071WAT      O27454   7.289   8.493   0.849
 9071WAT     H127455   7.252   8.585   0.835
 9071WAT     H227456   7.219   8.425   0.826
 9072WAT      O27457   9.400   3.911   0.954
 9072WAT     H127458   9.395   3.921   0.855
 9072WAT     H227459   9.495   3.906   0.983
 9073WAT      O27460   5.886   7.095   7.324
 9073WAT     H127461   5.891   7.025   7.253
 9073WAT     H227462   5.837   7.059   7.403
 9074WAT      O27463   7.290   7.623   0.337
 9074WAT     H127464   7.258   7.714   0.310
 9074WAT     H227465   7.224   7.554   0.306
 9075WAT      O27466   4.185   7.112   3.736
 9075WAT     H127467   4.150   7.189   3.790
 9075WAT     H227468   4.282   7.100   3.757
 9076WAT      O27469   5.563   0.943   3.690
 9076WAT     H127470   5.529   0.914   3.779
 9076WAT     H227471   5.656   0.979   3.700
 9077WAT      O27472   4.561   2.262   5.730
 9077WAT     H127473   4.537   2.262   5.827
 9077WAT     H227474   4.545   2.353   5.691
 9078WAT      O27475   5.462   7.357   7.016
 9078WAT     H127476   5.432   7.292   7.086
 9078WAT     H227477   5.498   7.307   6.938
 9079WAT      O27478   5.012   9.080   7.876
 9079WAT     H127479   5.032   8.988   7.909
 9079WAT     H227480   5.090   9.114   7.823
 9080WAT      O27481   4.486   3.318   0.204
 9080WAT     H127482   4.542   3.327   0.122
 9080WAT     H227483   4.397   3.278   0.179
 9081WAT      O27484   8.058   6.330   8.950
 9081WAT     H127485   8.036   6.319   8.853
 9081WAT     H227486   8.001   6.268   9.004
 9082WAT      O27487   4.772   0.224   6.139
 9082WAT     H127488   4.775   0.320   6.111
 9082WAT     H227489   4.866   0.192   6.156
 9083WAT      O27490   4.127   5.515   7.123
 9083WAT     H127491   4.183   5.521   7.040
 9083WAT     H227492   4.033   5.542   7.103
 9084WAT      O27493   5.974   8.292   0.813
 9084WAT     H127494   5.958   8.313   0.716
 9084WAT     H227495   5.979   8.378   0.865
 9085WAT      O27496   2.151   4.676   0.126
 9085WAT     H127497   2.166   4.765   0.170
 9085WAT     H227498   2.219   4.661   0.055
 9086WAT      O27499   3.426   9.681   8.823
 9086WAT     H127500   3.461   9.618   8.754
 9086WAT     H227501   3.328   9.694   8.810
 9087WAT      O27502   8.922   4.627   6.691
 9087WAT     H127503   8.856   4.573   6.638
 9087WAT     H227504   8.977   4.683   6.629
 9088WAT      O27505   3.472   8.407   0.096
 9088WAT     H127506   3.491   8.471   0.023
 9088WAT     H227507   3.522   8.435   0.179
 9089WAT      O27508   4.444   3.901   8.396
 9089WAT     H127509   4.449   3.975   8.464
 9089WAT     H227510   4.503   3.924   8.318
 9090WAT      O27511   8.285   3.151   7.832
 9090WAT     H127512   8.251   3.058   7.815
 9090WAT     H227513   8.383   3.154   7.814
 9091WAT      O27514   0.942   1.927   3.125
 9091WAT     H127515   1.023   1.973   3.161
 9091WAT     H227516   0.956   1.906   3.028
 9092WAT      O27517   2.389   4.683   5.609
 9092WAT     H127518   2.291   4.678   5.589
 9092WAT     H227519   2.404   4.734   5.693
 9093WAT      O27520   3.217   5.410   0.885
 9093WAT     H127521   3.226   5.482   0.816
 9093WAT     H227522   3.248   5.444   0.974
 9094WAT      O27523   4.515   3.416   1.315
 9094WAT     H127524   4.447   3.344   1.301
 9094WAT     H227525   4.488   3.497   1.262
 9095WAT      O27526   1.016   9.444   4.236
 9095WAT     H127527   1.082   9.509   4.200
 9095WAT     H227528   1.030   9.355   4.192
 9096WAT      O27529   4.728   5.287   8.532
 9096WAT     H127530   4.734   5.296   8.631
 9096WAT     H227531   4.681   5.367   8.493
 9097WAT      O27532   1.127   6.211   6.712
 9097WAT     H127533   1.198   6.232   6.645
 9097WAT     H227534   1.153   6.249   6.801
 9098WAT      O27535   7.897   8.312   9.619
 9098WAT     H127536   7.943   8.247   9.679
 9098WAT     H227537   7.943   8.401   9.624
 9099WAT      O27538   4.678   3.831   6.130
 9099WAT     H127539   4.715   3.754   6.079
 9099WAT     H227540   4.753   3.878   6.178
 9100WAT      O27541   7.985   1.945   9.206
 9100WAT     H127542   7.987   1.901   9.117
 9100WAT     H227543   7.895   1.932   9.248
 9101WAT      O27544   1.627   7.268   4.680
 9101WAT     H127545   1.527   7.259   4.680
 9101WAT     H227546   1.667   7.185   4.641
 9102WAT      O27547   5.482   2.028   7.833
 9102WAT     H127548   5.572   2.073   7.831
 9102WAT     H227549   5.435   2.052   7.918
 9103WAT      O27550   0.519   2.664   1.660
 9103WAT     H127551   0.618   2.651   1.660
 9103WAT     H227552   0.497   2.753   1.620
 9104WAT      O27553   0.648   8.880   9.432
 9104WAT     H127554   0.588   8.803   9.452
 9104WAT     H227555   0.735   8.869   9.480
 9105WAT      O27556   8.858   3.240   0.035
 9105WAT     H127557   8.815   3.272  -0.050
 9105WAT     H227558   8.907   3.315   0.077
 9106WAT      O27559   6.976   6.350   5.671
 9106WAT     H127560   6.986   6.403   5.756
 9106WAT     H227561   7.057   6.295   5.657
 9107WAT      O27562   4.683   0.972   0.549
 9107WAT     H127563   4.640   0.895   0.596
 9107WAT     H227564   4.753   0.938   0.486
 9108WAT      O27565   3.519   8.096   5.152
 9108WAT     H127566   3.514   8.025   5.222
 9108WAT     H227567   3.449   8.079   5.082
 9109WAT      O27568   7.435   8.556   5.820
 9109WAT     H127569   7.401   8.463   5.804
 9109WAT     H227570   7.358   8.619   5.822
 9110WAT      O27571   8.433   8.093   7.124
 9110WAT     H127572   8.520   8.118   7.167
 9110WAT     H227573   8.405   8.002   7.156
 9111WAT      O27574   0.699   0.571   1.945
 9111WAT     H127575   0.742   0.528   1.866
 9111WAT     H227576   0.673   0.665   1.922
 9112WAT      O27577   8.122   5.963   2.608
 9112WAT     H127578   8.175   5.879   2.604
 9112WAT     H227579   8.074   5.968   2.695
 9113WAT      O27580   6.145   7.787   1.584
 9113WAT     H127581   6.224   7.745   1.628
 9113WAT     H227582   6.121   7.872   1.632
 9114WAT      O27583   7.603   8.198   6.467
 9114WAT     H127584   7.651   8.239   6.545
 9114WAT     H227585   7.505   8.197   6.484
 9115WAT      O27586   2.856   2.908   7.753
 9115WAT     H127587   2.784   2.848   7.788
 9115WAT     H227588   2.936   2.853   7.729
 9116WAT      O27589   8.323   5.682   3.935
 9116WAT     H127590   8.348   5.736   3.855
 9116WAT     H227591   8.270   5.602   3.906
 9117WAT      O27592   7.451   0.345   3.181
 9117WAT     H127593   7.522   0.407   3.147
 9117WAT     H227594   7.409   0.383   3.263
 9118WAT      O27595   2.559   0.947   9.397
 9118WAT     H127596   2.584   0.969   9.492
 9118WAT     H227597   2.468   0.906   9.395
 9119WAT      O27598   1.967   7.575   3.802
 9119WAT     H127599   2.004   7.570   3.709
 9119WAT     H227600   2.036   7.544   3.867
 9120WAT      O27601   8.952   2.688   4.846
 9120WAT     H127602   8.980   2.592   4.853
 9120WAT     H227603   8.916   2.706   4.755
 9121WAT      O27604   4.519   5.825   3.281
 9121WAT     H127605   4.598   5.845   3.222
 9121WAT     H227606   4.458   5.760   3.236
 9122WAT      O27607   4.770   0.770   8.819
 9122WAT     H127608   4.718   0.694   8.858
 9122WAT     H227609   4.863   0.768   8.854
 9123WAT      O27610   4.387   4.489   5.807
 9123WAT     H127611   4.458   4.462   5.872
 9123WAT     H227612   4.408   4.452   5.717
 9124WAT      O27613   4.247   4.980   0.771
 9124WAT     H127614   4.213   4.891   0.739
 9124WAT     H227615   4.336   4.967   0.815
 9125WAT      O27616   6.506   4.081   3.833
 9125WAT     H127617   6.580   4.146   3.849
 9125WAT     H227618   6.427   4.130   3.796
 9126WAT      O27619   3.666   2.185   6.240
 9126WAT     H127620   3.661   2.284   6.244
 9126WAT     H227621   3.644   2.147   6.330
 9127WAT      O27622   5.015   1.206   6.373
 9127WAT     H127623   5.113   1.206   6.394
 9127WAT     H227624   4.971   1.129   6.419
 9128WAT      O27625   5.013   2.673   2.017
 9128WAT     H127626   5.055   2.654   1.928
 9128WAT     H227627   5.059   2.750   2.060
 9129WAT      O27628   6.288   1.100   0.285
 9129WAT     H127629   6.275   1.006   0.253
 9129WAT     H227630   6.380   1.130   0.264
 9130WAT      O27631   8.569   4.558   8.873
 9130WAT     H127632   8.549   4.605   8.786
 9130WAT     H227633   8.640   4.609   8.922
 9131WAT      O27634   3.963   0.308   8.492
 9131WAT     H127635   3.989   0.359   8.410
 9131WAT     H227636   4.011   0.347   8.572
 9132WAT      O27637   2.596   6.021   7.696
 9132WAT     H127638   2.666   6.010   7.626
 9132WAT     H227639   2.509   6.042   7.653
 9133WAT      O27640   4.885   3.515   9.600
 9133WAT     H127641   4.830   3.487   9.521
 9133WAT     H227642   4.881   3.614   9.611
 9134WAT      O27643   1.716   0.915   9.546
 9134WAT     H127644   1.700   0.999   9.495
 9134WAT     H227645   1.798   0.869   9.511
 9135WAT      O27646   4.278   8.116   0.330
 9135WAT     H127647   4.243   8.067   0.251
 9135WAT     H227648   4.378   8.113   0.330
 9136WAT      O27649   1.968   1.954   1.427
 9136WAT     H127650   1.887   2.004   1.458
 9136WAT     H227651   2.039   1.959   1.498
 9137WAT      O27652   1.741   0.454   5.579
 9137WAT     H127653   1.818   0.403   5.540
 9137WAT     H227654   1.655   0.409   5.556
 9138WAT      O27655   0.341   8.279   0.236
 9138WAT     H127656   0.244   8.253   0.227
 9138WAT     H227657   0.396   8.198   0.253
 9139WAT      O27658   6.356   0.445   7.807
 9139WAT     H127659   6.293   0.389   7.753
 9139WAT     H227660   6.306   0.490   7.881
 9140WAT      O27661   5.288   2.398   6.581
 9140WAT     H127662   5.299   2.468   6.511
 9140WAT     H227663   5.371   2.393   6.637
 9141WAT      O27664   6.381   5.583   1.798
 9141WAT     H127665   6.455   5.537   1.847
 9141WAT     H227666   6.416   5.664   1.752
 9142WAT      O27667   5.741   0.871   5.143
 9142WAT     H127668   5.686   0.919   5.211
 9142WAT     H227669   5.708   0.895   5.051
 9143WAT      O27670   3.445   3.952   3.848
 9143WAT     H127671   3.396   3.872   3.812
 9143WAT     H227672   3.381   4.013   3.894
 9144WAT      O27673   7.730   7.936   9.375
 9144WAT     H127674   7.754   7.993   9.453
 9144WAT     H227675   7.680   7.855   9.407
 9145WAT      O27676   9.659   7.209   7.938
 9145WAT     H127677   9.729   7.146   7.903
 9145WAT     H227678   9.597   7.159   7.998
 9146WAT      O27679   6.215   3.340   4.345
 9146WAT     H127680   6.253   3.379   4.261
 9146WAT     H227681   6.130   3.291   4.324
 9147WAT      O27682   9.136   3.971   0.974
 9147WAT     H127683   9.225   3.928   0.956
 9147WAT     H227684   9.150   4.069   0.990
 9148WAT      O27685   4.555   3.962   3.621
 9148WAT     H127686   4.486   3.898   3.654
 9148WAT     H227687   4.520   4.055   3.625
 9149WAT      O27688   2.679   5.052   6.230
 9149WAT     H127689   2.639   4.967   6.197
 9149WAT     H227690   2.691   5.046   6.329
 9150WAT      O27691   3.475   4.884   5.497
 9150WAT     H127692   3.383   4.922   5.492
 9150WAT     H227693   3.539   4.957   5.524
 9151WAT      O27694   6.875   0.226   1.354
 9151WAT     H127695   6.837   0.194   1.441
 9151WAT     H227696   6.876   0.151   1.289
 9152WAT      O27697   4.824   6.616   5.179
 9152WAT     H127698   4.841   6.615   5.278
 9152WAT     H227699   4.780   6.530   5.152
 9153WAT      O27700   8.212   5.399   2.432
 9153WAT     H127701   8.200   5.415   2.530
 9153WAT     H227702   8.145   5.452   2.381
 9154WAT      O27703   7.025   7.940   7.080
 9154WAT     H127704   7.041   7.845   7.106
 9154WAT     H227705   7.106   7.975   7.032
 9155WAT      O27706   5.885   3.979   8.885
 9155WAT     H127707   5.791   3.957   8.857
 9155WAT     H227708   5.884   4.062   8.940
 9156WAT      O27709   6.579   7.140   9.878
 9156WAT     H127710   6.568   7.090   9.964
 9156WAT     H227711   6.645   7.093   9.819
 9157WAT      O27712   0.368   0.326   9.061
 9157WAT     H127713   0.382   0.241   9.112
 9157WAT     H227714   0.375   0.403   9.123
 9158WAT      O27715   9.406   2.403   4.420
 9158WAT     H127716   9.434   2.499   4.431
 9158WAT     H227717   9.431   2.352   4.502
 9159WAT      O27718   1.088   8.844   1.040
 9159WAT     H127719   0.989   8.856   1.044
 9159WAT     H227720   1.119   8.860   0.946
 9160WAT      O27721   1.395   7.515   1.972
 9160WAT     H127722   1.398   7.509   2.072
 9160WAT     H227723   1.486   7.538   1.938
 9161WAT      O27724   2.443   0.446   4.687
 9161WAT     H127725   2.420   0.520   4.751
 9161WAT     H227726   2.387   0.366   4.708
 9162WAT      O27727   4.008   9.677   1.163
 9162WAT     H127728   4.006   9.733   1.080
 9162WAT     H227729   4.002   9.737   1.244
 9163WAT      O27730   4.775   5.372   6.176
 9163WAT     H127731   4.699   5.419   6.131
 9163WAT     H227732   4.756   5.367   6.274
 9164WAT      O27733   1.237   0.613   7.665
 9164WAT     H127734   1.296   0.688   7.636
 9164WAT     H227735   1.241   0.540   7.596
 9165WAT      O27736   7.612   0.106   3.249
 9165WAT     H127737   7.543   0.177   3.266
 9165WAT     H227738   7.626   0.097   3.151
 9166WAT      O27739   1.225   6.248   2.395
 9166WAT     H127740   1.207   6.322   2.331
 9166WAT     H227741   1.296   6.187   2.358
 9167WAT      O27742   8.671   9.460   9.405
 9167WAT     H127743   8.608   9.447   9.482
 9167WAT     H227744   8.626   9.514   9.334
 9168WAT      O27745   6.488   5.315   5.691
 9168WAT     H127746   6.413   5.336   5.629
 9168WAT     H227747   6.453   5.269   5.772
 9169WAT      O27748   9.399   8.742   5.854
 9169WAT     H127749   9.416   8.839   5.836
 9169WAT     H227750   9.395   8.727   5.953
 9170WAT      O27751   9.420   7.156   3.884
 9170WAT     H127752   9.463   7.070   3.855
 9170WAT     H227753   9.484   7.206   3.942
 9171WAT      O27754   1.159   8.524   7.115
 9171WAT     H127755   1.194   8.452   7.056
 9171WAT     H227756   1.150   8.609   7.064
 9172WAT      O27757   9.666   7.432   9.083
 9172WAT     H127758   9.661   7.338   9.119
 9172WAT     H227759   9.757   7.470   9.102
 9173WAT      O27760   2.637   2.086   1.837
 9173WAT     H127761   2.543   2.121   1.841
 9173WAT     H227762   2.637   1.988   1.856
 9174WAT      O27763   3.689   0.117   2.741
 9174WAT     H127764   3.683   0.046   2.670
 9174WAT     H227765   3.608   0.113   2.799
 9175WAT      O27766   2.738   1.612   6.116
 9175WAT     H127767   2.713   1.590   6.022
 9175WAT     H227768   2.676   1.681   6.152
 9176WAT      O27769   5.910   7.677   1.739
 9176WAT     H127770   5.979   7.606   1.753
 9176WAT     H227771   5.950   7.753   1.688
 9177WAT      O27772   5.817   5.059   4.525
 9177WAT     H127773   5.733   5.046   4.472
 9177WAT     H227774   5.795   5.052   4.623
 9178WAT      O27775   9.289   1.237   9.133
 9178WAT     H127776   9.229   1.295   9.189
 9178WAT     H227777   9.262   1.244   9.037
 9179WAT      O27778   3.574   6.351   3.211
 9179WAT     H127779   3.625   6.265   3.210
 9179WAT     H227780   3.637   6.426   3.229
 9180WAT      O27781   4.058   6.188   6.243
 9180WAT     H127782   4.025   6.097   6.267
 9180WAT     H227783   4.000   6.257   6.286
 9181WAT      O27784   8.534   7.094   0.412
 9181WAT     H127785   8.606   7.155   0.378
 9181WAT     H227786   8.480   7.060   0.335
 9182WAT      O27787   6.245   0.299   5.193
 9182WAT     H127788   6.181   0.229   5.225
 9182WAT     H227789   6.319   0.255   5.141
 9183WAT      O27790   4.901   4.030   7.771
 9183WAT     H127791   4.817   4.040   7.825
 9183WAT     H227792   4.976   4.077   7.817
 9184WAT      O27793   4.451   1.868   8.764
 9184WAT     H127794   4.426   1.902   8.673
 9184WAT     H227795   4.435   1.770   8.768
 9185WAT      O27796   0.652   7.299   6.602
 9185WAT     H127797   0.650   7.199   6.609
 9185WAT     H227798   0.725   7.326   6.540
 9186WAT      O27799   0.047   5.078   7.423
 9186WAT     H127800  -0.036   5.130   7.443
 9186WAT     H227801   0.126   5.140   7.424
 9187WAT      O27802   7.567   2.662   4.886
 9187WAT     H127803   7.614   2.588   4.837
 9187WAT     H227804   7.603   2.750   4.856
 9188WAT      O27805   9.370   6.505   7.087
 9188WAT     H127806   9.370   6.599   7.120
 9188WAT     H227807   9.455   6.487   7.037
 9189WAT      O27808   1.627   6.619   1.134
 9189WAT     H127809   1.682   6.681   1.190
 9189WAT     H227810   1.681   6.539   1.110
 9190WAT      O27811   2.422   3.170   7.195
 9190WAT     H127812   2.438   3.075   7.222
 9190WAT     H227813   2.365   3.215   7.264
 9191WAT      O27814   1.172   9.125   0.238
 9191WAT     H127815   1.221   9.208   0.265
 9191WAT     H227816   1.215   9.046   0.281
 9192WAT      O27817   1.384   0.338   3.157
 9192WAT     H127818   1.476   0.376   3.163
 9192WAT     H227819   1.388   0.249   3.111
 9193WAT      O27820   3.805   5.214   5.072
 9193WAT     H127821   3.819   5.137   5.134
 9193WAT     H227822   3.708   5.220   5.047
 9194WAT      O27823   6.069   1.964   0.479
 9194WAT     H127824   6.015   2.037   0.521
 9194WAT     H227825   6.100   1.901   0.550
 9195WAT      O27826   2.562   0.353   9.859
 9195WAT     H127827   2.494   0.368   9.932
 9195WAT     H227828   2.522   0.379   9.771
 9196WAT      O27829   0.940   4.898   9.021
 9196WAT     H127830   0.944   4.809   9.068
 9196WAT     H227831   0.850   4.910   8.981
 9197WAT      O27832   3.741   9.279   4.089
 9197WAT     H127833   3.683   9.360   4.081
 9197WAT     H227834   3.691   9.200   4.054
 9198WAT      O27835   7.437   1.847   2.477
 9198WAT     H127836   7.376   1.842   2.398
 9198WAT     H227837   7.532   1.843   2.447
 9199WAT      O27838   7.930   5.323   2.171
 9199WAT     H127839   7.951   5.260   2.247
 9199WAT     H227840   7.985   5.299   2.092
 9200WAT      O27841   6.089   4.634   8.916
 9200WAT     H127842   6.031   4.580   8.856
 9200WAT     H227843   6.041   4.652   9.002
 9201WAT      O27844   6.444   3.187   7.703
 9201WAT     H127845   6.413   3.248   7.630
 9201WAT     H227846   6.543   3.197   7.715
 9202WAT      O27847   1.839   3.549   7.438
 9202WAT     H127848   1.935   3.525   7.446
 9202WAT     H227849   1.811   3.603   7.518
 9203WAT      O27850   0.641   7.213   4.543
 9203WAT     H127851   0.699   7.277   4.492
 9203WAT     H227852   0.656   7.120   4.508
 9204WAT      O27853   6.399   9.724   9.192
 9204WAT     H127854   6.347   9.726   9.277
 9204WAT     H227855   6.428   9.630   9.174
 9205WAT      O27856   4.810   8.114   6.693
 9205WAT     H127857   4.820   8.166   6.778
 9205WAT     H227858   4.756   8.031   6.711
 9206WAT      O27859   6.210   0.537   1.442
 9206WAT     H127860   6.235   0.539   1.345
 9206WAT     H227861   6.268   0.602   1.492
 9207WAT      O27862   5.746   7.818   7.687
 9207WAT     H127863   5.693   7.855   7.764
 9207WAT     H227864   5.807   7.889   7.652
 9208WAT      O27865   7.327   0.453   1.590
 9208WAT     H127866   7.268   0.382   1.627
 9208WAT     H227867   7.329   0.445   1.490
 9209WAT      O27868   3.339   1.772   0.929
 9209WAT     H127869   3.438   1.767   0.917
 9209WAT     H227870   3.298   1.686   0.899
 9210WAT      O27871   2.322   3.222   3.038
 9210WAT     H127872   2.419   3.207   3.055
 9210WAT     H227873   2.280   3.135   3.010
 9211WAT      O27874   6.942   4.645   3.110
 9211WAT     H127875   6.882   4.577   3.151
 9211WAT     H227876   7.028   4.648   3.161
 9212WAT      O27877   5.352   6.777   2.244
 9212WAT     H127878   5.266   6.748   2.286
 9212WAT     H227879   5.412   6.815   2.314
 9213WAT      O27880   4.993   6.130   1.735
 9213WAT     H127881   4.910   6.158   1.687
 9213WAT     H227882   5.038   6.057   1.683
 9214WAT      O27883   3.165   2.042   2.282
 9214WAT     H127884   3.136   2.002   2.369
 9214WAT     H227885   3.086   2.083   2.236
 9215WAT      O27886   1.160   3.324   0.626
 9215WAT     H127887   1.241   3.342   0.570
 9215WAT     H227888   1.162   3.229   0.657
 9216WAT      O27889   3.636   0.442   9.363
 9216WAT     H127890   3.616   0.539   9.379
 9216WAT     H227891   3.733   0.424   9.380
 9217WAT      O27892   7.906   4.930   1.396
 9217WAT     H127893   7.870   4.990   1.324
 9217WAT     H227894   7.870   4.838   1.384
 9218WAT      O27895   8.243   4.188   6.260
 9218WAT     H127896   8.338   4.159   6.266
 9218WAT     H227897   8.237   4.287   6.274
 9219WAT      O27898   2.388   3.996   2.638
 9219WAT     H127899   2.316   3.943   2.682
 9219WAT     H227900   2.477   3.962   2.667
 9220WAT      O27901   7.403   5.393   9.203
 9220WAT     H127902   7.499   5.392   9.230
 9220WAT     H227903   7.387   5.470   9.140
 9221WAT      O27904   0.293   1.322   5.031
 9221WAT     H127905   0.246   1.309   4.944
 9221WAT     H227906   0.365   1.253   5.041
 9222WAT      O27907   8.491   1.615   4.957
 9222WAT     H127908   8.459   1.625   5.052
 9222WAT     H227909   8.585   1.647   4.950
 9223WAT      O27910   4.090   8.582   1.919
 9223WAT     H127911   4.186   8.567   1.897
 9223WAT     H227912   4.048   8.495   1.945
 9224WAT      O27913   7.914   0.134   5.671
 9224WAT     H127914   7.939   0.211   5.613
 9224WAT     H227915   7.837   0.085   5.629
 9225WAT      O27916   4.092   8.034   7.435
 9225WAT     H127917   4.010   8.066   7.389
 9225WAT     H227918   4.068   7.997   7.525
 9226WAT      O27919   4.799   9.670   4.611
 9226WAT     H127920   4.719   9.680   4.670
 9226WAT     H227921   4.800   9.579   4.570
 9227WAT      O27922   8.177   1.088   4.031
 9227WAT     H127923   8.087   1.089   4.076
 9227WAT     H227924   8.220   0.999   4.047
 9228WAT      O27925   2.551   3.041   1.095
 9228WAT     H127926   2.607   3.091   1.030
 9228WAT     H227927   2.608   2.977   1.147
 9229WAT      O27928   0.549   2.609   4.523
 9229WAT     H127929   0.540   2.634   4.620
 9229WAT     H227930   0.459   2.582   4.487
 9230WAT      O27931   7.574   9.773   1.495
 9230WAT     H127932   7.510   9.817   1.432
 9230WAT     H227933   7.529   9.760   1.583
 9231WAT      O27934   2.766   0.979   5.839
 9231WAT     H127935   2.733   0.911   5.774
 9231WAT     H227936   2.771   1.068   5.795
 9232WAT      O27937   8.054   3.710   2.678
 9232WAT     H127938   8.129   3.776   2.667
 9232WAT     H227939   8.006   3.699   2.591
 9233WAT      O27940   0.030   2.077   6.918
 9233WAT     H127941   0.088   2.125   6.983
 9233WAT     H227942   0.065   1.984   6.905
 9234WAT      O27943   6.567   7.402   8.943
 9234WAT     H127944   6.479   7.375   8.981
 9234WAT     H227945   6.640   7.354   8.992
 9235WAT      O27946   1.079   0.593   1.472
 9235WAT     H127947   1.179   0.589   1.485
 9235WAT     H227948   1.058   0.658   1.400
 9236WAT      O27949   2.060   2.547   6.813
 9236WAT     H127950   2.025   2.457   6.840
 9236WAT     H227951   1.987   2.597   6.766
 9237WAT      O27952   3.182   4.733   1.228
 9237WAT     H127953   3.097   4.785   1.221
 9237WAT     H227954   3.238   4.771   1.302
 9238WAT      O27955   2.859   4.478   5.890
 9238WAT     H127956   2.886   4.393   5.846
 9238WAT     H227957   2.790   4.459   5.960
 9239WAT      O27958   0.949   4.930   5.346
 9239WAT     H127959   0.936   4.936   5.247
 9239WAT     H227960   1.023   4.990   5.374
 9240WAT      O27961   3.059   7.055   2.490
 9240WAT     H127962   3.002   7.130   2.456
 9240WAT     H227963   3.129   7.092   2.552
 9241WAT      O27964   7.277   4.452   7.933
 9241WAT     H127965   7.201   4.494   7.982
 9241WAT     H227966   7.267   4.353   7.935
 9242WAT      O27967   0.893   9.186   3.876
 9242WAT     H127968   0.917   9.098   3.836
 9242WAT     H227969   0.905   9.258   3.808
 9243WAT      O27970   2.997   4.735   1.510
 9243WAT     H127971   2.981   4.829   1.481
 9243WAT     H227972   3.083   4.730   1.562
 9244WAT      O27973   3.115   3.098   0.355
 9244WAT     H127974   3.160   3.123   0.270
 9244WAT     H227975   3.103   2.999   0.359
 9245WAT      O27976   1.818   0.374   2.799
 9245WAT     H127977   1.862   0.463   2.814
 9245WAT     H227978   1.831   0.347   2.704
 9246WAT      O27979   3.856   2.042   3.945
 9246WAT     H127980   3.928   2.015   3.881
 9246WAT     H227981   3.775   1.986   3.929
 9247WAT      O27982   4.129   1.795   7.078
 9247WAT     H127983   4.224   1.804   7.049
 9247WAT     H227984   4.075   1.871   7.041
 9248WAT      O27985   4.279   6.375   1.910
 9248WAT     H127986   4.343   6.320   1.856
 9248WAT     H227987   4.185   6.354   1.883
 9249WAT      O27988   6.694   3.655   5.728
 9249WAT     H127989   6.676   3.557   5.726
 9249WAT     H227990   6.648   3.699   5.652
 9250WAT      O27991   3.783   5.036   6.642
 9250WAT     H127992   3.872   4.999   6.668
 9250WAT     H227993   3.728   4.964   6.600
 9251WAT      O27994   0.913   0.267   1.786
 9251WAT     H127995   0.833   0.272   1.846
 9251WAT     H227996   0.968   0.188   1.810
 9252WAT      O27997   7.861   5.409   4.916
 9252WAT     H127998   7.889   5.452   4.830
 9252WAT     H227999   7.830   5.316   4.899
 9253WAT      O28000   1.646   9.739   3.473
 9253WAT     H128001   1.735   9.775   3.444
 9253WAT     H228002   1.582   9.814   3.489
 9254WAT      O28003   6.493   1.751   6.058
 9254WAT     H128004   6.551   1.713   5.985
 9254WAT     H228005   6.470   1.845   6.037
 9255WAT      O28006   5.830   3.554   6.008
 9255WAT     H128007   5.838   3.622   6.081
 9255WAT     H228008   5.803   3.600   5.923
 9256WAT      O28009   7.726   8.938   5.281
 9256WAT     H128010   7.787   8.860   5.292
 9256WAT     H228011   7.691   8.941   5.187
 9257WAT      O28012   2.705   3.340   6.755
 9257WAT     H128013   2.673   3.289   6.834
 9257WAT     H228014   2.780   3.401   6.782
 9258WAT      O28015   8.531   1.314   8.195
 9258WAT     H128016   8.561   1.405   8.168
 9258WAT     H228017   8.580   1.286   8.278
 9259WAT      O28018   1.624   5.169   3.892
 9259WAT     H128019   1.655   5.124   3.976
 9259WAT     H228020   1.561   5.109   3.843
 9260WAT      O28021   7.093   2.593   7.266
 9260WAT     H128022   7.144   2.556   7.343
 9260WAT     H228023   7.110   2.538   7.184
 9261WAT      O28024   6.668   0.374   4.528
 9261WAT     H128025   6.730   0.320   4.585
 9261WAT     H228026   6.692   0.361   4.431
 9262WAT      O28027   9.284   1.483   4.244
 9262WAT     H128028   9.243   1.404   4.198
 9262WAT     H228029   9.306   1.553   4.177
 9263WAT      O28030   0.547   7.398   1.884
 9263WAT     H128031   0.580   7.357   1.799
 9263WAT     H228032   0.447   7.396   1.885
 9264WAT      O28033   2.142   0.617   4.436
 9264WAT     H128034   2.070   0.657   4.380
 9264WAT     H228035   2.140   0.658   4.528
 9265WAT      O28036   8.014   0.795   2.186
 9265WAT     H128037   8.082   0.833   2.249
 9265WAT     H228038   7.990   0.863   2.117
 9266WAT      O28039   9.588   3.350   2.043
 9266WAT     H128040   9.686   3.359   2.058
 9266WAT     H228041   9.540   3.422   2.092
 9267WAT      O28042   2.878   5.089   1.747
 9267WAT     H128043   2.977   5.083   1.755
 9267WAT     H228044   2.840   4.998   1.734
 9268WAT      O28045   4.976   8.383   3.233
 9268WAT     H128046   4.883   8.417   3.250
 9268WAT     H228047   4.976   8.328   3.150
 9269WAT      O28048   9.613   4.070   2.361
 9269WAT     H128049   9.597   3.991   2.421
 9269WAT     H228050   9.530   4.091   2.310
 9270WAT      O28051   5.547   6.577   2.472
 9270WAT     H128052   5.574   6.576   2.568
 9270WAT     H228053   5.519   6.669   2.445
 9271WAT      O28054   1.185   9.658   6.436
 9271WAT     H128055   1.215   9.605   6.516
 9271WAT     H228056   1.234   9.745   6.433
 9272WAT      O28057   5.491   2.752   0.339
 9272WAT     H128058   5.395   2.737   0.361
 9272WAT     H228059   5.506   2.849   0.319
 9273WAT      O28060   6.403   1.091   7.862
 9273WAT     H128061   6.470   1.023   7.833
 9273WAT     H228062   6.447   1.162   7.916
 9274WAT      O28063   4.519   6.970   3.005
 9274WAT     H128064   4.614   6.973   2.976
 9274WAT     H228065   4.488   7.063   3.028
 9275WAT      O28066   5.865   4.864   9.866
 9275WAT     H128067   5.866   4.835   9.962
 9275WAT     H228068   5.863   4.783   9.807
 9276WAT      O28069   1.640   5.412   2.142
 9276WAT     H128070   1.690   5.334   2.180
 9276WAT     H228071   1.547   5.412   2.177
 9277WAT      O28072   6.492   9.049   5.878
 9277WAT     H128073   6.552   9.027   5.954
 9277WAT     H228074   6.478   9.148   5.874
 9278WAT      O28075   2.222   2.607   2.240
 9278WAT     H128076   2.299   2.567   2.290
 9278WAT     H228077   2.210   2.703   2.266
 9279WAT      O28078   0.084   6.273   1.519
 9279WAT     H128079  -0.009   6.281   1.486
 9279WAT     H228080   0.083   6.236   1.612
 9280WAT      O28081   0.940   6.041   4.761
 9280WAT     H128082   0.997   5.959   4.754
 9280WAT     H228083   0.953   6.083   4.851
 9281WAT      O28084   9.118   2.785   0.058
 9281WAT     H128085   9.025   2.821   0.065
 9281WAT     H228086   9.117   2.686   0.074
 9282WAT      O28087   6.590   9.514   8.180
 9282WAT     H128088   6.515   9.449   8.189
 9282WAT     H228089   6.610   9.530   8.084
 9283WAT      O28090   7.717   6.654   3.561
 9283WAT     H128091   7.779   6.732   3.571
 9283WAT     H228092   7.748   6.595   3.487
 9284WAT      O28093   4.613   9.456   8.079
 9284WAT     H128094   4.608   9.445   8.178
 9284WAT     H228095   4.630   9.551   8.056
 9285WAT      O28096   7.410   4.872   2.292
 9285WAT     H128097   7.314   4.872   2.264
 9285WAT     H228098   7.465   4.921   2.224
 9286WAT      O28099   5.352   4.258   6.534
 9286WAT     H128100   5.291   4.223   6.462
 9286WAT     H228101   5.416   4.186   6.560
 9287WAT      O28102   8.076   6.994   8.373
 9287WAT     H128103   8.015   6.930   8.420
 9287WAT     H228104   8.130   7.044   8.440
 9288WAT      O28105   8.417   2.116   2.760
 9288WAT     H128106   8.421   2.214   2.740
 9288WAT     H228107   8.348   2.073   2.701
 9289WAT      O28108   7.072   5.152   9.005
 9289WAT     H128109   6.975   5.131   9.019
 9289WAT     H228110   7.104   5.105   8.922
 9290WAT      O28111   4.564   6.532   2.939
 9290WAT     H128112   4.633   6.470   2.903
 9290WAT     H228113   4.479   6.481   2.955
 9291WAT      O28114   4.358   1.395   5.945
 9291WAT     H128115   4.440   1.442   5.979
 9291WAT     H228116   4.287   1.399   6.014
 9292WAT      O28117   4.943   5.449   5.986
 9292WAT     H128118   5.012   5.377   5.978
 9292WAT     H228119   4.882   5.427   6.063
 9293WAT      O28120   0.974   4.495   8.388
 9293WAT     H128121   0.894   4.493   8.328
 9293WAT     H228122   0.998   4.402   8.415
 9294WAT      O28123   4.282   6.430   2.575
 9294WAT     H128124   4.238   6.428   2.664
 9294WAT     H228125   4.222   6.390   2.506
 9295WAT      O28126   5.447   7.548   5.482
 9295WAT     H128127   5.460   7.523   5.386
 9295WAT     H228128   5.536   7.557   5.527
 9296WAT      O28129   3.914   5.563   9.220
 9296WAT     H128130   3.817   5.557   9.196
 9296WAT     H228131   3.930   5.516   9.307
 9297WAT      O28132   0.880   9.631   5.219
 9297WAT     H128133   0.891   9.553   5.158
 9297WAT     H228134   0.942   9.622   5.296
 9298WAT      O28135   3.528   1.593   5.846
 9298WAT     H128136   3.483   1.663   5.790
 9298WAT     H228137   3.618   1.626   5.875
 9299WAT      O28138   1.346   5.198   5.062
 9299WAT     H128139   1.321   5.155   5.149
 9299WAT     H228140   1.288   5.161   4.989
 9300WAT      O28141   3.278   7.211   3.976
 9300WAT     H128142   3.300   7.285   4.041
 9300WAT     H228143   3.189   7.172   4.000
 9301WAT      O28144   5.862   7.123   2.690
 9301WAT     H128145   5.960   7.124   2.670
 9301WAT     H228146   5.828   7.217   2.695
 9302WAT      O28147   7.856   1.660   8.138
 9302WAT     H128148   7.930   1.594   8.125
 9302WAT     H228149   7.788   1.647   8.065
 9303WAT      O28150   4.243   0.905   1.017
 9303WAT     H128151   4.293   0.846   1.080
 9303WAT     H228152   4.268   1.000   1.034
 9304WAT      O28153   1.016   0.171   3.811
 9304WAT     H128154   0.970   0.184   3.899
 9304WAT     H228155   1.007   0.254   3.756
 9305WAT      O28156   1.545   2.086   7.231
 9305WAT     H128157   1.562   2.041   7.319
 9305WAT     H228158   1.489   2.168   7.246
 9306WAT      O28159   1.446   1.727   7.742
 9306WAT     H128160   1.355   1.699   7.712
 9306WAT     H228161   1.448   1.827   7.750
 9307WAT      O28162   0.544   3.107   6.548
 9307WAT     H128163   0.504   3.190   6.587
 9307WAT     H228164   0.608   3.131   6.474
 9308WAT      O28165   9.553   6.447   6.857
 9308WAT     H128166   9.613   6.523   6.832
 9308WAT     H228167   9.596   6.394   6.931
 9309WAT      O28168   9.575   7.259   5.553
 9309WAT     H128169   9.512   7.182   5.538
 9309WAT     H228170   9.559   7.329   5.483
 9310WAT      O28171   3.865   9.347   9.032
 9310WAT     H128172   3.950   9.295   9.020
 9310WAT     H228173   3.838   9.389   8.946
 9311WAT      O28174   6.472   5.662   9.082
 9311WAT     H128175   6.550   5.599   9.094
 9311WAT     H228176   6.434   5.685   9.172
 9312WAT      O28177   4.404   5.452   3.695
 9312WAT     H128178   4.360   5.521   3.752
 9312WAT     H228179   4.383   5.361   3.730
 9313WAT      O28180   9.626   1.266   1.437
 9313WAT     H128181   9.633   1.248   1.339
 9313WAT     H228182   9.715   1.248   1.480
 9314WAT      O28183   0.102   0.734   6.288
 9314WAT     H128184   0.188   0.684   6.290
 9314WAT     H228185   0.099   0.793   6.208
 9315WAT      O28186   4.240   6.970   7.496
 9315WAT     H128187   4.173   6.967   7.422
 9315WAT     H228188   4.193   6.986   7.583
 9316WAT      O28189   8.466   5.326   0.785
 9316WAT     H128190   8.520   5.242   0.796
 9316WAT     H228191   8.448   5.341   0.687
 9317WAT      O28192   6.583   2.610   4.069
 9317WAT     H128193   6.600   2.670   3.991
 9317WAT     H228194   6.500   2.640   4.116
 9318WAT      O28195   5.703   8.186   2.770
 9318WAT     H128196   5.713   8.200   2.672
 9318WAT     H228197   5.693   8.275   2.815
 9319WAT      O28198   1.576   4.497   7.901
 9319WAT     H128199   1.566   4.583   7.951
 9319WAT     H228200   1.582   4.421   7.965
 9320WAT      O28201   9.491   6.573   1.948
 9320WAT     H128202   9.398   6.581   1.911
 9320WAT     H228203   9.487   6.571   2.047
 9321WAT      O28204   5.217   5.228   8.399
 9321WAT     H128205   5.267   5.141   8.403
 9321WAT     H228206   5.157   5.237   8.478
 9322WAT      O28207   5.656   8.442   4.723
 9322WAT     H128208   5.566   8.402   4.739
 9322WAT     H228209   5.684   8.426   4.628
 9323WAT      O28210   7.247   9.395   2.701
 9323WAT     H128211   7.280   9.473   2.648
 9323WAT     H228212   7.234   9.317   2.641
 9324WAT      O28213   1.702   9.358   5.572
 9324WAT     H128214   1.770   9.305   5.521
 9324WAT     H228215   1.610   9.329   5.546
 9325WAT      O28216   2.160   8.551   1.751
 9325WAT     H128217   2.141   8.650   1.753
 9325WAT     H228218   2.254   8.536   1.722
 9326WAT      O28219   1.132   2.957   5.844
 9326WAT     H128220   1.129   2.859   5.822
 9326WAT     H228221   1.218   2.978   5.889
 9327WAT      O28222   7.291   6.426   2.046
 9327WAT     H128223   7.357   6.352   2.051
 9327WAT     H228224   7.256   6.432   1.952
 9328WAT      O28225   0.594   6.184   4.387
 9328WAT     H128226   0.678   6.146   4.347
 9328WAT     H228227   0.588   6.281   4.366
 9329WAT      O28228   3.897   7.997   1.655
 9329WAT     H128229   3.839   8.013   1.734
 9329WAT     H228230   3.908   8.082   1.604
 9330WAT      O28231   2.122   0.990   5.112
 9330WAT     H128232   2.164   1.081   5.108
 9330WAT     H228233   2.023   0.999   5.112
 9331WAT      O28234   7.938   7.199   2.790
 9331WAT     H128235   7.843   7.168   2.794
 9331WAT     H228236   7.976   7.182   2.699
 9332WAT      O28237   0.158   0.575   4.949
 9332WAT     H128238   0.209   0.641   5.003
 9332WAT     H228239   0.115   0.621   4.871
 9333WAT      O28240   6.212   8.969   6.297
 9333WAT     H128241   6.288   8.906   6.310
 9333WAT     H228242   6.143   8.952   6.368
 9334WAT      O28243   6.393   9.252   8.998
 9334WAT     H128244   6.428   9.177   9.055
 9334WAT     H228245   6.312   9.221   8.949
 9335WAT      O28246   4.618   6.788   4.448
 9335WAT     H128247   4.668   6.704   4.469
 9335WAT     H228248   4.520   6.771   4.460
 9336WAT      O28249   9.476   7.692   6.269
 9336WAT     H128250   9.529   7.608   6.276
 9336WAT     H228251   9.403   7.692   6.337
 9337WAT      O28252   1.610   5.038   9.019
 9337WAT     H128253   1.560   5.034   8.932
 9337WAT     H228254   1.649   4.948   9.038
 9338WAT      O28255   2.875   7.384   5.375
 9338WAT     H128256   2.885   7.481   5.398
 9338WAT     H228257   2.857   7.331   5.458
 9339WAT      O28258   5.759   1.185   1.528
 9339WAT     H128259   5.744   1.167   1.431
 9339WAT     H228260   5.801   1.105   1.571
 9340WAT      O28261   7.406   8.197   2.338
 9340WAT     H128262   7.502   8.223   2.344
 9340WAT     H228263   7.350   8.264   2.387
 9341WAT      O28264   0.315   9.312   2.432
 9341WAT     H128265   0.262   9.249   2.375
 9341WAT     H228266   0.252   9.370   2.485
 9342WAT      O28267   6.954   7.034   5.784
 9342WAT     H128268   6.898   7.090   5.846
 9342WAT     H228269   6.967   6.943   5.823
 9343WAT      O28270   1.563   2.939   6.509
 9343WAT     H128271   1.559   2.976   6.416
 9343WAT     H228272   1.647   2.969   6.553
 9344WAT      O28273   1.154   6.697   2.917
 9344WAT     H128274   1.203   6.784   2.910
 9344WAT     H228275   1.220   6.622   2.922
 9345WAT      O28276   0.926   1.850   7.689
 9345WAT     H128277   0.869   1.930   7.670
 9345WAT     H228278   1.012   1.856   7.638
 9346WAT      O28279   8.972   5.225   6.257
 9346WAT     H128280   9.014   5.280   6.185
 9346WAT     H228281   8.977   5.274   6.344
 9347WAT      O28282   9.217   0.997   2.664
 9347WAT     H128283   9.179   0.905   2.671
 9347WAT     H228284   9.314   0.991   2.638
 9348WAT      O28285   8.737   7.208   5.263
 9348WAT     H128286   8.665   7.214   5.194
 9348WAT     H228287   8.754   7.299   5.301
 9349WAT      O28288   3.340   5.075   7.941
 9349WAT     H128289   3.340   5.166   7.899
 9349WAT     H228290   3.421   5.066   8.000
 9350WAT      O28291   6.889   7.233   2.649
 9350WAT     H128292   6.925   7.235   2.556
 9350WAT     H228293   6.942   7.295   2.707
 9351WAT      O28294   5.102   1.203   2.276
 9351WAT     H128295   5.119   1.249   2.364
 9351WAT     H228296   5.186   1.158   2.246
 9352WAT      O28297   0.449   4.512   7.493
 9352WAT     H128298   0.530   4.470   7.533
 9352WAT     H228299   0.395   4.442   7.445
 9353WAT      O28300   3.178   3.124   5.887
 9353WAT     H128301   3.117   3.195   5.854
 9353WAT     H228302   3.127   3.060   5.945
 9354WAT      O28303   3.507   0.333   0.265
 9354WAT     H128304   3.494   0.237   0.240
 9354WAT     H228305   3.444   0.390   0.213
 9355WAT      O28306   9.343   9.069   8.843
 9355WAT     H128307   9.421   9.019   8.881
 9355WAT     H228308   9.258   9.022   8.868
 9356WAT      O28309   9.656   8.624   6.154
 9356WAT     H128310   9.595   8.570   6.097
 9356WAT     H228311   9.691   8.568   6.229
 9357WAT      O28312   4.657   5.986   0.124
 9357WAT     H128313   4.578   5.944   0.167
 9357WAT     H228314   4.727   6.005   0.194
 9358WAT      O28315   9.637   1.266   3.694
 9358WAT     H128316   9.549   1.313   3.686
 9358WAT     H228317   9.673   1.279   3.786
 9359WAT      O28318   1.783   5.530   0.196
 9359WAT     H128319   1.845   5.463   0.236
 9359WAT     H228320   1.819   5.622   0.212
 9360WAT      O28321   8.644   8.464   2.460
 9360WAT     H128322   8.550   8.449   2.429
 9360WAT     H228323   8.656   8.418   2.549
 9361WAT      O28324   8.977   2.590   1.579
 9361WAT     H128325   9.021   2.664   1.630
 9361WAT     H228326   9.042   2.548   1.517
 9362WAT      O28327   2.165   1.711   1.677
 9362WAT     H128328   2.262   1.731   1.658
 9362WAT     H228329   2.114   1.797   1.681
 9363WAT      O28330   4.614   8.313   1.352
 9363WAT     H128331   4.699   8.306   1.301
 9363WAT     H228332   4.538   8.283   1.294
 9364WAT      O28333   2.765   7.879   1.983
 9364WAT     H128334   2.763   7.970   2.023
 9364WAT     H228335   2.726   7.813   2.047
 9365WAT      O28336   1.440   8.680   8.066
 9365WAT     H128337   1.400   8.768   8.092
 9365WAT     H228338   1.460   8.627   8.148
 9366WAT      O28339   5.719   6.057   5.628
 9366WAT     H128340   5.693   6.112   5.707
 9366WAT     H228341   5.724   5.961   5.654
 9367WAT      O28342   7.166   6.769   4.913
 9367WAT     H128343   7.091   6.770   4.847
 9367WAT     H228344   7.212   6.858   4.913
 9368WAT      O28345   5.729   0.699   6.625
 9368WAT     H128346   5.826   0.713   6.610
 9368WAT     H228347   5.677   0.776   6.588
 9369WAT      O28348   4.366   6.739   8.458
 9369WAT     H128349   4.343   6.783   8.371
 9369WAT     H228350   4.326   6.793   8.533
 9370WAT      O28351   3.433   8.508   8.538
 9370WAT     H128352   3.497   8.581   8.514
 9370WAT     H228353   3.454   8.473   8.629
 9371WAT      O28354   8.052   2.092   2.243
 9371WAT     H128355   7.986   2.085   2.318
 9371WAT     H228356   8.064   2.188   2.217
 9372WAT      O28357   1.117   3.714   0.249
 9372WAT     H128358   1.212   3.730   0.220
 9372WAT     H228359   1.069   3.662   0.178
 9373WAT      O28360   3.368   7.070   4.290
 9373WAT     H128361   3.441   7.108   4.235
 9373WAT     H228362   3.407   7.023   4.370
 9374WAT      O28363   4.232   7.546   4.659
 9374WAT     H128364   4.155   7.527   4.720
 9374WAT     H228365   4.302   7.475   4.671
 9375WAT      O28366   7.298   3.115   1.514
 9375WAT     H128367   7.202   3.133   1.491
 9375WAT     H228368   7.352   3.197   1.496
 9376WAT      O28369   1.008   3.689   2.754
 9376WAT     H128370   1.085   3.690   2.690
 9376WAT     H228371   1.022   3.759   2.824
 9377WAT      O28372   6.507   3.268   1.645
 9377WAT     H128373   6.475   3.183   1.602
 9377WAT     H228374   6.604   3.280   1.625
 9378WAT      O28375   6.806   7.195   9.467
 9378WAT     H128376   6.719   7.243   9.476
 9378WAT     H228377   6.853   7.194   9.555
 9379WAT      O28378   0.691   6.795   0.077
 9379WAT     H128379   0.619   6.734   0.110
 9379WAT     H228380   0.671   6.821  -0.017
 9380WAT      O28381   8.727   0.427   7.614
 9380WAT     H128382   8.634   0.450   7.585
 9380WAT     H228383   8.773   0.377   7.540
 9381WAT      O28384   0.844   2.778   5.980
 9381WAT     H128385   0.801   2.688   5.986
 9381WAT     H228386   0.815   2.833   6.058
 9382WAT      O28387   2.093   4.845   1.684
 9382WAT     H128388   2.176   4.899   1.702
 9382WAT     H228389   2.021   4.875   1.746
 9383WAT      O28390   3.068   0.379   2.390
 9383WAT     H128391   2.999   0.312   2.361
 9383WAT     H228392   3.052   0.466   2.342
 9384WAT      O28393   9.088   7.642   4.804
 9384WAT     H128394   9.118   7.547   4.814
 9384WAT     H228395   9.021   7.663   4.876
 9385WAT      O28396   2.519   8.062   8.980
 9385WAT     H128397   2.485   8.109   8.898
 9385WAT     H228398   2.499   7.964   8.974
 9386WAT      O28399   0.378   1.011   0.189
 9386WAT     H128400   0.392   0.913   0.173
 9386WAT     H228401   0.285   1.026   0.223
 9387WAT      O28402   0.163   4.115   0.775
 9387WAT     H128403   0.077   4.069   0.798
 9387WAT     H228404   0.157   4.152   0.682
 9388WAT      O28405   2.807   7.286   7.469
 9388WAT     H128406   2.872   7.213   7.451
 9388WAT     H228407   2.716   7.247   7.486
 9389WAT      O28408   4.390   5.305   4.257
 9389WAT     H128409   4.423   5.264   4.171
 9389WAT     H228410   4.322   5.376   4.236
 9390WAT      O28411   4.370   4.879   6.869
 9390WAT     H128412   4.306   4.804   6.880
 9390WAT     H228413   4.410   4.875   6.777
 9391WAT      O28414   2.038   8.816   7.601
 9391WAT     H128415   2.087   8.754   7.540
 9391WAT     H228416   1.981   8.878   7.547
 9392WAT      O28417   1.273   6.833   5.673
 9392WAT     H128418   1.328   6.802   5.596
 9392WAT     H228419   1.318   6.809   5.759
 9393WAT      O28420   8.848   9.546   6.764
 9393WAT     H128421   8.812   9.634   6.795
 9393WAT     H228422   8.912   9.560   6.689
 9394WAT      O28423   3.297   8.552   8.310
 9394WAT     H128424   3.314   8.649   8.295
 9394WAT     H228425   3.339   8.523   8.396
 9395WAT      O28426   2.103   7.359   9.084
 9395WAT     H128427   2.042   7.427   9.044
 9395WAT     H228428   2.166   7.324   9.014
 9396WAT      O28429   0.303   4.329   8.922
 9396WAT     H128430   0.232   4.265   8.950
 9396WAT     H228431   0.273   4.423   8.942
 9397WAT      O28432   2.924   8.994   7.866
 9397WAT     H128433   2.883   8.931   7.800
 9397WAT     H228434   2.985   8.944   7.927
 9398WAT      O28435   3.572   9.803   8.442
 9398WAT     H128436   3.477   9.773   8.429
 9398WAT     H228437   3.585   9.833   8.536
 9399WAT      O28438   5.348   1.635   8.196
 9399WAT     H128439   5.259   1.678   8.187
 9399WAT     H228440   5.417   1.688   8.146
 9400WAT      O28441   8.535   7.173   3.019
 9400WAT     H128442   8.498   7.081   3.010
 9400WAT     H228443   8.476   7.228   3.079
 9401WAT      O28444   8.948   7.127   7.951
 9401WAT     H128445   8.986   7.220   7.945
 9401WAT     H228446   8.986   7.081   8.031
 9402WAT      O28447   0.479   3.141   9.044
 9402WAT     H128448   0.553   3.091   8.999
 9402WAT     H228449   0.405   3.077   9.066
 9403WAT      O28450   6.397   1.768   4.109
 9403WAT     H128451   6.375   1.737   4.202
 9403WAT     H228452   6.494   1.791   4.103
 9404WAT      O28453   4.592   0.753   0.931
 9404WAT     H128454   4.541   0.677   0.972
 9404WAT     H228455   4.609   0.823   1.000
 9405WAT      O28456   7.093   8.205   4.754
 9405WAT     H128457   7.150   8.145   4.697
 9405WAT     H228458   7.148   8.282   4.787
 9406WAT      O28459   1.636   4.495   3.454
 9406WAT     H128460   1.634   4.463   3.549
 9406WAT     H228461   1.587   4.430   3.396
 9407WAT      O28462   7.647   7.667   2.308
 9407WAT     H128463   7.725   7.607   2.320
 9407WAT     H228464   7.673   7.761   2.328
 9408WAT      O28465   6.100   3.626   4.914
 9408WAT     H128466   6.031   3.596   4.849
 9408WAT     H228467   6.165   3.553   4.930
 9409WAT      O28468   7.939   2.643   4.680
 9409WAT     H128469   7.925   2.639   4.581
 9409WAT     H228470   7.916   2.735   4.713
 9410WAT      O28471   9.226   3.756   7.081
 9410WAT     H128472   9.249   3.661   7.099
 9410WAT     H228473   9.184   3.797   7.162
 9411WAT      O28474   3.325   7.898   4.696
 9411WAT     H128475   3.416   7.930   4.669
 9411WAT     H228476   3.330   7.851   4.784
 9412WAT      O28477   7.778   7.491   4.879
 9412WAT     H128478   7.746   7.399   4.901
 9412WAT     H228479   7.700   7.553   4.878
 9413WAT      O28480   2.391   7.111   9.228
 9413WAT     H128481   2.312   7.057   9.258
 9413WAT     H228482   2.388   7.120   9.128
 9414WAT      O28483   5.786   8.030   3.409
 9414WAT     H128484   5.721   8.056   3.480
 9414WAT     H228485   5.773   7.933   3.387
 9415WAT      O28486   2.309   6.513   0.393
 9415WAT     H128487   2.408   6.527   0.392
 9415WAT     H228488   2.281   6.470   0.307
 9416WAT      O28489   3.446   7.856   2.795
 9416WAT     H128490   3.445   7.858   2.895
 9416WAT     H228491   3.355   7.879   2.760
 9417WAT      O28492   5.661   6.118   1.199
 9417WAT     H128493   5.745   6.169   1.186
 9417WAT     H228494   5.670   6.057   1.279
 9418WAT      O28495   6.006   1.392   0.730
 9418WAT     H128496   6.050   1.405   0.819
 9418WAT     H228497   6.074   1.394   0.657
 9419WAT      O28498   2.872   6.237   3.391
 9419WAT     H128499   2.898   6.285   3.475
 9419WAT     H228500   2.822   6.299   3.331
 9420WAT      O28501   9.679   3.687   4.818
 9420WAT     H128502   9.771   3.711   4.848
 9420WAT     H228503   9.644   3.611   4.873
 9421WAT      O28504   5.854   6.832   8.079
 9421WAT     H128505   5.805   6.832   7.992
 9421WAT     H228506   5.853   6.740   8.118
 9422WAT      O28507   6.119   4.876   4.724
 9422WAT     H128508   6.111   4.778   4.707
 9422WAT     H228509   6.194   4.893   4.788
 9423WAT      O28510   6.888   8.923   5.397
 9423WAT     H128511   6.986   8.922   5.381
 9423WAT     H228512   6.843   8.863   5.330
 9424WAT      O28513   1.835   1.905   9.278
 9424WAT     H128514   1.837   1.847   9.197
 9424WAT     H228515   1.912   1.968   9.277
 9425WAT      O28516   9.322   8.449   7.527
 9425WAT     H128517   9.322   8.374   7.461
 9425WAT     H228518   9.263   8.523   7.493
 9426WAT      O28519   9.001   3.738   6.419
 9426WAT     H128520   9.026   3.642   6.432
 9426WAT     H228521   9.074   3.785   6.369
 9427WAT      O28522   7.122   0.017   4.658
 9427WAT     H128523   7.052   0.064   4.605
 9427WAT     H228524   7.212   0.056   4.637
 9428WAT      O28525   3.786   7.557   0.561
 9428WAT     H128526   3.746   7.562   0.652
 9428WAT     H228527   3.770   7.467   0.522
 9429WAT      O28528   0.706   0.280   1.490
 9429WAT     H128529   0.801   0.309   1.477
 9429WAT     H228530   0.705   0.190   1.534
 9430WAT      O28531   5.856   2.815   4.277
 9430WAT     H128532   5.806   2.900   4.263
 9430WAT     H228533   5.900   2.787   4.191
 9431WAT      O28534   7.935   2.991   5.372
 9431WAT     H128535   7.936   2.904   5.421
 9431WAT     H228536   7.943   3.066   5.438
 9432WAT      O28537   4.412   9.127   3.011
 9432WAT     H128538   4.463   9.041   3.015
 9432WAT     H228539   4.443   9.180   2.932
 9433WAT      O28540   2.142   4.733   5.773
 9433WAT     H128541   2.155   4.829   5.749
 9433WAT     H228542   2.069   4.693   5.718
 9434WAT      O28543   6.051   5.606   4.583
 9434WAT     H128544   6.017   5.693   4.621
 9434WAT     H228545   6.008   5.530   4.631
 9435WAT      O28546   4.124   5.629   2.195
 9435WAT     H128547   4.144   5.536   2.162
 9435WAT     H228548   4.169   5.644   2.283
 9436WAT      O28549   8.602   1.906   7.704
 9436WAT     H128550   8.533   1.895   7.775
 9436WAT     H228551   8.610   2.003   7.679
 9437WAT      O28552   5.934   2.636   4.710
 9437WAT     H128553   5.882   2.627   4.626
 9437WAT     H228554   5.894   2.708   4.767
 9438WAT      O28555   7.825   5.510   5.765
 9438WAT     H128556   7.868   5.499   5.854
 9438WAT     H228557   7.869   5.448   5.699
 9439WAT      O28558   8.159   8.608   2.371
 9439WAT     H128559   8.216   8.664   2.310
 9439WAT     H228560   8.076   8.658   2.395
 9440WAT      O28561   9.843   0.231   4.338
 9440WAT     H128562   9.821   0.179   4.421
 9440WAT     H228563   9.761   0.239   4.282
 9441WAT      O28564   3.009   3.068   7.064
 9441WAT     H128565   3.077   3.046   6.993
 9441WAT     H228566   2.927   3.013   7.048
 9442WAT      O28567   7.908   8.338   0.134
 9442WAT     H128568   7.967   8.372   0.061
 9442WAT     H228569   7.922   8.240   0.145
 9443WAT      O28570   0.133   0.663   9.001
 9443WAT     H128571   0.067   0.589   8.991
 9443WAT     H228572   0.085   0.751   8.993
 9444WAT      O28573   9.405   5.083   0.035
 9444WAT     H128574   9.446   5.046  -0.048
 9444WAT     H228575   9.349   5.013   0.079
 9445WAT      O28576   0.166   9.451   2.610
 9445WAT     H128577   0.153   9.550   2.611
 9445WAT     H228578   0.081   9.406   2.636
 9446WAT      O28579   0.863   3.522   2.150
 9446WAT     H128580   0.769   3.508   2.181
 9446WAT     H228581   0.864   3.586   2.073
 9447WAT      O28582   9.020   5.075   2.375
 9447WAT     H128583   9.033   5.107   2.469
 9447WAT     H228584   9.015   4.975   2.374
 9448WAT      O28585   8.062   3.204   6.482
 9448WAT     H128586   7.991   3.272   6.499
 9448WAT     H228587   8.071   3.143   6.560
 9449WAT      O28588   3.633   8.359   8.402
 9449WAT     H128589   3.701   8.286   8.409
 9449WAT     H228590   3.669   8.435   8.348
 9450WAT      O28591   9.728   1.110   9.087
 9450WAT     H128592   9.705   1.204   9.111
 9450WAT     H228593   9.693   1.088   8.996
 9451WAT      O28594   7.133   3.866   5.803
 9451WAT     H128595   7.037   3.869   5.777
 9451WAT     H228596   7.149   3.792   5.869
 9452WAT      O28597   1.274   9.772   4.829
 9452WAT     H128598   1.206   9.703   4.802
 9452WAT     H228599   1.307   9.819   4.747
 9453WAT      O28600   8.275   0.679   3.640
 9453WAT     H128601   8.339   0.632   3.579
 9453WAT     H228602   8.181   0.662   3.610
 9454WAT      O28603   7.585   2.458   8.932
 9454WAT     H128604   7.588   2.417   8.841
 9454WAT     H228605   7.648   2.536   8.935
 9455WAT      O28606   9.152   5.364   4.596
 9455WAT     H128607   9.110   5.318   4.674
 9455WAT     H228608   9.149   5.304   4.516
 9456WAT      O28609   7.558   6.609   8.180
 9456WAT     H128610   7.537   6.635   8.085
 9456WAT     H228611   7.473   6.582   8.226
 9457WAT      O28612   8.598   6.159   4.548
 9457WAT     H128613   8.525   6.215   4.586
 9457WAT     H228614   8.625   6.194   4.459
 9458WAT      O28615   9.108   5.828   6.339
 9458WAT     H128616   9.052   5.775   6.403
 9458WAT     H228617   9.053   5.852   6.259
 9459WAT      O28618   7.827   4.319   6.020
 9459WAT     H128619   7.880   4.259   6.079
 9459WAT     H228620   7.752   4.359   6.073
 9460WAT      O28621   0.846   9.085   5.588
 9460WAT     H128622   0.773   9.111   5.651
 9460WAT     H228623   0.915   9.157   5.584
 9461WAT      O28624   5.463   3.083   6.656
 9461WAT     H128625   5.441   2.985   6.651
 9461WAT     H228626   5.558   3.095   6.684
 9462WAT      O28627   9.228   8.234   8.688
 9462WAT     H128628   9.279   8.278   8.614
 9462WAT     H228629   9.175   8.302   8.738
 9463WAT      O28630   6.536   6.651   1.102
 9463WAT     H128631   6.443   6.618   1.081
 9463WAT     H228632   6.588   6.577   1.144
 9464WAT      O28633   4.511   4.628   2.563
 9464WAT     H128634   4.601   4.588   2.546
 9464WAT     H228635   4.463   4.574   2.632
 9465WAT      O28636   2.371   0.133   6.267
 9465WAT     H128637   2.361   0.224   6.227
 9465WAT     H228638   2.387   0.141   6.365
 9466WAT      O28639   3.393   0.981   7.749
 9466WAT     H128640   3.478   0.957   7.796
 9466WAT     H228641   3.317   0.978   7.814
 9467WAT      O28642   3.822   0.626   5.812
 9467WAT     H128643   3.894   0.607   5.879
 9467WAT     H228644   3.751   0.556   5.820
 9468WAT      O28645   2.651   4.019   9.555
 9468WAT     H128646   2.619   4.033   9.649
 9468WAT     H228647   2.575   3.989   9.498
 9469WAT      O28648   1.779   2.339   4.190
 9469WAT     H128649   1.679   2.341   4.188
 9469WAT     H228650   1.812   2.384   4.273
 9470WAT      O28651   5.502   3.034   2.926
 9470WAT     H128652   5.471   3.060   3.018
 9470WAT     H228653   5.511   2.934   2.922
 9471WAT      O28654   2.666   6.642   8.537
 9471WAT     H128655   2.700   6.609   8.625
 9471WAT     H228656   2.704   6.587   8.463
 9472WAT      O28657   7.430   2.036   3.827
 9472WAT     H128658   7.344   1.985   3.826
 9472WAT     H228659   7.429   2.105   3.755
 9473WAT      O28660   0.357   7.428   9.880
 9473WAT     H128661   0.409   7.388   9.805
 9473WAT     H228662   0.415   7.493   9.930
 9474WAT      O28663   0.600   3.780   2.337
 9474WAT     H128664   0.647   3.829   2.263
 9474WAT     H228665   0.625   3.684   2.334
 9475WAT      O28666   8.766   6.370   3.903
 9475WAT     H128667   8.672   6.402   3.913
 9475WAT     H228668   8.775   6.318   3.818
 9476WAT      O28669   5.657   3.046   7.782
 9476WAT     H128670   5.653   2.954   7.821
 9476WAT     H228671   5.751   3.080   7.787
 9477WAT      O28672   6.239   7.989   3.356
 9477WAT     H128673   6.278   8.063   3.301
 9477WAT     H228674   6.305   7.914   3.363
 9478WAT      O28675   9.569   5.346   3.371
 9478WAT     H128676   9.557   5.352   3.271
 9478WAT     H228677   9.481   5.363   3.416
 9479WAT      O28678   1.523   8.423   2.228
 9479WAT     H128679   1.547   8.375   2.144
 9479WAT     H228680   1.522   8.359   2.305
 9480WAT      O28681   8.567   2.891   3.712
 9480WAT     H128682   8.507   2.935   3.778
 9480WAT     H228683   8.595   2.802   3.746
 9481WAT      O28684   1.742   2.082   1.534
 9481WAT     H128685   1.647   2.064   1.559
 9481WAT     H228686   1.787   2.131   1.609
 9482WAT      O28687   6.046   9.132   2.421
 9482WAT     H128688   6.109   9.144   2.344
 9482WAT     H228689   6.014   9.221   2.453
 9483WAT      O28690   5.000   5.081   1.623
 9483WAT     H128691   4.909   5.096   1.663
 9483WAT     H228692   4.991   5.035   1.535
 9484WAT      O28693   5.162   4.843   3.015
 9484WAT     H128694   5.220   4.921   2.992
 9484WAT     H228695   5.113   4.812   2.934
 9485WAT      O28696   2.139   8.435   1.237
 9485WAT     H128697   2.076   8.394   1.304
 9485WAT     H228698   2.212   8.483   1.286
 9486WAT      O28699   7.968   6.498   3.254
 9486WAT     H128700   8.033   6.435   3.296
 9486WAT     H228701   8.011   6.587   3.240
 9487WAT      O28702   5.158   3.801   9.609
 9487WAT     H128703   5.191   3.742   9.535
 9487WAT     H228704   5.058   3.809   9.603
 9488WAT      O28705   1.268   6.338   8.809
 9488WAT     H128706   1.177   6.302   8.787
 9488WAT     H228707   1.293   6.408   8.741
 9489WAT      O28708   5.328   2.166   3.821
 9489WAT     H128709   5.284   2.215   3.745
 9489WAT     H228710   5.367   2.232   3.885
 9490WAT      O28711   1.797   4.633   4.195
 9490WAT     H128712   1.831   4.625   4.289
 9490WAT     H228713   1.850   4.572   4.136
 9491WAT      O28714   7.472   5.728   8.968
 9491WAT     H128715   7.416   5.648   8.989
 9491WAT     H228716   7.563   5.699   8.937
 9492WAT      O28717   0.679   3.716   6.269
 9492WAT     H128718   0.687   3.805   6.225
 9492WAT     H228719   0.672   3.645   6.199
 9493WAT      O28720   6.247   9.385   6.598
 9493WAT     H128721   6.262   9.304   6.541
 9493WAT     H228722   6.182   9.363   6.671
 9494WAT      O28723   2.096   1.700   4.884
 9494WAT     H128724   2.133   1.737   4.799
 9494WAT     H228725   2.162   1.636   4.925
 9495WAT      O28726   0.915   8.436   6.647
 9495WAT     H128727   0.889   8.456   6.742
 9495WAT     H228728   0.912   8.337   6.632
 9496WAT      O28729   5.365   5.521   2.832
 9496WAT     H128730   5.369   5.515   2.932
 9496WAT     H228731   5.358   5.617   2.805
 9497WAT      O28732   8.648   1.302   2.106
 9497WAT     H128733   8.614   1.325   2.015
 9497WAT     H228734   8.727   1.359   2.128
 9498WAT      O28735   5.875   1.208   0.853
 9498WAT     H128736   5.788   1.232   0.896
 9498WAT     H228737   5.909   1.285   0.800
 9499WAT      O28738   3.663   3.058   2.727
 9499WAT     H128739   3.583   3.005   2.698
 9499WAT     H228740   3.709   3.096   2.646
 9500WAT      O28741   3.727   0.360   7.258
 9500WAT     H128742   3.638   0.398   7.286
 9500WAT     H228743   3.732   0.359   7.158
 9501WAT      O28744   7.351   8.811   7.471
 9501WAT     H128745   7.304   8.837   7.387
 9501WAT     H228746   7.337   8.713   7.488
 9502WAT      O28747   3.928   3.086   7.252
 9502WAT     H128748   3.936   3.181   7.285
 9502WAT     H228749   3.943   3.024   7.328
 9503WAT      O28750   8.293   4.010   9.419
 9503WAT     H128751   8.322   3.937   9.480
 9503WAT     H228752   8.275   3.972   9.328
 9504WAT      O28753   3.394   7.405   1.532
 9504WAT     H128754   3.377   7.340   1.458
 9504WAT     H228755   3.334   7.385   1.609
 9505WAT      O28756   7.885   0.332   4.007
 9505WAT     H128757   7.789   0.344   3.980
 9505WAT     H228758   7.923   0.254   3.957
 9506WAT      O28759   6.005   1.746   4.177
 9506WAT     H128760   5.962   1.733   4.266
 9506WAT     H228761   6.037   1.658   4.142
 9507WAT      O28762   1.761   2.667   0.137
 9507WAT     H128763   1.720   2.691   0.225
 9507WAT     H228764   1.802   2.747   0.095
 9508WAT      O28765   4.488   8.037   2.944
 9508WAT     H128766   4.406   8.063   2.893
 9508WAT     H228767   4.547   8.117   2.955
 9509WAT      O28768   1.957   3.097   5.890
 9509WAT     H128769   1.972   3.172   5.826
 9509WAT     H228770   2.019   3.107   5.967
 9510WAT      O28771   3.728   2.110   9.312
 9510WAT     H128772   3.637   2.111   9.272
 9510WAT     H228773   3.796   2.098   9.239
 9511WAT      O28774   4.964   1.339   7.473
 9511WAT     H128775   5.031   1.291   7.528
 9511WAT     H228776   4.912   1.401   7.532
 9512WAT      O28777   2.994   1.752   4.117
 9512WAT     H128778   3.080   1.703   4.131
 9512WAT     H228779   2.953   1.773   4.205
 9513WAT      O28780   9.543   6.803   1.573
 9513WAT     H128781   9.611   6.804   1.648
 9513WAT     H228782   9.457   6.766   1.607
 9514WAT      O28783   5.006   9.743   7.644
 9514WAT     H128784   4.973   9.838   7.647
 9514WAT     H228785   4.952   9.687   7.707
 9515WAT      O28786   8.783   8.553   9.634
 9515WAT     H128787   8.865   8.542   9.690
 9515WAT     H228788   8.800   8.517   9.543
 9516WAT      O28789   3.272   7.492   3.275
 9516WAT     H128790   3.305   7.501   3.369
 9516WAT     H228791   3.253   7.582   3.237
 9517WAT      O28792   9.205   6.215   6.651
 9517WAT     H128793   9.199   6.168   6.563
 9517WAT     H228794   9.300   6.218   6.681
 9518WAT      O28795   5.999   2.210   8.816
 9518WAT     H128796   6.041   2.120   8.810
 9518WAT     H228797   6.069   2.281   8.806
 9519WAT      O28798   1.872   1.669   8.834
 9519WAT     H128799   1.829   1.601   8.775
 9519WAT     H228800   1.910   1.743   8.778
 9520WAT      O28801   0.441   0.885   4.211
 9520WAT     H128802   0.537   0.892   4.237
 9520WAT     H228803   0.433   0.824   4.132
 9521WAT      O28804   0.539   5.437   5.594
 9521WAT     H128805   0.586   5.351   5.612
 9521WAT     H228806   0.467   5.452   5.663
 9522WAT      O28807   9.458   1.149   5.814
 9522WAT     H128808   9.510   1.078   5.768
 9522WAT     H228809   9.506   1.237   5.805
 9523WAT      O28810   6.079   7.368   6.978
 9523WAT     H128811   6.003   7.418   6.937
 9523WAT     H228812   6.164   7.391   6.930
 9524WAT      O28813   3.131   1.984   7.839
 9524WAT     H128814   3.127   2.007   7.742
 9524WAT     H228815   3.145   1.886   7.850
 9525WAT      O28816   0.386   7.854   5.399
 9525WAT     H128817   0.352   7.818   5.486
 9525WAT     H228818   0.426   7.945   5.414
 9526WAT      O28819   4.568   3.740   1.553
 9526WAT     H128820   4.590   3.643   1.567
 9526WAT     H228821   4.603   3.770   1.464
 9527WAT      O28822   7.841   3.904   8.932
 9527WAT     H128823   7.850   3.863   8.841
 9527WAT     H228824   7.745   3.929   8.949
 9528WAT      O28825   0.227   8.684   2.165
 9528WAT     H128826   0.283   8.609   2.128
 9528WAT     H228827   0.176   8.727   2.091
 9529WAT      O28828   9.711   9.777   7.595
 9529WAT     H128829   9.675   9.764   7.687
 9529WAT     H228830   9.661   9.852   7.550
 9530WAT      O28831   1.579   6.561   5.823
 9530WAT     H128832   1.608   6.563   5.919
 9530WAT     H228833   1.656   6.587   5.765
 9531WAT      O28834   4.272   8.476   7.208
 9531WAT     H128835   4.302   8.385   7.181
 9531WAT     H228836   4.218   8.517   7.135
 9532WAT      O28837   8.960   3.313   6.229
 9532WAT     H128838   9.021   3.286   6.155
 9532WAT     H228839   8.963   3.244   6.301
 9533WAT      O28840   3.531   3.819   1.005
 9533WAT     H128841   3.457   3.866   0.957
 9533WAT     H228842   3.500   3.728   1.032
 9534WAT      O28843   4.419   7.991   0.058
 9534WAT     H128844   4.464   8.004  -0.031
 9534WAT     H228845   4.328   7.953   0.044
 9535WAT      O28846   9.691   8.910   8.712
 9535WAT     H128847   9.735   8.822   8.732
 9535WAT     H228848   9.677   8.919   8.613
 9536WAT      O28849   9.328   2.802   3.907
 9536WAT     H128850   9.324   2.702   3.912
 9536WAT     H228851   9.423   2.832   3.900
 9537WAT      O28852   6.119   5.988   7.544
 9537WAT     H128853   6.213   6.004   7.515
 9537WAT     H228854   6.116   5.914   7.610
 9538WAT      O28855   0.958   5.424   9.535
 9538WAT     H128856   0.900   5.380   9.604
 9538WAT     H228857   0.948   5.523   9.541
 9539WAT      O28858   3.493   7.476   6.349
 9539WAT     H128859   3.484   7.512   6.256
 9539WAT     H228860   3.496   7.376   6.347
 9540WAT      O28861   9.522   4.884   1.299
 9540WAT     H128862   9.612   4.910   1.334
 9540WAT     H228863   9.508   4.925   1.209
 9541WAT      O28864   9.867   4.654   2.069
 9541WAT     H128865   9.851   4.733   2.009
 9541WAT     H228866   9.911   4.686   2.154
 9542WAT      O28867   4.316   2.042   5.496
 9542WAT     H128868   4.340   2.118   5.556
 9542WAT     H228869   4.306   2.075   5.402
 9543WAT      O28870   1.598   2.271   7.652
 9543WAT     H128871   1.636   2.362   7.670
 9543WAT     H228872   1.648   2.204   7.707
 9544WAT      O28873   7.073   2.280   6.813
 9544WAT     H128874   6.981   2.299   6.779
 9544WAT     H228875   7.108   2.361   6.859
 9545WAT      O28876   9.371   1.552   5.986
 9545WAT     H128877   9.432   1.631   5.986
 9545WAT     H228878   9.310   1.557   5.907
 9546WAT      O28879   0.677   6.754   5.540
 9546WAT     H128880   0.688   6.849   5.569
 9546WAT     H228881   0.700   6.746   5.443
 9547WAT      O28882   2.677   2.577   9.083
 9547WAT     H128883   2.742   2.524   9.138
 9547WAT     H228884   2.702   2.674   9.085
 9548WAT      O28885   5.345   3.444   6.051
 9548WAT     H128886   5.285   3.476   6.125
 9548WAT     H228887   5.351   3.515   5.980
 9549WAT      O28888   4.441   6.216   5.254
 9549WAT     H128889   4.404   6.148   5.318
 9549WAT     H228890   4.480   6.292   5.306
 9550WAT      O28891   9.581   9.152   4.429
 9550WAT     H128892   9.511   9.185   4.492
 9550WAT     H228893   9.542   9.144   4.338
 9551WAT      O28894   9.608   2.334   8.997
 9551WAT     H128895   9.679   2.283   9.045
 9551WAT     H228896   9.518   2.302   9.025
 9552WAT      O28897   4.480   3.409   6.795
 9552WAT     H128898   4.552   3.410   6.865
 9552WAT     H228899   4.395   3.446   6.834
 9553WAT      O28900   4.895   5.544   9.096
 9553WAT     H128901   4.921   5.556   9.000
 9553WAT     H228902   4.921   5.625   9.148
 9554WAT      O28903   4.250   3.075   0.506
 9554WAT     H128904   4.274   2.980   0.487
 9554WAT     H228905   4.171   3.101   0.450
 9555WAT      O28906   4.853   5.567   8.238
 9555WAT     H128907   4.803   5.567   8.152
 9555WAT     H228908   4.789   5.557   8.314
 9556WAT      O28909   3.940   2.449   2.941
 9556WAT     H128910   3.871   2.512   2.976
 9556WAT     H228911   4.016   2.501   2.901
 9557WAT      O28912   5.903   1.669   6.065
 9557WAT     H128913   5.995   1.630   6.059
 9557WAT     H228914   5.883   1.719   5.981
 9558WAT      O28915   5.410   0.337   1.700
 9558WAT     H128916   5.365   0.274   1.763
 9558WAT     H228917   5.499   0.300   1.674
 9559WAT      O28918   3.216   6.777   0.783
 9559WAT     H128919   3.147   6.848   0.800
 9559WAT     H228920   3.303   6.821   0.760
 9560WAT      O28921   7.379   9.524   1.424
 9560WAT     H128922   7.329   9.455   1.477
 9560WAT     H228923   7.471   9.490   1.404
 9561WAT      O28924   7.929   7.364   1.302
 9561WAT     H128925   7.884   7.426   1.366
 9561WAT     H228926   7.982   7.417   1.236
 9562WAT      O28927   3.370   8.125   0.591
 9562WAT     H128928   3.405   8.091   0.678
 9562WAT     H228929   3.271   8.140   0.597
 9563WAT      O28930   5.444   0.284   5.409
 9563WAT     H128931   5.504   0.208   5.432
 9563WAT     H228932   5.497   0.369   5.405
 9564WAT      O28933   9.054   3.696   4.980
 9564WAT     H128934   9.115   3.703   5.059
 9564WAT     H228935   9.048   3.785   4.934
 9565WAT      O28936   1.364   0.582   5.002
 9565WAT     H128937   1.348   0.642   5.080
 9565WAT     H228938   1.278   0.562   4.956
 9566WAT      O28939   2.767   4.696   8.388
 9566WAT     H128940   2.714   4.781   8.397
 9566WAT     H228941   2.711   4.627   8.342
 9567WAT      O28942   3.553   9.345   7.906
 9567WAT     H128943   3.618   9.363   7.832
 9567WAT     H228944   3.565   9.414   7.978
 9568WAT      O28945   5.152   9.129   3.653
 9568WAT     H128946   5.068   9.141   3.601
 9568WAT     H228947   5.130   9.130   3.751
 9569WAT      O28948   4.387   6.618   2.404
 9569WAT     H128949   4.373   6.542   2.468
 9569WAT     H228950   4.303   6.673   2.399
 9570WAT      O28951   8.218   8.089   6.902
 9570WAT     H128952   8.126   8.052   6.916
 9570WAT     H228953   8.274   8.072   6.983
 9571WAT      O28954   8.132   4.909   6.989
 9571WAT     H128955   8.050   4.928   6.936
 9571WAT     H228956   8.198   4.859   6.933
 9572WAT      O28957   2.279   7.065   5.145
 9572WAT     H128958   2.253   7.160   5.157
 9572WAT     H228959   2.202   7.013   5.108
 9573WAT      O28960   5.656   6.973   1.902
 9573WAT     H128961   5.660   6.873   1.905
 9573WAT     H228962   5.727   7.008   1.841
 9574WAT      O28963   2.322   9.784   7.328
 9574WAT     H128964   2.347   9.697   7.287
 9574WAT     H228965   2.222   9.791   7.334
 9575WAT      O28966   9.798   3.218   9.449
 9575WAT     H128967   9.866   3.223   9.522
 9575WAT     H228968   9.708   3.240   9.486
 9576WAT      O28969   0.291   3.196   0.239
 9576WAT     H128970   0.329   3.191   0.146
 9576WAT     H228971   0.193   3.217   0.234
 9577WAT      O28972   5.907   3.738   9.465
 9577WAT     H128973   5.930   3.797   9.388
 9577WAT     H228974   5.839   3.670   9.436
 9578WAT      O28975   3.314   7.466   1.158
 9578WAT     H128976   3.277   7.461   1.065
 9578WAT     H228977   3.354   7.378   1.183
 9579WAT      O28978   7.977   9.578   7.773
 9579WAT     H128979   7.890   9.619   7.799
 9579WAT     H228980   8.039   9.650   7.740
 9580WAT      O28981   4.064   7.964   9.613
 9580WAT     H128982   4.011   7.954   9.529
 9580WAT     H228983   4.024   7.906   9.684
 9581WAT      O28984   3.878   4.395   9.171
 9581WAT     H128985   3.789   4.350   9.168
 9581WAT     H228986   3.940   4.343   9.229
 9582WAT      O28987   0.666   2.470   1.005
 9582WAT     H128988   0.698   2.461   1.099
 9582WAT     H228989   0.625   2.383   0.975
 9583WAT      O28990   0.344   1.841   8.629
 9583WAT     H128991   0.422   1.816   8.572
 9583WAT     H228992   0.291   1.759   8.652
 9584WAT      O28993   2.561   2.322   2.576
 9584WAT     H128994   2.651   2.288   2.600
 9584WAT     H228995   2.500   2.245   2.557
 9585WAT      O28996   3.287   5.814   6.321
 9585WAT     H128997   3.228   5.886   6.356
 9585WAT     H228998   3.282   5.812   6.221
 9586WAT      O28999   6.846   0.927   4.471
 9586WAT     H129000   6.790   0.845   4.461
 9586WAT     H229001   6.804   0.987   4.540
 9587WAT      O29002   6.455   9.451   2.175
 9587WAT     H129003   6.444   9.382   2.247
 9587WAT     H229004   6.387   9.523   2.188
 9588WAT      O29005   8.352   2.700   1.653
 9588WAT     H129006   8.357   2.640   1.733
 9588WAT     H229007   8.340   2.644   1.571
 9589WAT      O29008   6.167   1.949   1.793
 9589WAT     H129009   6.071   1.962   1.817
 9589WAT     H229010   6.218   2.034   1.808
 9590WAT      O29011   5.746   5.415   4.550
 9590WAT     H129012   5.829   5.369   4.582
 9590WAT     H229013   5.676   5.347   4.528
 9591WAT      O29014   2.855   3.987   7.711
 9591WAT     H129015   2.823   3.916   7.649
 9591WAT     H229016   2.913   4.052   7.661
 9592WAT      O29017   3.786   5.230   2.094
 9592WAT     H129018   3.735   5.195   2.016
 9592WAT     H229019   3.840   5.309   2.067
 9593WAT      O29020   8.507   0.758   7.468
 9593WAT     H129021   8.593   0.804   7.492
 9593WAT     H229022   8.447   0.823   7.419
 9594WAT      O29023   8.753   9.395   5.349
 9594WAT     H129024   8.743   9.304   5.308
 9594WAT     H229025   8.675   9.413   5.409
 9595WAT      O29026   7.910   6.922   0.316
 9595WAT     H129027   7.951   7.011   0.339
 9595WAT     H229028   7.981   6.852   0.316
 9596WAT      O29029   5.729   5.578   3.272
 9596WAT     H129030   5.714   5.666   3.228
 9596WAT     H229031   5.655   5.559   3.337
 9597WAT      O29032   8.892   3.489   5.942
 9597WAT     H129033   8.920   3.443   5.858
 9597WAT     H229034   8.972   3.510   5.998
 9598WAT      O29035   8.921   5.425   1.995
 9598WAT     H129036   8.849   5.401   2.060
 9598WAT     H229037   9.008   5.390   2.027
 9599WAT      O29038   1.848   7.163   3.823
 9599WAT     H129039   1.819   7.220   3.746
 9599WAT     H229040   1.831   7.212   3.909
 9600WAT      O29041   1.124   3.254   7.139
 9600WAT     H129042   1.057   3.259   7.065
 9600WAT     H229043   1.142   3.158   7.161
 9601WAT      O29044   7.051   5.104   7.586
 9601WAT     H129045   7.078   5.018   7.542
 9601WAT     H229046   7.123   5.172   7.573
 9602WAT      O29047   2.354   7.389   1.489
 9602WAT     H129048   2.399   7.415   1.404
 9602WAT     H229049   2.268   7.343   1.468
 9603WAT      O29050   4.965   1.523   3.640
 9603WAT     H129051   5.036   1.457   3.668
 9603WAT     H229052   4.879   1.474   3.626
 9604WAT      O29053   2.197   5.824   0.430
 9604WAT     H129054   2.199   5.909   0.482
 9604WAT     H229055   2.259   5.758   0.471
 9605WAT      O29056   5.883   3.813   7.515
 9605WAT     H129057   5.876   3.785   7.611
 9605WAT     H229058   5.885   3.913   7.509
 9606WAT      O29059   3.260   6.941   7.284
 9606WAT     H129060   3.219   7.033   7.286
 9606WAT     H229061   3.352   6.947   7.244
 9607WAT      O29062   7.544   1.952   9.671
 9607WAT     H129063   7.525   1.855   9.655
 9607WAT     H229064   7.627   1.977   9.620
 9608WAT      O29065   0.484   5.518   4.597
 9608WAT     H129066   0.516   5.611   4.581
 9608WAT     H229067   0.402   5.501   4.544
 9609WAT      O29068   3.386   4.637   5.108
 9609WAT     H129069   3.394   4.546   5.067
 9609WAT     H229070   3.476   4.679   5.114
 9610WAT      O29071   2.487   2.092   7.019
 9610WAT     H129072   2.516   2.118   6.926
 9610WAT     H229073   2.392   2.117   7.032
 9611WAT      O29074   2.354   5.808   7.110
 9611WAT     H129075   2.259   5.834   7.097
 9611WAT     H229076   2.407   5.888   7.138
 9612WAT      O29077   3.374   0.974   3.135
 9612WAT     H129078   3.325   1.022   3.208
 9612WAT     H229079   3.447   1.033   3.100
 9613WAT      O29080   3.250   3.635   2.885
 9613WAT     H129081   3.263   3.724   2.840
 9613WAT     H229082   3.339   3.591   2.898
 9614WAT      O29083   3.955   5.477   7.631
 9614WAT     H129084   3.931   5.385   7.663
 9614WAT     H229085   3.877   5.538   7.645
 9615WAT      O29086   5.377   7.411   6.547
 9615WAT     H129087   5.282   7.385   6.529
 9615WAT     H229088   5.410   7.360   6.627
 9616WAT      O29089   3.291   6.381   0.996
 9616WAT     H129090   3.291   6.350   0.901
 9616WAT     H229091   3.236   6.465   1.003
 9617WAT      O29092   4.199   0.093   3.110
 9617WAT     H129093   4.190  -0.006   3.120
 9617WAT     H229094   4.137   0.139   3.174
 9618WAT      O29095   2.406   2.859   9.238
 9618WAT     H129096   2.497   2.832   9.270
 9618WAT     H229097   2.341   2.852   9.314
 9619WAT      O29098   9.085   3.104   5.246
 9619WAT     H129099   9.110   3.200   5.233
 9619WAT     H229100   9.148   3.046   5.194
 9620WAT      O29101   4.640   8.118   1.571
 9620WAT     H129102   4.649   8.205   1.522
 9620WAT     H229103   4.555   8.073   1.543
 9621WAT      O29104   6.104   4.663   2.117
 9621WAT     H129105   6.134   4.611   2.197
 9621WAT     H229106   6.040   4.608   2.064
 9622WAT      O29107   3.571   8.283   4.807
 9622WAT     H129108   3.627   8.303   4.888
 9622WAT     H229109   3.475   8.280   4.832
 9623WAT      O29110   8.785   8.006   8.505
 9623WAT     H129111   8.822   7.913   8.503
 9623WAT     H229112   8.858   8.072   8.520
 9624WAT      O29113   0.975   0.038   4.634
 9624WAT     H129114   0.920   0.020   4.716
 9624WAT     H229115   1.008  -0.049   4.597
 9625WAT      O29116   2.141   2.355   0.099
 9625WAT     H129117   2.217   2.419   0.085
 9625WAT     H229118   2.083   2.388   0.173
 9626WAT      O29119   4.686   5.338   4.295
 9626WAT     H129120   4.726   5.411   4.240
 9626WAT     H229121   4.691   5.252   4.244
 9627WAT      O29122   5.115   8.821   1.125
 9627WAT     H129123   5.145   8.915   1.104
 9627WAT     H229124   5.193   8.759   1.120
 9628WAT      O29125   9.320   9.753   2.426
 9628WAT     H129126   9.263   9.721   2.502
 9628WAT     H229127   9.416   9.733   2.445
 9629WAT      O29128   2.057   8.120   8.761
 9629WAT     H129129   1.972   8.120   8.814
 9629WAT     H229130   2.045   8.173   8.677
 9630WAT      O29131   5.117   6.629   7.026
 9630WAT     H129132   5.169   6.683   7.092
 9630WAT     H229133   5.178   6.592   6.957
 9631WAT      O29134   8.477   9.631   6.053
 9631WAT     H129135   8.410   9.587   5.993
 9631WAT     H229136   8.568   9.594   6.036
 9632WAT      O29137   8.117   3.351   2.370
 9632WAT     H129138   8.065   3.429   2.337
 9632WAT     H229139   8.163   3.375   2.456
 9633WAT      O29140   4.808   3.602   0.923
 9633WAT     H129141   4.816   3.615   1.022
 9633WAT     H229142   4.715   3.575   0.900
 9634WAT      O29143   7.186   6.745   4.194
 9634WAT     H129144   7.117   6.673   4.200
 9634WAT     H229145   7.277   6.703   4.192
 9635WAT      O29146   2.576   6.578   7.888
 9635WAT     H129147   2.611   6.496   7.843
 9635WAT     H229148   2.619   6.588   7.977
 9636WAT      O29149   3.141   5.380   8.398
 9636WAT     H129150   3.231   5.337   8.394
 9636WAT     H229151   3.086   5.351   8.321
 9637WAT      O29152   9.166   4.579   6.004
 9637WAT     H129153   9.185   4.675   5.984
 9637WAT     H229154   9.213   4.554   6.089
 9638WAT      O29155   5.103   8.363   2.375
 9638WAT     H129156   5.031   8.383   2.441
 9638WAT     H229157   5.137   8.449   2.336
 9639WAT      O29158   9.157   3.483   5.581
 9639WAT     H129159   9.223   3.471   5.507
 9639WAT     H229160   9.206   3.498   5.667
 9640WAT      O29161   9.019   4.074   6.698
 9640WAT     H129162   9.079   4.095   6.776
 9640WAT     H229163   9.015   4.154   6.638
 9641WAT      O29164   7.548   9.609   8.137
 9641WAT     H129165   7.512   9.683   8.081
 9641WAT     H229166   7.645   9.597   8.118
 9642WAT      O29167   4.862   3.437   8.890
 9642WAT     H129168   4.809   3.364   8.845
 9642WAT     H229169   4.819   3.525   8.872
 9643WAT      O29170   6.770   5.852   8.105
 9643WAT     H129171   6.695   5.887   8.162
 9643WAT     H229172   6.804   5.767   8.144
 9644WAT      O29173   3.891   3.466   8.540
 9644WAT     H129174   3.838   3.456   8.456
 9644WAT     H229175   3.843   3.528   8.602
 9645WAT      O29176   2.822   2.887   0.291
 9645WAT     H129177   2.848   2.942   0.212
 9645WAT     H229178   2.860   2.794   0.281
 9646WAT      O29179   1.449   9.180   4.356
 9646WAT     H129180   1.418   9.248   4.290
 9646WAT     H229181   1.466   9.094   4.310
 9647WAT      O29182   2.312   1.651   5.314
 9647WAT     H129183   2.329   1.748   5.298
 9647WAT     H229184   2.263   1.613   5.236
 9648WAT      O29185   5.166   2.677   5.829
 9648WAT     H129186   5.120   2.762   5.854
 9648WAT     H229187   5.239   2.697   5.763
 9649WAT      O29188   8.940   4.370   3.244
 9649WAT     H129189   9.026   4.326   3.272
 9649WAT     H229190   8.950   4.470   3.253
 9650WAT      O29191   6.537   3.095   3.177
 9650WAT     H129192   6.530   3.001   3.211
 9650WAT     H229193   6.486   3.104   3.092
 9651WAT      O29194   6.834   1.071   6.198
 9651WAT     H129195   6.802   1.152   6.149
 9651WAT     H229196   6.851   0.997   6.133
 9652WAT      O29197   6.141   1.233   3.847
 9652WAT     H129198   6.050   1.267   3.826
 9652WAT     H229199   6.186   1.294   3.912
 9653WAT      O29200   9.693   2.026   2.274
 9653WAT     H129201   9.725   2.069   2.358
 9653WAT     H229202   9.599   2.056   2.255
 9654WAT      O29203   0.066   8.311   9.167
 9654WAT     H129204  -0.006   8.245   9.145
 9654WAT     H229205   0.155   8.268   9.158
 9655WAT      O29206   8.292   4.923   2.622
 9655WAT     H129207   8.265   4.953   2.530
 9655WAT     H229208   8.317   4.826   2.619
 9656WAT      O29209   8.676   9.409   9.731
 9656WAT     H129210   8.650   9.420   9.826
 9656WAT     H229211   8.596   9.423   9.672
 9657WAT      O29212   5.130   3.563   7.343
 9657WAT     H129213   5.189   3.511   7.405
 9657WAT     H229214   5.036   3.529   7.351
 9658WAT      O29215   3.347   4.920   9.341
 9658WAT     H129216   3.436   4.918   9.295
 9658WAT     H229217   3.296   4.837   9.318
 9659WAT      O29218   7.373   8.498   2.835
 9659WAT     H129219   7.299   8.468   2.895
 9659WAT     H229220   7.396   8.593   2.856
 9660WAT      O29221   2.176   3.045   4.309
 9660WAT     H129222   2.257   3.081   4.353
 9660WAT     H229223   2.095   3.066   4.365
 9661WAT      O29224   5.808   7.642   3.187
 9661WAT     H129225   5.728   7.595   3.149
 9661WAT     H229226   5.792   7.659   3.284
 9662WAT      O29227   8.872   2.057   7.159
 9662WAT     H129228   8.929   2.071   7.078
 9662WAT     H229229   8.924   2.007   7.229
 9663WAT      O29230   8.934   9.635   8.720
 9663WAT     H129231   8.939   9.611   8.817
 9663WAT     H229232   9.026   9.649   8.684
 9664WAT      O29233   6.386   0.804   5.559
 9664WAT     H129234   6.354   0.716   5.595
 9664WAT     H229235   6.477   0.823   5.595
 9665WAT      O29236   2.270   6.351   5.867
 9665WAT     H129237   2.232   6.360   5.960
 9665WAT     H229238   2.207   6.298   5.811
 9666WAT      O29239   8.708   6.743   4.565
 9666WAT     H129240   8.617   6.709   4.589
 9666WAT     H229241   8.709   6.770   4.469
 9667WAT      O29242   9.165   3.733   1.952
 9667WAT     H129243   9.180   3.760   1.857
 9667WAT     H229244   9.113   3.804   1.999
 9668WAT      O29245   9.325   1.756   9.413
 9668WAT     H129246   9.338   1.668   9.459
 9668WAT     H229247   9.308   1.827   9.481
 9669WAT      O29248   9.727   8.397   5.036
 9669WAT     H129249   9.680   8.436   4.957
 9669WAT     H229250   9.762   8.471   5.093
 9670WAT      O29251   7.053   7.638   6.035
 9670WAT     H129252   6.974   7.655   5.976
 9670WAT     H229253   7.088   7.725   6.070
 9671WAT      O29254   8.965   1.921   2.873
 9671WAT     H129255   8.929   1.840   2.827
 9671WAT     H229256   8.890   1.981   2.899
 9672WAT      O29257   2.416   6.137   2.981
 9672WAT     H129258   2.388   6.224   3.023
 9672WAT     H229259   2.363   6.122   2.898
 9673WAT      O29260   5.075   2.426   5.349
 9673WAT     H129261   5.007   2.360   5.383
 9673WAT     H229262   5.113   2.392   5.263
 9674WAT      O29263   0.346   8.066   4.573
 9674WAT     H129264   0.354   8.055   4.672
 9674WAT     H229265   0.260   8.112   4.552
 9675WAT      O29266   5.389   1.439   6.108
 9675WAT     H129267   5.480   1.470   6.080
 9675WAT     H229268   5.383   1.340   6.097
 9676WAT      O29269   9.682   0.821   1.426
 9676WAT     H129270   9.694   0.866   1.337
 9676WAT     H229271   9.766   0.828   1.479
 9677WAT      O29272   1.056   8.526   8.132
 9677WAT     H129273   1.112   8.541   8.213
 9677WAT     H229274   1.115   8.507   8.053
 9678WAT      O29275   2.163   6.362   4.926
 9678WAT     H129276   2.212   6.334   5.009
 9678WAT     H229277   2.124   6.281   4.882
 9679WAT      O29278   1.611   1.754   5.390
 9679WAT     H129279   1.700   1.752   5.344
 9679WAT     H229280   1.625   1.768   5.488
 9680WAT      O29281   2.676   4.078   2.288
 9680WAT     H129282   2.652   4.104   2.194
 9680WAT     H229283   2.602   4.104   2.350
 9681WAT      O29284   8.160   3.169   0.217
 9681WAT     H129285   8.171   3.228   0.296
 9681WAT     H229286   8.087   3.103   0.234
 9682WAT      O29287   1.500   4.114   2.571
 9682WAT     H129288   1.439   4.088   2.646
 9682WAT     H229289   1.446   4.129   2.488
 9683WAT      O29290   8.669   7.361   6.753
 9683WAT     H129291   8.736   7.413   6.700
 9683WAT     H229292   8.585   7.351   6.700
 9684WAT      O29293   2.559   0.693   2.107
 9684WAT     H129294   2.501   0.698   2.026
 9684WAT     H229295   2.642   0.746   2.091
 9685WAT      O29296   8.074   1.723   4.767
 9685WAT     H129297   8.023   1.698   4.849
 9685WAT     H229298   8.169   1.742   4.792
 9686WAT      O29299   8.477   3.387   2.747
 9686WAT     H129300   8.484   3.287   2.745
 9686WAT     H229301   8.567   3.426   2.765
 9687WAT      O29302   2.032   8.073   9.275
 9687WAT     H129303   1.939   8.087   9.242
 9687WAT     H229304   2.077   8.003   9.220
 9688WAT      O29305   0.559   8.289   6.864
 9688WAT     H129306   0.554   8.203   6.916
 9688WAT     H229307   0.550   8.269   6.767
 9689WAT      O29308   4.931   3.058   3.558
 9689WAT     H129309   5.007   3.072   3.621
 9689WAT     H229310   4.944   3.115   3.477
 9690WAT      O29311   3.446   8.919   0.673
 9690WAT     H129312   3.443   8.885   0.767
 9690WAT     H229313   3.454   9.019   0.674
 9691WAT      O29314   8.696   7.062   7.638
 9691WAT     H129315   8.769   7.115   7.595
 9691WAT     H229316   8.733   7.007   7.712
 9692WAT      O29317   2.892   3.390   0.299
 9692WAT     H129318   2.796   3.399   0.272
 9692WAT     H229319   2.942   3.341   0.227
 9693WAT      O29320   4.270   1.635   3.575
 9693WAT     H129321   4.294   1.573   3.500
 9693WAT     H229322   4.268   1.729   3.541
 9694WAT      O29323   3.042   3.448   7.242
 9694WAT     H129324   2.945   3.473   7.242
 9694WAT     H229325   3.055   3.368   7.301
 9695WAT      O29326   6.230   8.946   1.143
 9695WAT     H129327   6.162   9.007   1.103
 9695WAT     H229328   6.239   8.966   1.241
 9696WAT      O29329   8.538   7.350   5.675
 9696WAT     H129330   8.532   7.292   5.594
 9696WAT     H229331   8.581   7.299   5.749
 9697WAT      O29332   1.224   4.193   1.986
 9697WAT     H129333   1.195   4.106   1.945
 9697WAT     H229334   1.324   4.196   1.991
 9698WAT      O29335   8.204   6.817   1.507
 9698WAT     H129336   8.230   6.902   1.553
 9698WAT     H229337   8.150   6.837   1.426
 9699WAT      O29338   0.642   3.628   3.194
 9699WAT     H129339   0.732   3.666   3.214
 9699WAT     H229340   0.573   3.699   3.207
 9700WAT      O29341   6.371   8.161   7.315
 9700WAT     H129342   6.306   8.085   7.319
 9700WAT     H229343   6.404   8.181   7.407
 9701WAT      O29344   2.573   0.198   4.954
 9701WAT     H129345   2.599   0.117   5.006
 9701WAT     H229346   2.642   0.218   4.885
 9702WAT      O29347   1.959   1.150   1.656
 9702WAT     H129348   1.871   1.177   1.695
 9702WAT     H229349   2.020   1.229   1.655
 9703WAT      O29350   4.558   0.950   3.687
 9703WAT     H129351   4.504   0.871   3.716
 9703WAT     H229352   4.552   0.960   3.587
 9704WAT      O29353   6.972   8.507   8.202
 9704WAT     H129354   6.958   8.525   8.299
 9704WAT     H229355   6.895   8.454   8.166
 9705WAT      O29356   9.104   5.181   4.787
 9705WAT     H129357   9.075   5.093   4.749
 9705WAT     H229358   9.085   5.183   4.885
 9706WAT      O29359   7.388   6.972   1.846
 9706WAT     H129360   7.349   6.936   1.761
 9706WAT     H229361   7.462   6.912   1.876
 9707WAT      O29362   0.751   5.186   8.225
 9707WAT     H129363   0.832   5.142   8.187
 9707WAT     H229364   0.758   5.188   8.325
 9708WAT      O29365   5.124   1.280   1.124
 9708WAT     H129366   5.102   1.378   1.118
 9708WAT     H229367   5.221   1.270   1.148
 9709WAT      O29368   0.251   1.164   3.394
 9709WAT     H129369   0.286   1.071   3.408
 9709WAT     H229370   0.314   1.214   3.335
 9710WAT      O29371   3.067   3.267   7.430
 9710WAT     H129372   3.016   3.182   7.436
 9710WAT     H229373   3.152   3.259   7.482
 9711WAT      O29374   9.875   6.386   6.594
 9711WAT     H129375   9.874   6.292   6.628
 9711WAT     H229376   9.872   6.449   6.671
 9712WAT      O29377   1.991   8.812   0.205
 9712WAT     H129378   1.934   8.734   0.230
 9712WAT     H229379   2.085   8.797   0.235
 9713WAT      O29380   2.556   1.689   7.500
 9713WAT     H129381   2.527   1.682   7.596
 9713WAT     H229382   2.491   1.747   7.450
 9714WAT      O29383   9.130   3.184   2.954
 9714WAT     H129384   9.087   3.242   2.885
 9714WAT     H229385   9.059   3.134   3.003
 9715WAT      O29386   7.304   8.167   7.805
 9715WAT     H129387   7.350   8.249   7.772
 9715WAT     H229388   7.372   8.097   7.828
 9716WAT      O29389   7.429   6.206   1.032
 9716WAT     H129390   7.347   6.149   1.042
 9716WAT     H229391   7.490   6.190   1.109
 9717WAT      O29392   6.281   5.787   4.445
 9717WAT     H129393   6.341   5.844   4.500
 9717WAT     H229394   6.230   5.725   4.505
 9718WAT      O29395   9.548   8.194   8.773
 9718WAT     H129396   9.550   8.109   8.720
 9718WAT     H229397   9.550   8.173   8.871
 9719WAT      O29398   3.862   4.826   1.103
 9719WAT     H129399   3.833   4.731   1.093
 9719WAT     H229400   3.924   4.849   1.028
 9720WAT      O29401   0.072   2.093   5.909
 9720WAT     H129402   0.003   2.162   5.930
 9720WAT     H229403   0.159   2.120   5.951
 9721WAT      O29404   9.038   6.603   3.563
 9721WAT     H129405   8.998   6.549   3.488
 9721WAT     H229406   9.000   6.572   3.650
 9722WAT      O29407   0.456   8.335   6.455
 9722WAT     H129408   0.514   8.301   6.529
 9722WAT     H229409   0.499   8.415   6.414
 9723WAT      O29410   2.440   9.251   9.324
 9723WAT     H129411   2.524   9.264   9.270
 9723WAT     H229412   2.378   9.191   9.275
 9724WAT      O29413   4.302   8.602   6.487
 9724WAT     H129414   4.245   8.625   6.408
 9724WAT     H229415   4.315   8.503   6.490
 9725WAT      O29416   7.977   8.510   2.906
 9725WAT     H129417   7.909   8.506   2.979
 9725WAT     H229418   7.940   8.467   2.824
 9726WAT      O29419   1.291   7.004   8.311
 9726WAT     H129420   1.342   6.954   8.241
 9726WAT     H229421   1.286   7.101   8.286
 9727WAT      O29422   8.943   5.851   2.859
 9727WAT     H129423   8.917   5.768   2.908
 9727WAT     H229424   9.007   5.827   2.785
 9728WAT      O29425   5.372   1.361   4.705
 9728WAT     H129426   5.397   1.455   4.727
 9728WAT     H229427   5.301   1.361   4.634
 9729WAT      O29428   7.170   0.498   8.929
 9729WAT     H129429   7.203   0.454   9.012
 9729WAT     H229430   7.085   0.546   8.948
 9730WAT      O29431   9.525   4.388   1.914
 9730WAT     H129432   9.520   4.318   1.985
 9730WAT     H229433   9.491   4.351   1.828
 9731WAT      O29434   2.361   6.086   6.377
 9731WAT     H129435   2.396   6.152   6.444
 9731WAT     H229436   2.305   6.134   6.309
 9732WAT      O29437   6.720   2.197   8.742
 9732WAT     H129438   6.817   2.218   8.754
 9732WAT     H229439   6.671   2.279   8.714
 9733WAT      O29440   6.482   8.988   8.657
 9733WAT     H129441   6.559   9.014   8.715
 9733WAT     H229442   6.449   8.897   8.683
 9734WAT      O29443   9.723   2.180   1.967
 9734WAT     H129444   9.788   2.104   1.959
 9734WAT     H229445   9.730   2.220   2.059
 9735WAT      O29446   2.411   1.409   7.241
 9735WAT     H129447   2.363   1.432   7.326
 9735WAT     H229448   2.376   1.465   7.167
 9736WAT      O29449   3.483   6.997   1.550
 9736WAT     H129450   3.488   6.968   1.454
 9736WAT     H229451   3.568   7.044   1.575
 9737WAT      O29452   8.959   0.948   4.243
 9737WAT     H129453   8.905   0.885   4.188
 9737WAT     H229454   8.900   0.994   4.310
 9738WAT      O29455   0.136   6.243   8.801
 9738WAT     H129456   0.173   6.150   8.811
 9738WAT     H229457   0.208   6.310   8.818
 9739WAT      O29458   6.482   3.200   8.717
 9739WAT     H129459   6.547   3.275   8.703
 9739WAT     H229460   6.436   3.212   8.805
 9740WAT      O29461   9.162   4.391   7.356
 9740WAT     H129462   9.169   4.426   7.263
 9740WAT     H229463   9.231   4.321   7.371
 9741WAT      O29464   3.849   3.205   8.624
 9741WAT     H129465   3.857   3.295   8.580
 9741WAT     H229466   3.866   3.134   8.556
 9742WAT      O29467   2.588   7.947   5.781
 9742WAT     H129468   2.647   8.028   5.788
 9742WAT     H229469   2.643   7.864   5.789
 9743WAT      O29470   0.883   9.606   9.591
 9743WAT     H129471   0.799   9.567   9.628
 9743WAT     H229472   0.961   9.570   9.641
 9744WAT      O29473   2.419   0.171   6.549
 9744WAT     H129474   2.355   0.114   6.599
 9744WAT     H229475   2.506   0.176   6.599
 9745WAT      O29476   7.296   6.795   2.508
 9745WAT     H129477   7.232   6.737   2.558
 9745WAT     H229478   7.371   6.740   2.472
 9746WAT      O29479   0.003   1.044   3.338
 9746WAT     H129480   0.093   1.077   3.366
 9746WAT     H229481  -0.056   1.036   3.419
 9747WAT      O29482   0.096   7.532   9.465
 9747WAT     H129483   0.149   7.600   9.515
 9747WAT     H229484   0.021   7.500   9.523
 9748WAT      O29485   0.106   9.834   8.526
 9748WAT     H129486   0.086   9.861   8.620
 9748WAT     H229487   0.072   9.904   8.462
 9749WAT      O29488   6.761   9.737   3.156
 9749WAT     H129489   6.787   9.748   3.060
 9749WAT     H229490   6.726   9.824   3.191
 9750WAT      O29491   4.663   4.094   9.274
 9750WAT     H129492   4.584   4.142   9.313
 9750WAT     H229493   4.632   4.008   9.233
 9751WAT      O29494   0.029   4.847   3.062
 9751WAT     H129495   0.009   4.751   3.044
 9751WAT     H229496  -0.010   4.903   2.988
 9752WAT      O29497   1.252   7.591   6.029
 9752WAT     H129498   1.323   7.521   6.033
 9752WAT     H229499   1.246   7.628   5.936
 9753WAT      O29500   4.418   3.869   3.956
 9753WAT     H129501   4.504   3.845   4.000
 9753WAT     H229502   4.406   3.969   3.957
 9754WAT      O29503   0.795   0.089   5.418
 9754WAT     H129504   0.828   0.134   5.501
 9754WAT     H229505   0.871   0.076   5.354
 9755WAT      O29506   9.017   4.596   3.864
 9755WAT     H129507   9.002   4.656   3.942
 9755WAT     H229508   8.943   4.530   3.858
 9756WAT      O29509   6.325   3.563   9.793
 9756WAT     H129510   6.232   3.546   9.761
 9756WAT     H229511   6.389   3.558   9.716
 9757WAT      O29512   1.335   0.593   1.507
 9757WAT     H129513   1.388   0.574   1.589
 9757WAT     H229514   1.396   0.600   1.428
 9758WAT      O29515   2.221   7.783   0.018
 9758WAT     H129516   2.194   7.753   0.110
 9758WAT     H229517   2.320   7.795   0.015
 9759WAT      O29518   2.005   4.344   3.563
 9759WAT     H129519   1.944   4.318   3.489
 9759WAT     H229520   1.953   4.355   3.647
 9760WAT      O29521   3.773   8.058   0.017
 9760WAT     H129522   3.816   8.134   0.066
 9760WAT     H229523   3.674   8.071   0.015
 9761WAT      O29524   1.092   7.299   1.246
 9761WAT     H129525   1.162   7.370   1.240
 9761WAT     H229526   1.008   7.337   1.284
 9762WAT      O29527   3.943   7.769   0.593
 9762WAT     H129528   3.947   7.802   0.687
 9762WAT     H229529   3.898   7.680   0.591
 9763WAT      O29530   0.334   2.471   9.142
 9763WAT     H129531   0.241   2.443   9.116
 9763WAT     H229532   0.346   2.458   9.240
 9764WAT      O29533   9.210   2.436   4.967
 9764WAT     H129534   9.110   2.441   4.958
 9764WAT     H229535   9.245   2.526   4.994
 9765WAT      O29536   0.176   9.307   6.350
 9765WAT     H129537   0.263   9.326   6.303
 9765WAT     H229538   0.194   9.292   6.447
 9766WAT      O29539   3.382   8.214   8.494
 9766WAT     H129540   3.362   8.200   8.591
 9766WAT     H229541   3.453   8.283   8.484
 9767WAT      O29542   0.378   9.558   9.838
 9767WAT     H129543   0.398   9.552   9.740
 9767WAT     H229544   0.285   9.594   9.851
 9768WAT      O29545   5.930   6.235   1.185
 9768WAT     H129546   5.940   6.212   1.088
 9768WAT     H229547   5.954   6.156   1.241
 9769WAT      O29548   1.698   7.320   9.545
 9769WAT     H129549   1.711   7.299   9.449
 9769WAT     H229550   1.707   7.419   9.560
 9770WAT      O29551   1.975   6.899   3.353
 9770WAT     H129552   2.069   6.917   3.325
 9770WAT     H229553   1.975   6.850   3.440
 9771WAT      O29554   2.578   9.497   9.741
 9771WAT     H129555   2.649   9.558   9.776
 9771WAT     H229556   2.617   9.436   9.672
 9772WAT      O29557   4.049   1.810   1.405
 9772WAT     H129558   3.957   1.772   1.413
 9772WAT     H229559   4.075   1.854   1.491
 9773WAT      O29560   1.237   3.480   2.129
 9773WAT     H129561   1.303   3.427   2.183
 9773WAT     H229562   1.158   3.422   2.109
 9774WAT      O29563   9.272   6.358   8.076
 9774WAT     H129564   9.278   6.347   8.175
 9774WAT     H229565   9.363   6.351   8.035
 9775WAT      O29566   3.787   4.522   2.842
 9775WAT     H129567   3.845   4.560   2.770
 9775WAT     H229568   3.766   4.427   2.821
 9776WAT      O29569   6.504   0.345   7.234
 9776WAT     H129570   6.526   0.364   7.138
 9776WAT     H229571   6.464   0.426   7.276
 9777WAT      O29572   0.520   2.468   2.096
 9777WAT     H129573   0.582   2.421   2.160
 9777WAT     H229574   0.434   2.417   2.090
 9778WAT      O29575   1.392   6.559   9.686
 9778WAT     H129576   1.461   6.575   9.616
 9778WAT     H229577   1.326   6.491   9.653
 9779WAT      O29578   5.948   8.885   4.377
 9779WAT     H129579   5.875   8.847   4.320
 9779WAT     H229580   5.934   8.856   4.472
 9780WAT      O29581   9.128   6.687   5.722
 9780WAT     H129582   9.127   6.619   5.795
 9780WAT     H229583   9.221   6.700   5.689
 9781WAT      O29584   2.085   3.488   7.497
 9781WAT     H129585   2.068   3.452   7.588
 9781WAT     H229586   2.156   3.558   7.501
 9782WAT      O29587   1.671   8.860   3.681
 9782WAT     H129588   1.594   8.824   3.629
 9782WAT     H229589   1.742   8.790   3.687
 9783WAT      O29590   5.448   4.121   3.129
 9783WAT     H129591   5.400   4.137   3.042
 9783WAT     H229592   5.517   4.193   3.141
 9784WAT      O29593   8.236   1.573   7.593
 9784WAT     H129594   8.323   1.611   7.622
 9784WAT     H229595   8.251   1.481   7.555
 9785WAT      O29596   3.797   7.063   6.469
 9785WAT     H129597   3.867   7.001   6.435
 9785WAT     H229598   3.710   7.015   6.478
 9786WAT      O29599   7.433   9.016   4.531
 9786WAT     H129600   7.354   9.068   4.498
 9786WAT     H229601   7.465   8.954   4.459
 9787WAT      O29602   5.220   9.320   9.627
 9787WAT     H129603   5.280   9.298   9.704
 9787WAT     H229604   5.276   9.346   9.548
 9788WAT      O29605   7.734   8.618   2.642
 9788WAT     H129606   7.646   8.605   2.597
 9788WAT     H229607   7.759   8.536   2.693
 9789WAT      O29608   9.604   0.163   6.058
 9789WAT     H129609   9.595   0.075   6.012
 9789WAT     H229610   9.579   0.153   6.154
 9790WAT      O29611   3.868   7.877   6.365
 9790WAT     H129612   3.879   7.881   6.465
 9790WAT     H229613   3.774   7.899   6.342
 9791WAT      O29614   9.203   2.002   8.505
 9791WAT     H129615   9.206   1.949   8.590
 9791WAT     H229616   9.185   2.098   8.526
 9792WAT      O29617   1.638   3.520   6.279
 9792WAT     H129618   1.691   3.591   6.325
 9792WAT     H229619   1.597   3.556   6.195
 9793WAT      O29620   4.789   3.363   3.255
 9793WAT     H129621   4.812   3.295   3.185
 9793WAT     H229622   4.780   3.453   3.213
 9794WAT      O29623   2.501   2.498   3.033
 9794WAT     H129624   2.575   2.440   3.000
 9794WAT     H229625   2.413   2.458   3.007
 9795WAT      O29626   5.876   4.121   2.808
 9795WAT     H129627   5.831   4.141   2.720
 9795WAT     H229628   5.809   4.083   2.871
 9796WAT      O29629   6.181   5.111   4.964
 9796WAT     H129630   6.108   5.173   4.935
 9796WAT     H229631   6.253   5.163   5.008
 9797WAT      O29632   3.174   7.808   8.056
 9797WAT     H129633   3.251   7.851   8.009
 9797WAT     H229634   3.100   7.874   8.068
 9798WAT      O29635   8.298   5.433   6.426
 9798WAT     H129636   8.384   5.464   6.466
 9798WAT     H229637   8.229   5.423   6.497
 9799WAT      O29638   3.767   0.121   8.881
 9799WAT     H129639   3.783   0.186   8.955
 9799WAT     H229640   3.845   0.058   8.874
 9800WAT      O29641   2.710   9.692   9.523
 9800WAT     H129642   2.810   9.682   9.528
 9800WAT     H229643   2.676   9.644   9.443
 9801WAT      O29644   6.779   9.401   1.399
 9801WAT     H129645   6.781   9.393   1.499
 9801WAT     H229646   6.870   9.422   1.365
 9802WAT      O29647   8.916   6.592   9.035
 9802WAT     H129648   9.003   6.608   9.082
 9802WAT     H229649   8.932   6.593   8.936
 9803WAT      O29650   6.111   1.685   5.821
 9803WAT     H129651   6.024   1.668   5.774
 9803WAT     H229652   6.182   1.628   5.781
 9804WAT      O29653   0.147   6.169   7.081
 9804WAT     H129654   0.223   6.181   7.145
 9804WAT     H229655   0.060   6.179   7.130
 9805WAT      O29656   0.472   9.719   3.648
 9805WAT     H129657   0.377   9.692   3.634
 9805WAT     H229658   0.499   9.784   3.578
 9806WAT      O29659   8.073   3.796   3.714
 9806WAT     H129660   8.056   3.894   3.701
 9806WAT     H229661   8.000   3.744   3.671
 9807WAT      O29662   6.707   4.900   6.652
 9807WAT     H129663   6.610   4.922   6.662
 9807WAT     H229664   6.754   4.918   6.738
 9808WAT      O29665   0.149   3.900   9.840
 9808WAT     H129666   0.114   3.911   9.747
 9808WAT     H229667   0.103   3.824   9.885
 9809WAT      O29668   9.288   8.284   6.307
 9809WAT     H129669   9.196   8.322   6.297
 9809WAT     H229670   9.289   8.189   6.277
 9810WAT      O29671   7.854   0.025   2.447
 9810WAT     H129672   7.818  -0.059   2.406
 9810WAT     H229673   7.854   0.016   2.547
 9811WAT      O29674   6.215   5.613   9.509
 9811WAT     H129675   6.125   5.653   9.526
 9811WAT     H229676   6.272   5.625   9.591
 9812WAT      O29677   5.450   2.657   9.325
 9812WAT     H129678   5.521   2.682   9.391
 9812WAT     H229679   5.364   2.639   9.373
 9813WAT      O29680   1.094   8.515   2.264
 9813WAT     H129681   1.130   8.432   2.307
 9813WAT     H229682   1.170   8.576   2.240
 9814WAT      O29683   6.623   3.884   1.670
 9814WAT     H129684   6.570   3.887   1.755
 9814WAT     H229685   6.613   3.971   1.622
 9815WAT      O29686   9.681   0.799   2.420
 9815WAT     H129687   9.692   0.734   2.496
 9815WAT     H229688   9.771   0.819   2.381
 9816WAT      O29689   0.059   9.643   4.707
 9816WAT     H129690   0.071   9.742   4.708
 9816WAT     H229691   0.110   9.604   4.631
 9817WAT      O29692   6.270   7.063   7.647
 9817WAT     H129693   6.316   6.993   7.592
 9817WAT     H229694   6.327   7.145   7.650
 9818WAT      O29695   5.284   4.257   8.606
 9818WAT     H129696   5.208   4.314   8.573
 9818WAT     H229697   5.348   4.313   8.658
 9819WAT      O29698   7.910   2.711   4.425
 9819WAT     H129699   7.867   2.799   4.405
 9819WAT     H229700   7.883   2.644   4.356
 9820WAT      O29701   3.061   7.230   5.147
 9820WAT     H129702   3.124   7.156   5.170
 9820WAT     H229703   2.996   7.243   5.223
 9821WAT      O29704   9.560   0.672   5.529
 9821WAT     H129705   9.610   0.624   5.602
 9821WAT     H229706   9.501   0.608   5.481
 9822WAT      O29707   0.273   3.412   1.169
 9822WAT     H129708   0.297   3.472   1.093
 9822WAT     H229709   0.223   3.464   1.238
 9823WAT      O29710   7.052   0.377   1.855
 9823WAT     H129711   6.997   0.447   1.810
 9823WAT     H229712   7.143   0.413   1.873
 9824WAT      O29713   2.155   4.516   4.162
 9824WAT     H129714   2.114   4.452   4.227
 9824WAT     H229715   2.155   4.608   4.202
 9825WAT      O29716   5.289   7.953   9.657
 9825WAT     H129717   5.308   8.032   9.599
 9825WAT     H229718   5.339   7.874   9.623
 9826WAT      O29719   3.151   4.460   9.789
 9826WAT     H129720   3.204   4.476   9.873
 9826WAT     H229721   3.203   4.494   9.711
 9827WAT      O29722   9.574   7.362   4.841
 9827WAT     H129723   9.625   7.396   4.762
 9827WAT     H229724   9.477   7.355   4.817
 9828WAT      O29725   4.024   9.194   5.945
 9828WAT     H129726   3.999   9.287   5.918
 9828WAT     H229727   4.035   9.138   5.863
 9829WAT      O29728   4.422   4.706   3.543
 9829WAT     H129729   4.395   4.797   3.574
 9829WAT     H229730   4.469   4.714   3.455
 9830WAT      O29731   1.183   5.803   3.017
 9830WAT     H129732   1.264   5.848   3.053
 9830WAT     H229733   1.138   5.864   2.951
 9831WAT      O29734   3.949   5.415   9.462
 9831WAT     H129735   4.033   5.467   9.475
 9831WAT     H229736   3.967   5.318   9.478
 9832WAT      O29737   3.832   0.200   5.501
 9832WAT     H129738   3.926   0.234   5.499
 9832WAT     H229739   3.824   0.128   5.569
 9833WAT      O29740   5.028   8.354   7.378
 9833WAT     H129741   5.084   8.277   7.346
 9833WAT     H229742   5.084   8.414   7.435
 9834WAT      O29743   8.900   0.108   8.171
 9834WAT     H129744   8.867   0.117   8.077
 9834WAT     H229745   8.960   0.185   8.193
 9835WAT      O29746   0.886   5.302   2.769
 9835WAT     H129747   0.843   5.253   2.693
 9835WAT     H229748   0.910   5.395   2.740
 9836WAT      O29749   6.663   7.915   3.234
 9836WAT     H129750   6.701   7.917   3.327
 9836WAT     H229751   6.584   7.976   3.229
 9837WAT      O29752   2.931   0.982   5.552
 9837WAT     H129753   3.023   0.983   5.511
 9837WAT     H229754   2.908   1.074   5.582
 9838WAT      O29755   8.966   9.078   6.361
 9838WAT     H129756   8.957   9.147   6.289
 9838WAT     H229757   9.021   9.114   6.436
 9839WAT      O29758   1.300   6.616   3.504
 9839WAT     H129759   1.338   6.525   3.520
 9839WAT     H229760   1.363   6.667   3.444
 9840WAT      O29761   1.288   7.818   0.325
 9840WAT     H129762   1.285   7.874   0.242
 9840WAT     H229763   1.223   7.742   0.317
 9841WAT      O29764   0.747   8.111   2.239
 9841WAT     H129765   0.659   8.084   2.201
 9841WAT     H229766   0.732   8.178   2.313
 9842WAT      O29767   8.167   6.307   4.301
 9842WAT     H129768   8.159   6.236   4.371
 9842WAT     H229769   8.171   6.397   4.345
 9843WAT      O29770   7.860   7.871   7.123
 9843WAT     H129771   7.955   7.859   7.149
 9843WAT     H229772   7.804   7.883   7.205
 9844WAT      O29773   0.504   6.529   7.584
 9844WAT     H129774   0.565   6.537   7.505
 9844WAT     H229775   0.485   6.620   7.621
 9845WAT      O29776   7.452   4.451   9.773
 9845WAT     H129777   7.436   4.373   9.834
 9845WAT     H229778   7.504   4.521   9.821
 9846WAT      O29779   9.178   5.158   4.340
 9846WAT     H129780   9.153   5.118   4.252
 9846WAT     H229781   9.178   5.086   4.410
 9847WAT      O29782   3.519   5.717   7.991
 9847WAT     H129783   3.527   5.817   7.995
 9847WAT     H229784   3.436   5.689   8.038
 9848WAT      O29785   5.709   0.917   3.118
 9848WAT     H129786   5.702   0.890   3.021
 9848WAT     H229787   5.620   0.948   3.151
 9849WAT      O29788   6.886   3.813   0.378
 9849WAT     H129789   6.872   3.728   0.327
 9849WAT     H229790   6.984   3.822   0.399
 9850WAT      O29791   8.959   3.912   9.235
 9850WAT     H129792   8.974   3.984   9.303
 9850WAT     H229793   8.861   3.893   9.228
 9851WAT      O29794   1.633   6.683   8.553
 9851WAT     H129795   1.664   6.629   8.474
 9851WAT     H229796   1.545   6.648   8.584
 9852WAT      O29797   6.914   0.148   4.500
 9852WAT     H129798   6.944   0.199   4.580
 9852WAT     H229799   6.948   0.192   4.417
 9853WAT      O29800   0.498   6.931   7.525
 9853WAT     H129801   0.561   6.855   7.544
 9853WAT     H229802   0.488   6.987   7.607
 9854WAT      O29803   9.433   8.086   7.666
 9854WAT     H129804   9.485   8.158   7.619
 9854WAT     H229805   9.384   8.126   7.743
 9855WAT      O29806   5.845   0.264   2.324
 9855WAT     H129807   5.764   0.303   2.280
 9855WAT     H229808   5.831   0.261   2.423
 9856WAT      O29809   0.976   9.634   2.025
 9856WAT     H129810   0.899   9.572   2.013
 9856WAT     H229811   1.060   9.581   2.036
 9857WAT      O29812   7.759   5.866   0.463
 9857WAT     H129813   7.738   5.847   0.367
 9857WAT     H229814   7.857   5.855   0.478
 9858WAT      O29815   8.046   7.567   8.234
 9858WAT     H129816   7.966   7.526   8.191
 9858WAT     H229817   8.037   7.666   8.232
 9859WAT      O29818   7.129   4.685   7.173
 9859WAT     H129819   7.032   4.676   7.194
 9859WAT     H229820   7.149   4.643   7.085
 9860WAT      O29821   4.153   1.818   4.149
 9860WAT     H129822   4.101   1.887   4.200
 9860WAT     H229823   4.202   1.759   4.213
 9861WAT      O29824   8.924   8.492   8.549
 9861WAT     H129825   8.963   8.515   8.460
 9861WAT     H229826   8.839   8.543   8.562
 9862WAT      O29827   0.075   0.132   3.901
 9862WAT     H129828   0.034   0.047   3.935
 9862WAT     H229829   0.151   0.109   3.841
 9863WAT      O29830   8.565   4.858   8.916
 9863WAT     H129831   8.663   4.860   8.932
 9863WAT     H229832   8.518   4.901   8.994
 9864WAT      O29833   1.462   2.584   8.871
 9864WAT     H129834   1.446   2.492   8.906
 9864WAT     H229835   1.381   2.615   8.821
 9865WAT      O29836   1.323   7.839   1.584
 9865WAT     H129837   1.280   7.911   1.638
 9865WAT     H229838   1.419   7.831   1.610
 9866WAT      O29839   7.724   9.301   0.895
 9866WAT     H129840   7.642   9.316   0.950
 9866WAT     H229841   7.801   9.349   0.937
 9867WAT      O29842   4.802   6.911   5.877
 9867WAT     H129843   4.899   6.912   5.856
 9867WAT     H229844   4.789   6.908   5.976
 9868WAT      O29845   3.567   1.810   9.235
 9868WAT     H129846   3.494   1.746   9.211
 9868WAT     H229847   3.552   1.846   9.327
 9869WAT      O29848   2.573   3.159   3.123
 9869WAT     H129849   2.649   3.185   3.182
 9869WAT     H229850   2.509   3.101   3.174
 9870WAT      O29851   6.630   0.769   2.236
 9870WAT     H129852   6.722   0.779   2.197
 9870WAT     H229853   6.630   0.696   2.305
 9871WAT      O29854   1.142   0.082   0.278
 9871WAT     H129855   1.104  -0.005   0.309
 9871WAT     H229856   1.221   0.064   0.218
 9872WAT      O29857   3.921   5.419   2.338
 9872WAT     H129858   3.863   5.411   2.419
 9872WAT     H229859   3.878   5.481   2.272
 9873WAT      O29860   0.453   7.048   9.838
 9873WAT     H129861   0.366   7.048   9.789
 9873WAT     H229862   0.520   6.995   9.787
 9874WAT      O29863   4.728   8.417   1.762
 9874WAT     H129864   4.637   8.394   1.730
 9874WAT     H229865   4.785   8.335   1.761
 9875WAT      O29866   3.032   1.204   7.223
 9875WAT     H129867   3.075   1.277   7.276
 9875WAT     H229868   2.987   1.140   7.286
 9876WAT      O29869   3.597   6.003   7.917
 9876WAT     H129870   3.694   6.021   7.901
 9876WAT     H229871   3.546   6.016   7.833
 9877WAT      O29872   4.423   7.021   9.574
 9877WAT     H129873   4.423   6.942   9.635
 9877WAT     H229874   4.496   7.012   9.507
 9878WAT      O29875   5.616   3.999   9.497
 9878WAT     H129876   5.647   4.038   9.410
 9878WAT     H229877   5.582   4.071   9.556
 9879WAT      O29878   4.207   3.949   2.107
 9879WAT     H129879   4.174   3.996   2.025
 9879WAT     H229880   4.159   3.986   2.187
 9880WAT      O29881   1.624   8.724   8.480
 9880WAT     H129882   1.623   8.765   8.571
 9880WAT     H229883   1.719   8.715   8.449
 9881WAT      O29884   4.635   8.268   2.919
 9881WAT     H129885   4.637   8.359   2.959
 9881WAT     H229886   4.629   8.275   2.819
 9882WAT      O29887   0.117   1.368   5.399
 9882WAT     H129888   0.118   1.284   5.344
 9882WAT     H229889   0.141   1.445   5.340
 9883WAT      O29890   1.675   4.346   4.443
 9883WAT     H129891   1.774   4.357   4.432
 9883WAT     H229892   1.657   4.282   4.517
 9884WAT      O29893   0.587   3.440   1.868
 9884WAT     H129894   0.658   3.510   1.870
 9884WAT     H229895   0.533   3.450   1.784
 9885WAT      O29896   2.476   9.048   2.171
 9885WAT     H129897   2.529   9.080   2.249
 9885WAT     H229898   2.530   9.057   2.087
 9886WAT      O29899   9.436   7.443   2.982
 9886WAT     H129900   9.440   7.533   3.025
 9886WAT     H229901   9.508   7.435   2.913
 9887WAT      O29902   0.097   1.026   8.731
 9887WAT     H129903   0.055   0.943   8.695
 9887WAT     H229904   0.044   1.106   8.702
 9888WAT      O29905   8.488   4.322   2.362
 9888WAT     H129906   8.425   4.400   2.364
 9888WAT     H229907   8.530   4.315   2.272
 9889WAT      O29908   5.847   8.109   5.899
 9889WAT     H129909   5.943   8.108   5.872
 9889WAT     H229910   5.794   8.055   5.834
 9890WAT      O29911   0.791   0.664   8.763
 9890WAT     H129912   0.696   0.654   8.789
 9890WAT     H229913   0.850   0.629   8.835
 9891WAT      O29914   4.565   2.214   0.497
 9891WAT     H129915   4.501   2.287   0.471
 9891WAT     H229916   4.559   2.140   0.430
 9892WAT      O29917   8.486   3.928   0.569
 9892WAT     H129918   8.473   3.909   0.666
 9892WAT     H229919   8.489   3.842   0.518
 9893WAT      O29920   6.702   0.169   2.009
 9893WAT     H129921   6.608   0.168   1.976
 9893WAT     H229922   6.705   0.206   2.101
 9894WAT      O29923   2.503   6.286   3.891
 9894WAT     H129924   2.486   6.328   3.802
 9894WAT     H229925   2.419   6.286   3.945
 9895WAT      O29926   5.196   1.342   4.489
 9895WAT     H129927   5.102   1.327   4.520
 9895WAT     H229928   5.219   1.276   4.418
 9896WAT      O29929   7.826   4.894   1.650
 9896WAT     H129930   7.800   4.970   1.708
 9896WAT     H229931   7.840   4.927   1.556
 9897WAT      O29932   6.740   7.430   5.163
 9897WAT     H129933   6.740   7.516   5.216
 9897WAT     H229934   6.662   7.374   5.192
 9898WAT      O29935   3.891   8.374   8.615
 9898WAT     H129936   3.825   8.445   8.642
 9898WAT     H229937   3.843   8.299   8.570
 9899WAT      O29938   6.395   9.799   0.841
 9899WAT     H129939   6.455   9.720   0.854
 9899WAT     H229940   6.303   9.777   0.874
 9900WAT      O29941   8.137   0.759   9.143
 9900WAT     H129942   8.066   0.828   9.161
 9900WAT     H229943   8.096   0.668   9.147
 9901WAT      O29944   9.702   4.379   2.918
 9901WAT     H129945   9.618   4.376   2.972
 9901WAT     H229946   9.755   4.296   2.933
 9902WAT      O29947   6.366   1.795   9.871
 9902WAT     H129948   6.377   1.826   9.965
 9902WAT     H229949   6.276   1.823   9.837
 9903WAT      O29950   5.495   0.689   4.079
 9903WAT     H129951   5.529   0.673   4.172
 9903WAT     H229952   5.451   0.779   4.076
 9904WAT      O29953   8.791   5.365   8.480
 9904WAT     H129954   8.741   5.445   8.513
 9904WAT     H229955   8.889   5.388   8.475
 9905WAT      O29956   3.735   7.795   7.391
 9905WAT     H129957   3.644   7.830   7.415
 9905WAT     H229958   3.779   7.757   7.473
 9906WAT      O29959   7.176   7.175   4.092
 9906WAT     H129960   7.162   7.205   3.997
 9906WAT     H229961   7.102   7.114   4.119
 9907WAT      O29962   4.631   2.405   3.602
 9907WAT     H129963   4.534   2.404   3.623
 9907WAT     H229964   4.673   2.487   3.641
 9908WAT      O29965   6.644   5.862   9.441
 9908WAT     H129966   6.617   5.794   9.509
 9908WAT     H229967   6.562   5.899   9.396
 9909WAT      O29968   3.675   8.377   9.157
 9909WAT     H129969   3.705   8.295   9.206
 9909WAT     H229970   3.575   8.379   9.156
 9910WAT      O29971   8.806   3.199   7.257
 9910WAT     H129972   8.776   3.211   7.162
 9910WAT     H229973   8.740   3.141   7.305
 9911WAT      O29974   3.825   9.607   3.910
 9911WAT     H129975   3.906   9.622   3.967
 9911WAT     H229976   3.749   9.578   3.968
 9912WAT      O29977   6.503   3.385   6.276
 9912WAT     H129978   6.458   3.459   6.227
 9912WAT     H229979   6.558   3.331   6.212
 9913WAT      O29980   5.777   7.947   6.176
 9913WAT     H129981   5.751   8.025   6.119
 9913WAT     H229982   5.722   7.867   6.149
 9914WAT      O29983   7.023   2.021   4.849
 9914WAT     H129984   7.055   2.028   4.943
 9914WAT     H229985   7.101   2.020   4.787
 9915WAT      O29986   2.588   2.315   0.289
 9915WAT     H129987   2.504   2.276   0.252
 9915WAT     H229988   2.567   2.373   0.367
 9916WAT      O29989   9.078   4.935   1.182
 9916WAT     H129990   9.157   4.911   1.239
 9916WAT     H229991   9.075   4.874   1.103
 9917WAT      O29992   4.593   4.040   2.264
 9917WAT     H129993   4.520   3.978   2.235
 9917WAT     H229994   4.554   4.127   2.294
 9918WAT      O29995   1.507   5.912   2.675
 9918WAT     H129996   1.518   6.001   2.718
 9918WAT     H229997   1.511   5.840   2.744
 9919WAT      O29998   1.722   3.989   4.937
 9919WAT     H129999   1.751   3.987   5.033
 9919WAT     H230000   1.640   4.046   4.928
 9920WAT      O30001   7.378   1.085   6.516
 9920WAT     H130002   7.459   1.066   6.571
 9920WAT     H230003   7.308   1.128   6.573
 9921WAT      O30004   9.270   0.236   8.065
 9921WAT     H130005   9.314   0.325   8.056
 9921WAT     H230006   9.340   0.165   8.079
 9922WAT      O30007   5.182   8.607   5.696
 9922WAT     H130008   5.262   8.593   5.753
 9922WAT     H230009   5.108   8.546   5.727
 9923WAT      O30010   0.146   7.600   0.777
 9923WAT     H130011   0.217   7.664   0.804
 9923WAT     H230012   0.057   7.631   0.811
 9924WAT      O30013   3.857   6.776   3.614
 9924WAT     H130014   3.949   6.812   3.600
 9924WAT     H230015   3.802   6.794   3.533
 9925WAT      O30016   5.825   5.937   0.540
 9925WAT     H130017   5.914   5.975   0.516
 9925WAT     H230018   5.761   6.011   0.559
 9926WAT      O30019   7.162   1.160   6.652
 9926WAT     H130020   7.072   1.153   6.608
 9926WAT     H230021   7.150   1.161   6.751
 9927WAT      O30022   5.499   5.810   7.423
 9927WAT     H130023   5.416   5.787   7.371
 9927WAT     H230024   5.501   5.908   7.441
 9928WAT      O30025   3.741   9.392   3.083
 9928WAT     H130026   3.758   9.491   3.082
 9928WAT     H230027   3.646   9.375   3.057
 9929WAT      O30028   1.099   0.004   7.869
 9929WAT     H130029   1.196   0.022   7.880
 9929WAT     H230030   1.047   0.088   7.883
 9930WAT      O30031   9.891   7.523   5.996
 9930WAT     H130032   9.903   7.613   6.038
 9930WAT     H230033   9.793   7.504   5.985
 9931WAT      O30034   7.412   0.472   3.430
 9931WAT     H130035   7.475   0.438   3.500
 9931WAT     H230036   7.367   0.555   3.463
 9932WAT      O30037   9.479   4.173   5.908
 9932WAT     H130038   9.549   4.242   5.927
 9932WAT     H230039   9.481   4.150   5.811
 9933WAT      O30040   4.412   4.248   6.971
 9933WAT     H130041   4.508   4.223   6.969
 9933WAT     H230042   4.389   4.288   7.059
 9934WAT      O30043   5.009   7.695   7.049
 9934WAT     H130044   5.024   7.697   7.148
 9934WAT     H230045   5.075   7.633   7.006
 9935WAT      O30046   5.739   1.212   7.643
 9935WAT     H130047   5.795   1.136   7.674
 9935WAT     H230048   5.710   1.267   7.722
 9936WAT      O30049   3.002   3.312   9.660
 9936WAT     H130050   2.990   3.288   9.564
 9936WAT     H230051   2.913   3.333   9.701
 9937WAT      O30052   3.982   8.647   1.420
 9937WAT     H130053   4.065   8.662   1.474
 9937WAT     H230054   3.902   8.672   1.474
 9938WAT      O30055   6.548   4.995   2.594
 9938WAT     H130056   6.587   4.939   2.521
 9938WAT     H230057   6.449   4.982   2.597
 9939WAT      O30058   0.798   7.904   8.687
 9939WAT     H130059   0.760   7.994   8.662
 9939WAT     H230060   0.897   7.910   8.692
 9940WAT      O30061   4.116   8.187   8.186
 9940WAT     H130062   4.086   8.271   8.232
 9940WAT     H230063   4.112   8.111   8.250
 9941WAT      O30064   8.303   8.027   9.829
 9941WAT     H130065   8.342   8.083   9.902
 9941WAT     H230066   8.368   8.021   9.753
 9942WAT      O30067   2.965   7.410   4.311
 9942WAT     H130068   3.023   7.331   4.293
 9942WAT     H230069   2.897   7.387   4.380
 9943WAT      O30070   5.731   0.783   8.324
 9943WAT     H130071   5.736   0.727   8.406
 9943WAT     H230072   5.773   0.872   8.341
 9944WAT      O30073   1.033   6.189   5.578
 9944WAT     H130074   0.976   6.258   5.534
 9944WAT     H230075   1.068   6.225   5.665
 9945WAT      O30076   2.475   3.311   2.290
 9945WAT     H130077   2.549   3.291   2.354
 9945WAT     H230078   2.390   3.270   2.322
 9946WAT      O30079   3.839   0.450   0.929
 9946WAT     H130080   3.813   0.542   0.900
 9946WAT     H230081   3.810   0.384   0.860
 9947WAT      O30082   1.979   9.340   6.423
 9947WAT     H130083   1.910   9.356   6.494
 9947WAT     H230084   2.068   9.369   6.456
 9948WAT      O30085   0.480   7.459   3.030
 9948WAT     H130086   0.469   7.552   2.993
 9948WAT     H230087   0.535   7.405   2.966
 9949WAT      O30088   5.584   6.056   0.022
 9949WAT     H130089   5.538   5.978  -0.021
 9949WAT     H230090   5.579   6.048   0.121
 9950WAT      O30091   0.946   4.665   6.056
 9950WAT     H130092   0.918   4.724   6.132
 9950WAT     H230093   0.976   4.722   5.980
 9951WAT      O30094   8.980   8.694   4.832
 9951WAT     H130095   9.030   8.777   4.860
 9951WAT     H230096   9.036   8.614   4.851
 9952WAT      O30097   4.373   8.486   6.754
 9952WAT     H130098   4.283   8.452   6.781
 9952WAT     H230099   4.363   8.558   6.686
 9953WAT      O30100   4.834   2.950   4.506
 9953WAT     H130101   4.807   3.017   4.437
 9953WAT     H230102   4.876   2.871   4.461
 9954WAT      O30103   5.840   8.455   6.878
 9954WAT     H130104   5.879   8.429   6.966
 9954WAT     H230105   5.913   8.469   6.811
 9955WAT      O30106   1.997   1.588   7.867
 9955WAT     H130107   1.988   1.592   7.767
 9955WAT     H230108   1.995   1.681   7.904
 9956WAT      O30109   6.831   6.309   5.128
 9956WAT     H130110   6.845   6.397   5.083
 9956WAT     H230111   6.917   6.258   5.129
 9957WAT      O30112   8.028   3.446   9.683
 9957WAT     H130113   8.059   3.506   9.609
 9957WAT     H230114   8.101   3.437   9.751
 9958WAT      O30115   7.483   5.005   9.581
 9958WAT     H130116   7.415   5.078   9.575
 9958WAT     H230117   7.439   4.917   9.562
 9959WAT      O30118   5.729   4.733   4.380
 9959WAT     H130119   5.790   4.744   4.459
 9959WAT     H230120   5.782   4.701   4.301
 9960WAT      O30121   2.680   1.629   0.162
 9960WAT     H130122   2.602   1.585   0.207
 9960WAT     H230123   2.759   1.568   0.165
 9961WAT      O30124   5.182   0.085   7.131
 9961WAT     H130125   5.279   0.105   7.124
 9961WAT     H230126   5.169  -0.010   7.160
 9962WAT      O30127   8.081   3.349   7.379
 9962WAT     H130128   8.156   3.317   7.437
 9962WAT     H230129   7.994   3.322   7.420
 9963WAT      O30130   2.907   9.540   1.475
 9963WAT     H130131   3.007   9.536   1.465
 9963WAT     H230132   2.872   9.448   1.491
 9964WAT      O30133   0.334   0.599   6.282
 9964WAT     H130134   0.394   0.637   6.351
 9964WAT     H230135   0.332   0.499   6.291
 9965WAT      O30136   4.593   8.235   2.637
 9965WAT     H130137   4.532   8.247   2.560
 9965WAT     H230138   4.609   8.137   2.653
 9966WAT      O30139   2.136   7.433   4.242
 9966WAT     H130140   2.203   7.505   4.260
 9966WAT     H230141   2.112   7.433   4.145
 9967WAT      O30142   1.267   7.241   8.209
 9967WAT     H130143   1.306   7.184   8.137
 9967WAT     H230144   1.214   7.316   8.168
 9968WAT      O30145   7.077   2.424   3.553
 9968WAT     H130146   6.992   2.453   3.598
 9968WAT     H230147   7.118   2.349   3.605
 9969WAT      O30148   2.213   8.159   0.134
 9969WAT     H130149   2.235   8.181   0.039
 9969WAT     H230150   2.136   8.215   0.165
 9970WAT      O30151   1.697   6.347   6.729
 9970WAT     H130152   1.637   6.277   6.690
 9970WAT     H230153   1.676   6.436   6.688
 9971WAT      O30154   8.203   1.040   7.155
 9971WAT     H130155   8.224   1.118   7.096
 9971WAT     H230156   8.120   0.995   7.123
 9972WAT      O30157   5.842   5.560   1.149
 9972WAT     H130158   5.791   5.475   1.139
 9972WAT     H230159   5.939   5.544   1.129
 9973WAT      O30160   9.879   4.335   7.107
 9973WAT     H130161   9.917   4.415   7.153
 9973WAT     H230162   9.824   4.364   7.029
 9974WAT      O30163   1.245   7.044   6.338
 9974WAT     H130164   1.235   7.000   6.428
 9974WAT     H230165   1.173   7.113   6.327
 9975WAT      O30166   9.332   2.296   0.451
 9975WAT     H130167   9.391   2.371   0.422
 9975WAT     H230168   9.324   2.298   0.551
 9976WAT      O30169   9.033   3.333   8.003
 9976WAT     H130170   8.936   3.333   8.028
 9976WAT     H230171   9.044   3.372   7.912
 9977WAT      O30172   3.493   1.068   9.010
 9977WAT     H130173   3.587   1.037   8.995
 9977WAT     H230174   3.489   1.119   9.096
 9978WAT      O30175   2.362   2.196   0.175
 9978WAT     H130176   2.275   2.245   0.163
 9978WAT     H230177   2.352   2.127   0.247
 9979WAT      O30178   9.392   2.488   2.135
 9979WAT     H130179   9.381   2.414   2.068
 9979WAT     H230180   9.433   2.567   2.090
 9980WAT      O30181   3.420   1.911   7.361
 9980WAT     H130182   3.370   1.826   7.379
 9980WAT     H230183   3.379   1.958   7.283
 9981WAT      O30184   1.974   4.705   1.465
 9981WAT     H130185   1.913   4.766   1.413
 9981WAT     H230186   2.022   4.758   1.534
 9982WAT      O30187   7.055   9.411   5.718
 9982WAT     H130188   7.016   9.441   5.805
 9982WAT     H230189   7.095   9.320   5.729
 9983WAT      O30190   2.304   4.761   8.182
 9983WAT     H130191   2.337   4.828   8.116
 9983WAT     H230192   2.259   4.808   8.258
 9984WAT      O30193   8.613   4.282   5.224
 9984WAT     H130194   8.539   4.231   5.267
 9984WAT     H230195   8.605   4.276   5.124
 9985WAT      O30196   5.188   3.838   1.601
 9985WAT     H130197   5.229   3.904   1.664
 9985WAT     H230198   5.185   3.748   1.645
 9986WAT      O30199   5.129   3.518   3.539
 9986WAT     H130200   5.030   3.535   3.538
 9986WAT     H230201   5.176   3.598   3.575
 9987WAT      O30202   2.395   9.573   2.340
 9987WAT     H130203   2.368   9.669   2.352
 9987WAT     H230204   2.458   9.546   2.412
 9988WAT      O30205   7.551   0.182   8.248
 9988WAT     H130206   7.639   0.168   8.294
 9988WAT     H230207   7.566   0.182   8.149
 9989WAT      O30208   8.231   1.259   9.241
 9989WAT     H130209   8.284   1.335   9.203
 9989WAT     H230210   8.163   1.230   9.174
 9990WAT      O30211   3.693   8.231   4.418
 9990WAT     H130212   3.778   8.234   4.472
 9990WAT     H230213   3.695   8.150   4.360
 9991WAT      O30214   6.691   8.733   8.641
 9991WAT     H130215   6.752   8.764   8.714
 9991WAT     H230216   6.713   8.638   8.618
 9992WAT      O30217   7.736   8.083   2.628
 9992WAT     H130218   7.659   8.028   2.596
 9992WAT     H230219   7.781   8.036   2.704
 9993WAT      O30220   1.178   8.730   1.759
 9993WAT     H130221   1.169   8.692   1.667
 9993WAT     H230222   1.211   8.824   1.754
 9994WAT      O30223   5.316   0.124   1.059
 9994WAT     H130224   5.327   0.025   1.048
 9994WAT     H230225   5.339   0.149   1.153
 9995WAT      O30226   6.047   0.310   6.714
 9995WAT     H130227   5.979   0.307   6.640
 9995WAT     H230228   6.010   0.264   6.795
 9996WAT      O30229   5.836   6.492   6.552
 9996WAT     H130230   5.850   6.506   6.454
 9996WAT     H230231   5.814   6.579   6.596
 9997WAT      O30232   0.036   2.919   3.399
 9997WAT     H130233   0.072   2.882   3.484
 9997WAT     H230234   0.101   2.986   3.362
 9998WAT      O30235   5.406   2.011   5.788
 9998WAT     H130236   5.357   1.943   5.733
 9998WAT     H230237   5.354   2.033   5.869
 9999WAT      O30238   8.848   0.695   8.232
 9999WAT     H130239   8.844   0.624   8.161
 9999WAT     H230240   8.941   0.731   8.238
10000WAT      O30241   9.428   8.394   3.475
10000WAT     H130242   9.355   8.431   3.533
10000WAT     H230243   9.389   8.336   3.405
10001WAT      O30244   6.980   7.535   9.190
10001WAT     H130245   7.002   7.512   9.095
10001WAT     H230246   7.038   7.611   9.219
10002WAT      O30247   7.550   3.324   2.168
10002WAT     H130248   7.469   3.273   2.139
10002WAT     H230249   7.622   3.259   2.193
10003WAT      O30250   3.009   1.527   8.844
10003WAT     H130251   3.057   1.445   8.873
10003WAT     H230252   2.975   1.514   8.751
10004WAT      O30253   7.142   6.424   9.014
10004WAT     H130254   7.201   6.346   9.037
10004WAT     H230255   7.198   6.505   8.999
10005WAT      O30256   0.071   5.252   3.248
10005WAT     H130257   0.164   5.237   3.213
10005WAT     H230258   0.018   5.168   3.236
10006WAT      O30259   9.130   8.451   3.638
10006WAT     H130260   9.128   8.393   3.719
10006WAT     H230261   9.145   8.546   3.665
10007WAT      O30262   5.060   0.189   1.589
10007WAT     H130263   5.063   0.170   1.688
10007WAT     H230264   5.053   0.288   1.575
10008WAT      O30265   4.010   6.028   1.732
10008WAT     H130266   4.001   6.076   1.645
10008WAT     H230267   3.925   5.978   1.752
10009WAT      O30268   4.347   6.119   2.539
10009WAT     H130269   4.320   6.212   2.511
10009WAT     H230270   4.347   6.059   2.459
10010WAT      O30271   4.750   9.291   4.932
10010WAT     H130272   4.776   9.205   4.887
10010WAT     H230273   4.771   9.285   5.030
10011WAT      O30274   8.674   3.900   4.395
10011WAT     H130275   8.742   3.967   4.425
10011WAT     H230276   8.609   3.883   4.469
10012WAT      O30277   0.943   8.096   1.590
10012WAT     H130278   0.947   8.074   1.492
10012WAT     H230279   0.876   8.037   1.634
10013WAT      O30280   9.239   1.708   0.215
10013WAT     H130281   9.248   1.626   0.273
10013WAT     H230282   9.219   1.680   0.121
10014WAT      O30283   8.306   3.304   9.712
10014WAT     H130284   8.404   3.323   9.701
10014WAT     H230285   8.294   3.217   9.759
10015WAT      O30286   6.425   1.673   8.962
10015WAT     H130287   6.336   1.712   8.986
10015WAT     H230288   6.422   1.574   8.973
10016WAT      O30289   4.559   8.693   6.398
10016WAT     H130290   4.478   8.637   6.416
10016WAT     H230291   4.573   8.756   6.475
10017WAT      O30292   6.173   5.533   8.553
10017WAT     H130293   6.103   5.595   8.518
10017WAT     H230294   6.168   5.446   8.504
10018WAT      O30295   4.342   2.606   3.422
10018WAT     H130296   4.285   2.670   3.474
10018WAT     H230297   4.286   2.561   3.353
10019WAT      O30298   9.225   6.333   3.298
10019WAT     H130299   9.312   6.383   3.290
10019WAT     H230300   9.202   6.324   3.395
10020WAT      O30301   6.758   5.033   3.610
10020WAT     H130302   6.737   5.040   3.512
10020WAT     H230303   6.686   5.079   3.663
10021WAT      O30304   4.866   3.382   1.381
10021WAT     H130305   4.821   3.394   1.292
10021WAT     H230306   4.832   3.451   1.445
10022WAT      O30307   1.657   6.187   2.263
10022WAT     H130308   1.669   6.234   2.176
10022WAT     H230309   1.669   6.251   2.338
10023WAT      O30310   5.804   7.957   9.199
10023WAT     H130311   5.787   7.890   9.272
10023WAT     H230312   5.883   8.014   9.223
10024WAT      O30313   2.213   4.332   9.791
10024WAT     H130314   2.239   4.276   9.712
10024WAT     H230315   2.244   4.288   9.875
10025WAT      O30316   6.742   5.384   4.186
10025WAT     H130317   6.731   5.321   4.108
10025WAT     H230318   6.816   5.449   4.166
10026WAT      O30319   4.042   3.161   1.064
10026WAT     H130320   4.008   3.255   1.056
10026WAT     H230321   4.141   3.161   1.053
10027WAT      O30322   7.331   3.633   6.896
10027WAT     H130323   7.361   3.670   6.984
10027WAT     H230324   7.308   3.536   6.906
10028WAT      O30325   8.120   7.178   6.715
10028WAT     H130326   8.188   7.127   6.767
10028WAT     H230327   8.079   7.119   6.646
10029WAT      O30328   4.625   0.159   8.235
10029WAT     H130329   4.596   0.243   8.188
10029WAT     H230330   4.611   0.170   8.334
10030WAT      O30331   2.764   6.577   2.592
10030WAT     H130332   2.787   6.640   2.666
10030WAT     H230333   2.733   6.628   2.512
10031WAT      O30334   5.591   2.854   5.789
10031WAT     H130335   5.502   2.819   5.759
10031WAT     H230336   5.661   2.827   5.724
10032WAT      O30337   8.682   0.536   0.630
10032WAT     H130338   8.593   0.493   0.613
10032WAT     H230339   8.669   0.633   0.649
10033WAT      O30340   3.811   6.294   1.997
10033WAT     H130341   3.778   6.356   1.926
10033WAT     H230342   3.843   6.347   2.076
10034WAT      O30343   4.576   9.129   6.764
10034WAT     H130344   4.575   9.118   6.664
10034WAT     H230345   4.641   9.064   6.804
10035WAT      O30346   4.407   4.207   6.491
10035WAT     H130347   4.503   4.179   6.489
10035WAT     H230348   4.370   4.196   6.583
10036WAT      O30349   6.128   1.780   7.221
10036WAT     H130350   6.126   1.878   7.241
10036WAT     H230351   6.111   1.729   7.305
10037WAT      O30352   3.429   5.886   8.716
10037WAT     H130353   3.473   5.972   8.740
10037WAT     H230354   3.497   5.812   8.717
10038WAT      O30355   5.165   2.064   0.442
10038WAT     H130356   5.151   2.102   0.534
10038WAT     H230357   5.169   1.964   0.448
10039WAT      O30358   3.023   2.036   6.834
10039WAT     H130359   3.010   2.119   6.889
10039WAT     H230360   3.054   1.961   6.893
10040WAT      O30361   0.168   2.826   0.578
10040WAT     H130362   0.127   2.902   0.628
10040WAT     H230363   0.267   2.829   0.586
10041WAT      O30364   5.909   2.120   0.099
10041WAT     H130365   5.879   2.164   0.014
10041WAT     H230366   5.834   2.123   0.165
10042WAT      O30367   4.978   1.948   8.318
10042WAT     H130368   4.975   2.033   8.267
10042WAT     H230369   4.892   1.899   8.308
10043WAT      O30370   4.785   9.624   1.628
10043WAT     H130371   4.771   9.628   1.529
10043WAT     H230372   4.805   9.716   1.662
10044WAT      O30373   6.286   8.161   7.029
10044WAT     H130374   6.309   8.246   6.981
10044WAT     H230375   6.263   8.181   7.124
10045WAT      O30376   1.966   3.396   8.047
10045WAT     H130377   2.022   3.415   8.128
10045WAT     H230378   1.898   3.326   8.070
10046WAT      O30379   6.128   2.671   6.628
10046WAT     H130380   6.095   2.765   6.643
10046WAT     H230381   6.069   2.607   6.676
10047WAT      O30382   7.203   6.372   3.244
10047WAT     H130383   7.264   6.383   3.165
10047WAT     H230384   7.202   6.276   3.272
10048WAT      O30385   1.205   8.822   5.984
10048WAT     H130386   1.248   8.895   5.930
10048WAT     H230387   1.238   8.826   6.078
10049WAT      O30388   2.130   3.200   0.316
10049WAT     H130389   2.123   3.224   0.219
10049WAT     H230390   2.128   3.284   0.371
10050WAT      O30391   8.285   9.156   9.789
10050WAT     H130392   8.378   9.173   9.823
10050WAT     H230393   8.284   9.071   9.738
10051WAT      O30394   3.208   8.457   3.153
10051WAT     H130395   3.202   8.473   3.252
10051WAT     H230396   3.143   8.517   3.106
10052WAT      O30397   7.290   5.215   4.370
10052WAT     H130398   7.342   5.140   4.411
10052WAT     H230399   7.328   5.236   4.280
10053WAT      O30400   6.898   5.717   4.477
10053WAT     H130401   6.965   5.643   4.468
10053WAT     H230402   6.945   5.803   4.498
10054WAT      O30403   2.304   4.300   3.100
10054WAT     H130404   2.283   4.395   3.079
10054WAT     H230405   2.233   4.241   3.063
10055WAT      O30406   8.088   5.222   8.300
10055WAT     H130407   8.182   5.236   8.268
10055WAT     H230408   8.064   5.295   8.364
10056WAT      O30409   6.073   2.946   9.192
10056WAT     H130410   5.984   2.904   9.210
10056WAT     H230411   6.122   2.894   9.122
10057WAT      O30412   8.389   5.259   1.661
10057WAT     H130413   8.443   5.325   1.608
10057WAT     H230414   8.402   5.167   1.624
10058WAT      O30415   2.196   4.260   0.179
10058WAT     H130416   2.271   4.283   0.242
10058WAT     H230417   2.153   4.175   0.209
10059WAT      O30418   1.203   1.755   5.272
10059WAT     H130419   1.128   1.729   5.334
10059WAT     H230420   1.165   1.798   5.190
10060WAT      O30421   0.449   9.339   9.106
10060WAT     H130422   0.535   9.287   9.108
10060WAT     H230423   0.373   9.278   9.130
10061WAT      O30424   2.381   3.714   5.254
10061WAT     H130425   2.311   3.672   5.196
10061WAT     H230426   2.466   3.661   5.249
10062WAT      O30427   2.440   6.810   3.892
10062WAT     H130428   2.359   6.754   3.910
10062WAT     H230429   2.415   6.907   3.898
10063WAT      O30430   6.674   2.420   7.881
10063WAT     H130431   6.652   2.387   7.973
10063WAT     H230432   6.592   2.416   7.824
10064WAT      O30433   1.212   7.312   1.996
10064WAT     H130434   1.284   7.381   1.988
10064WAT     H230435   1.123   7.354   1.978
10065WAT      O30436   2.520   6.242   5.103
10065WAT     H130437   2.448   6.209   5.043
10065WAT     H230438   2.601   6.264   5.049
10066WAT      O30439   9.528   1.771   6.014
10066WAT     H130440   9.604   1.741   6.072
10066WAT     H230441   9.563   1.835   5.945
10067WAT      O30442   4.469   4.684   8.021
10067WAT     H130443   4.466   4.611   8.089
10067WAT     H230444   4.404   4.665   7.947
10068WAT      O30445   1.086   6.364   3.997
10068WAT     H130446   1.085   6.421   4.080
10068WAT     H230447   0.993   6.332   3.978
10069WAT      O30448   3.108   5.601   0.704
10069WAT     H130449   3.048   5.527   0.674
10069WAT     H230450   3.054   5.677   0.738
10070WAT      O30451   3.819   0.255   2.959
10070WAT     H130452   3.766   0.224   2.881
10070WAT     H230453   3.782   0.215   3.043
10071WAT      O30454   9.185   0.828   4.790
10071WAT     H130455   9.239   0.909   4.813
10071WAT     H230456   9.137   0.795   4.872
10072WAT      O30457   0.779   1.225   6.263
10072WAT     H130458   0.822   1.260   6.179
10072WAT     H230459   0.713   1.155   6.240
10073WAT      O30460   9.049   5.241   0.161
10073WAT     H130461   9.130   5.232   0.218
10073WAT     H230462   8.968   5.246   0.218
10074WAT      O30463   5.239   9.116   0.141
10074WAT     H130464   5.172   9.122   0.067
10074WAT     H230465   5.190   9.115   0.229
10075WAT      O30466   4.605   9.137   8.416
10075WAT     H130467   4.568   9.085   8.493
10075WAT     H230468   4.695   9.101   8.392
10076WAT      O30469   0.911   0.381   7.206
10076WAT     H130470   0.936   0.395   7.110
10076WAT     H230471   0.960   0.447   7.264
10077WAT      O30472   0.843   4.244   8.332
10077WAT     H130473   0.903   4.242   8.411
10077WAT     H230474   0.748   4.256   8.362
10078WAT      O30475   7.507   2.658   2.837
10078WAT     H130476   7.484   2.725   2.908
10078WAT     H230477   7.536   2.706   2.754
10079WAT      O30478   4.551   9.110   6.487
10079WAT     H130479   4.625   9.077   6.430
10079WAT     H230480   4.476   9.142   6.430
10080WAT      O30481   8.465   5.749   9.084
10080WAT     H130482   8.521   5.812   9.137
10080WAT     H230483   8.508   5.732   8.996
10081WAT      O30484   0.044   2.363   5.657
10081WAT     H130485   0.072   2.286   5.714
10081WAT     H230486   0.117   2.431   5.655
10082WAT      O30487   6.482   2.807   4.780
10082WAT     H130488   6.480   2.844   4.873
10082WAT     H230489   6.575   2.783   4.755
10083WAT      O30490   5.964   0.755   9.188
10083WAT     H130491   5.883   0.758   9.129
10083WAT     H230492   6.040   0.716   9.136
10084WAT      O30493   8.913   7.266   0.717
10084WAT     H130494   8.955   7.308   0.797
10084WAT     H230495   8.879   7.338   0.656
10085WAT      O30496   7.695   3.764   2.090
10085WAT     H130497   7.769   3.698   2.102
10085WAT     H230498   7.725   3.837   2.029
10086WAT      O30499   4.453   7.244   9.195
10086WAT     H130500   4.532   7.185   9.183
10086WAT     H230501   4.467   7.303   9.275
10087WAT      O30502   9.854   7.313   0.014
10087WAT     H130503   9.888   7.221   0.034
10087WAT     H230504   9.757   7.308  -0.009
10088WAT      O30505   0.161   6.163   3.273
10088WAT     H130506   0.092   6.131   3.337
10088WAT     H230507   0.222   6.087   3.249
10089WAT      O30508   5.401   6.125   1.665
10089WAT     H130509   5.495   6.129   1.631
10089WAT     H230510   5.360   6.216   1.661
10090WAT      O30511   1.287   5.202   2.012
10090WAT     H130512   1.333   5.227   2.097
10090WAT     H230513   1.230   5.278   1.982
10091WAT      O30514   9.319   3.524   5.134
10091WAT     H130515   9.262   3.601   5.163
10091WAT     H230516   9.310   3.511   5.035
10092WAT      O30517   7.708   3.673   6.060
10092WAT     H130518   7.741   3.716   6.144
10092WAT     H230519   7.779   3.678   5.990
10093WAT      O30520   5.373   5.264   0.979
10093WAT     H130521   5.304   5.336   0.981
10093WAT     H230522   5.385   5.232   0.885
10094WAT      O30523   4.040   8.884   0.506
10094WAT     H130524   4.006   8.930   0.424
10094WAT     H230525   4.095   8.948   0.560
10095WAT      O30526   2.137   5.360   0.973
10095WAT     H130527   2.049   5.353   1.022
10095WAT     H230528   2.170   5.268   0.952
10096WAT      O30529   0.123   6.750   7.919
10096WAT     H130530   0.133   6.766   8.017
10096WAT     H230531   0.179   6.671   7.893
10097WAT      O30532   9.459   7.091   0.703
10097WAT     H130533   9.395   7.093   0.780
10097WAT     H230534   9.487   7.184   0.680
10098WAT      O30535   0.515   6.398   7.823
10098WAT     H130536   0.514   6.414   7.725
10098WAT     H230537   0.600   6.432   7.862
10099WAT      O30538   3.142   8.361   6.096
10099WAT     H130539   3.241   8.347   6.102
10099WAT     H230540   3.101   8.346   6.186
10100WAT      O30541   0.612   2.238   6.852
10100WAT     H130542   0.583   2.219   6.946
10100WAT     H230543   0.553   2.190   6.788
10101WAT      O30544   7.354   1.352   1.131
10101WAT     H130545   7.381   1.383   1.223
10101WAT     H230546   7.430   1.303   1.089
10102WAT      O30547   9.557   1.354   4.825
10102WAT     H130548   9.513   1.385   4.909
10102WAT     H230549   9.656   1.358   4.836
10103WAT      O30550   3.861   7.584   9.528
10103WAT     H130551   3.933   7.603   9.461
10103WAT     H230552   3.854   7.485   9.542
10104WAT      O30553   6.938   8.128   7.563
10104WAT     H130554   6.986   8.088   7.485
10104WAT     H230555   6.968   8.083   7.648
10105WAT      O30556   4.180   5.604   9.452
10105WAT     H130557   4.125   5.687   9.441
10105WAT     H230558   4.277   5.629   9.447
10106WAT      O30559   6.483   2.822   3.526
10106WAT     H130560   6.483   2.838   3.427
10106WAT     H230561   6.514   2.729   3.544
10107WAT      O30562   0.373   6.442   3.893
10107WAT     H130563   0.385   6.530   3.847
10107WAT     H230564   0.459   6.416   3.938
10108WAT      O30565   0.904   1.989   1.540
10108WAT     H130566   0.969   2.054   1.502
10108WAT     H230567   0.818   1.994   1.489
10109WAT      O30568   7.656   0.496   7.345
10109WAT     H130569   7.703   0.524   7.262
10109WAT     H230570   7.557   0.502   7.330
10110WAT      O30571   7.478   6.800   1.283
10110WAT     H130572   7.425   6.715   1.282
10110WAT     H230573   7.500   6.825   1.378
10111WAT      O30574   5.654   3.903   0.020
10111WAT     H130575   5.599   3.829  -0.018
10111WAT     H230576   5.694   3.873   0.107
10112WAT      O30577   4.511   9.691   4.747
10112WAT     H130578   4.508   9.594   4.772
10112WAT     H230579   4.419   9.730   4.750
10113WAT      O30580   9.257   1.163   8.336
10113WAT     H130581   9.189   1.138   8.406
10113WAT     H230582   9.211   1.179   8.249
10114WAT      O30583   5.535   4.600   5.961
10114WAT     H130584   5.626   4.617   5.997
10114WAT     H230585   5.541   4.535   5.885
10115WAT      O30586   8.799   4.914   9.827
10115WAT     H130587   8.706   4.906   9.863
10115WAT     H230588   8.863   4.928   9.902
10116WAT      O30589   5.382   9.316   8.724
10116WAT     H130590   5.390   9.385   8.796
10116WAT     H230591   5.465   9.260   8.723
10117WAT      O30592   8.863   5.667   3.048
10117WAT     H130593   8.834   5.708   3.134
10117WAT     H230594   8.828   5.573   3.043
10118WAT      O30595   2.408   5.782   3.083
10118WAT     H130596   2.483   5.801   3.019
10118WAT     H230597   2.325   5.828   3.052
10119WAT      O30598   7.536   4.874   2.565
10119WAT     H130599   7.627   4.833   2.564
10119WAT     H230600   7.482   4.839   2.489
10120WAT      O30601   4.586   6.139   1.169
10120WAT     H130602   4.491   6.111   1.151
10120WAT     H230603   4.636   6.143   1.083
10121WAT      O30604   4.434   7.052   1.908
10121WAT     H130605   4.437   7.141   1.953
10121WAT     H230606   4.526   7.027   1.877
10122WAT      O30607   6.498   1.278   3.670
10122WAT     H130608   6.430   1.238   3.610
10122WAT     H230609   6.456   1.304   3.757
10123WAT      O30610   2.220   5.590   6.359
10123WAT     H130611   2.122   5.603   6.346
10123WAT     H230612   2.258   5.669   6.407
10124WAT      O30613   8.882   1.631   8.777
10124WAT     H130614   8.932   1.640   8.692
10124WAT     H230615   8.933   1.574   8.841
10125WAT      O30616   0.308   6.143   5.650
10125WAT     H130617   0.348   6.053   5.629
10125WAT     H230618   0.353   6.213   5.594
10126WAT      O30619   2.920   3.477   0.548
10126WAT     H130620   2.829   3.459   0.585
10126WAT     H230621   2.924   3.446   0.453
10127WAT      O30622   6.915   6.827   8.263
10127WAT     H130623   6.884   6.743   8.217
10127WAT     H230624   6.917   6.811   8.362
10128WAT      O30625   9.215   9.276   7.427
10128WAT     H130626   9.266   9.199   7.465
10128WAT     H230627   9.222   9.275   7.327
10129WAT      O30628   8.113   0.291   8.227
10129WAT     H130629   8.086   0.197   8.206
10129WAT     H230630   8.037   0.353   8.208
10130WAT      O30631   8.055   7.112   5.553
10130WAT     H130632   8.042   7.178   5.628
10130WAT     H230633   8.152   7.097   5.538
10131WAT      O30634   5.395   5.720   4.649
10131WAT     H130635   5.446   5.758   4.726
10131WAT     H230636   5.299   5.743   4.658
10132WAT      O30637   6.571   3.535   7.744
10132WAT     H130638   6.474   3.560   7.746
10132WAT     H230639   6.626   3.616   7.724
10133WAT      O30640   6.718   8.297   5.628
10133WAT     H130641   6.620   8.278   5.627
10133WAT     H230642   6.732   8.396   5.621
10134WAT      O30643   4.085   9.315   2.839
10134WAT     H130644   4.143   9.245   2.881
10134WAT     H230645   4.143   9.379   2.788
10135WAT      O30646   7.272   3.257   4.862
10135WAT     H130647   7.241   3.345   4.898
10135WAT     H230648   7.231   3.183   4.914
10136WAT      O30649   9.551   2.004   9.239
10136WAT     H130650   9.536   1.908   9.214
10136WAT     H230651   9.573   2.009   9.336
10137WAT      O30652   7.908   8.375   3.985
10137WAT     H130653   7.915   8.389   4.083
10137WAT     H230654   7.950   8.288   3.959
10138WAT      O30655   1.839   8.306   5.180
10138WAT     H130656   1.895   8.225   5.194
10138WAT     H230657   1.864   8.376   5.247
10139WAT      O30658   8.642   2.020   6.467
10139WAT     H130659   8.623   1.954   6.539
10139WAT     H230660   8.595   1.992   6.383
10140WAT      O30661   4.064   2.312   3.857
10140WAT     H130662   3.989   2.318   3.923
10140WAT     H230663   4.114   2.399   3.856
10141WAT      O30664   6.682   6.815   6.167
10141WAT     H130665   6.713   6.763   6.088
10141WAT     H230666   6.650   6.752   6.238
10142WAT      O30667   7.321   4.027   1.102
10142WAT     H130668   7.341   3.930   1.105
10142WAT     H230669   7.365   4.069   1.022
10143WAT      O30670   0.243   1.106   7.745
10143WAT     H130671   0.302   1.063   7.677
10143WAT     H230672   0.212   1.195   7.712
10144WAT      O30673   5.663   8.646   2.402
10144WAT     H130674   5.688   8.577   2.470
10144WAT     H230675   5.744   8.696   2.372
10145WAT      O30676   1.979   2.188   0.375
10145WAT     H130677   1.909   2.134   0.421
10145WAT     H230678   2.001   2.145   0.287
10146WAT      O30679   2.936   3.832   5.444
10146WAT     H130680   2.916   3.868   5.352
10146WAT     H230681   3.009   3.886   5.486
10147WAT      O30682   2.568   3.155   3.651
10147WAT     H130683   2.622   3.232   3.616
10147WAT     H230684   2.514   3.185   3.729
10148WAT      O30685   0.973   1.118   1.063
10148WAT     H130686   1.057   1.093   1.111
10148WAT     H230687   0.990   1.196   1.004
10149WAT      O30688   8.531   2.502   6.230
10149WAT     H130689   8.559   2.582   6.283
10149WAT     H230690   8.503   2.429   6.293
10150WAT      O30691   1.174   1.807   1.819
10150WAT     H130692   1.120   1.762   1.891
10150WAT     H230693   1.224   1.884   1.858
10151WAT      O30694   0.827   6.315   5.810
10151WAT     H130695   0.817   6.329   5.712
10151WAT     H230696   0.828   6.217   5.830
10152WAT      O30697   7.850   0.217   3.377
10152WAT     H130698   7.766   0.206   3.324
10152WAT     H230699   7.894   0.303   3.352
10153WAT      O30700   8.741   8.117   3.738
10153WAT     H130701   8.801   8.078   3.668
10153WAT     H230702   8.777   8.097   3.829
10154WAT      O30703   9.565   0.251   6.763
10154WAT     H130704   9.539   0.342   6.797
10154WAT     H230705   9.515   0.181   6.813
10155WAT      O30706   3.990   1.932   4.344
10155WAT     H130707   3.961   2.011   4.289
10155WAT     H230708   3.919   1.861   4.338
10156WAT      O30709   2.716   2.437   1.064
10156WAT     H130710   2.618   2.421   1.060
10156WAT     H230711   2.765   2.357   1.028
10157WAT      O30712   7.584   5.559   4.962
10157WAT     H130713   7.660   5.537   5.022
10157WAT     H230714   7.553   5.652   4.980
10158WAT      O30715   7.391   3.661   9.851
10158WAT     H130716   7.395   3.758   9.825
10158WAT     H230717   7.353   3.608   9.775
10159WAT      O30718   5.442   1.474   7.126
10159WAT     H130719   5.343   1.457   7.132
10159WAT     H230720   5.459   1.545   7.057
10160WAT      O30721   1.422   5.050   0.190
10160WAT     H130722   1.519   5.045   0.163
10160WAT     H230723   1.403   4.982   0.260
10161WAT      O30724   0.501   1.938   4.420
10161WAT     H130725   0.601   1.939   4.414
10161WAT     H230726   0.464   1.885   4.344
10162WAT      O30727   0.932   9.146   2.174
10162WAT     H130728   0.973   9.232   2.206
10162WAT     H230729   0.844   9.132   2.220
10163WAT      O30730   4.596   2.039   8.445
10163WAT     H130731   4.606   2.136   8.467
10163WAT     H230732   4.505   2.009   8.474
10164WAT      O30733   4.097   6.699   6.599
10164WAT     H130734   4.151   6.690   6.516
10164WAT     H230735   4.158   6.709   6.678
10165WAT      O30736   7.102   2.312   3.297
10165WAT     H130737   7.121   2.381   3.227
10165WAT     H230738   7.077   2.358   3.382
10166WAT      O30739   7.333   2.755   7.698
10166WAT     H130740   7.344   2.754   7.797
10166WAT     H230741   7.238   2.779   7.675
10167WAT      O30742   0.916   3.948   4.273
10167WAT     H130743   0.823   3.962   4.238
10167WAT     H230744   0.980   4.005   4.222
10168WAT      O30745   6.748   5.171   5.583
10168WAT     H130746   6.704   5.260   5.595
10168WAT     H230747   6.816   5.177   5.510
10169WAT      O30748   7.666   9.475   3.898
10169WAT     H130749   7.705   9.562   3.929
10169WAT     H230750   7.580   9.459   3.947
10170WAT      O30751   6.840   8.119   9.765
10170WAT     H130752   6.900   8.198   9.776
10170WAT     H230753   6.765   8.125   9.832
10171WAT      O30754   8.010   3.445   4.890
10171WAT     H130755   8.014   3.346   4.896
10171WAT     H230756   8.068   3.485   4.961
10172WAT      O30757   6.610   2.533   6.526
10172WAT     H130758   6.511   2.546   6.525
10172WAT     H230759   6.637   2.492   6.614
10173WAT      O30760   9.548   6.253   0.397
10173WAT     H130761   9.645   6.235   0.413
10173WAT     H230762   9.533   6.352   0.394
10174WAT      O30763   4.199   4.688   3.063
10174WAT     H130764   4.156   4.778   3.057
10174WAT     H230765   4.231   4.660   2.973
10175WAT      O30766   3.337   9.330   0.467
10175WAT     H130767   3.368   9.304   0.375
10175WAT     H230768   3.376   9.419   0.491
10176WAT      O30769   6.858   7.603   1.090
10176WAT     H130770   6.943   7.550   1.087
10176WAT     H230771   6.794   7.566   1.024
10177WAT      O30772   2.995   1.114   4.340
10177WAT     H130773   3.061   1.144   4.408
10177WAT     H230774   3.006   1.015   4.325
10178WAT      O30775   4.259   4.240   2.408
10178WAT     H130776   4.196   4.162   2.400
10178WAT     H230777   4.246   4.285   2.496
10179WAT      O30778   7.179   1.935   4.115
10179WAT     H130779   7.174   1.879   4.032
10179WAT     H230780   7.220   2.023   4.094
10180WAT      O30781   6.026   5.422   9.165
10180WAT     H130782   6.081   5.474   9.099
10180WAT     H230783   6.078   5.410   9.249
10181WAT      O30784   0.763   9.470   2.058
10181WAT     H130785   0.697   9.394   2.056
10181WAT     H230786   0.789   9.488   2.153
10182WAT      O30787   8.468   3.744   5.640
10182WAT     H130788   8.559   3.758   5.680
10182WAT     H230789   8.426   3.663   5.680
10183WAT      O30790   1.674   3.301   6.429
10183WAT     H130791   1.662   3.388   6.381
10183WAT     H230792   1.686   3.227   6.363
10184WAT      O30793   7.286   6.072   6.820
10184WAT     H130794   7.241   6.020   6.893
10184WAT     H230795   7.376   6.033   6.802
10185WAT      O30796   6.296   0.936   0.854
10185WAT     H130797   6.202   0.958   0.829
10185WAT     H230798   6.296   0.888   0.942
10186WAT      O30799   3.961   7.309   4.322
10186WAT     H130800   3.931   7.236   4.384
10186WAT     H230801   3.973   7.272   4.230
10187WAT      O30802   4.350   1.526   2.950
10187WAT     H130803   4.359   1.543   2.852
10187WAT     H230804   4.340   1.428   2.966
10188WAT      O30805   6.667   9.001   0.612
10188WAT     H130806   6.757   8.961   0.598
10188WAT     H230807   6.660   9.087   0.561
10189WAT      O30808   7.576   9.314   3.151
10189WAT     H130809   7.530   9.385   3.204
10189WAT     H230810   7.510   9.268   3.093
10190WAT      O30811   2.616   6.930   1.595
10190WAT     H130812   2.628   7.029   1.590
10190WAT     H230813   2.631   6.899   1.689
10191WAT      O30814   8.088   6.749   0.698
10191WAT     H130815   8.060   6.705   0.613
10191WAT     H230816   8.048   6.840   0.703
10192WAT      O30817   8.787   6.995   6.147
10192WAT     H130818   8.870   7.046   6.168
10192WAT     H230819   8.778   6.986   6.048
10193WAT      O30820   7.721   4.848   4.713
10193WAT     H130821   7.624   4.825   4.701
10193WAT     H230822   7.730   4.945   4.736
10194WAT      O30823   7.893   7.897   6.254
10194WAT     H130824   7.803   7.855   6.272
10194WAT     H230825   7.916   7.959   6.329
10195WAT      O30826   8.213   8.156   0.991
10195WAT     H130827   8.249   8.249   1.001
10195WAT     H230828   8.267   8.106   0.923
10196WAT      O30829   0.237   0.484   3.954
10196WAT     H130830   0.287   0.403   3.925
10196WAT     H230831   0.169   0.459   4.022
10197WAT      O30832   1.807   0.661   4.614
10197WAT     H130833   1.847   0.740   4.568
10197WAT     H230834   1.800   0.585   4.550
10198WAT      O30835   4.136   9.703   5.678
10198WAT     H130836   4.112   9.793   5.714
10198WAT     H230837   4.132   9.704   5.578
10199WAT      O30838   3.158   8.534   4.641
10199WAT     H130839   3.251   8.567   4.660
10199WAT     H230840   3.137   8.457   4.701
10200WAT      O30841   0.216   9.293   7.530
10200WAT     H130842   0.201   9.323   7.624
10200WAT     H230843   0.131   9.254   7.494
10201WAT      O30844   9.401   1.400   3.719
10201WAT     H130845   9.469   1.458   3.765
10201WAT     H230846   9.355   1.452   3.647
10202WAT      O30847   9.096   8.482   0.467
10202WAT     H130848   9.021   8.537   0.431
10202WAT     H230849   9.183   8.529   0.448
10203WAT      O30850   5.617   6.060   2.481
10203WAT     H130851   5.707   6.093   2.511
10203WAT     H230852   5.556   6.138   2.466
10204WAT      O30853   3.498   8.940   1.329
10204WAT     H130854   3.481   8.915   1.425
10204WAT     H230855   3.595   8.927   1.308
10205WAT      O30856   7.999   1.764   9.448
10205WAT     H130857   8.055   1.683   9.427
10205WAT     H230858   7.928   1.774   9.378
10206WAT      O30859   7.388   5.313   1.236
10206WAT     H130860   7.297   5.341   1.204
10206WAT     H230861   7.381   5.231   1.292
10207WAT      O30862   5.138   7.657   3.096
10207WAT     H130863   5.142   7.688   3.001
10207WAT     H230864   5.062   7.593   3.108
10208WAT      O30865   3.016   0.148   7.928
10208WAT     H130866   2.947   0.081   7.956
10208WAT     H230867   2.975   0.213   7.864
10209WAT      O30868   7.057   8.372   3.885
10209WAT     H130869   6.965   8.338   3.867
10209WAT     H230870   7.063   8.469   3.858
10210WAT      O30871   1.563   5.008   6.028
10210WAT     H130872   1.583   5.052   6.115
10210WAT     H230873   1.479   4.954   6.036
10211WAT      O30874   0.810   8.765   5.999
10211WAT     H130875   0.892   8.710   5.979
10211WAT     H230876   0.741   8.706   6.041
10212WAT      O30877   7.334   7.239   8.776
10212WAT     H130878   7.394   7.286   8.712
10212WAT     H230879   7.242   7.277   8.769
10213WAT      O30880   0.192   5.201   0.690
10213WAT     H130881   0.127   5.244   0.628
10213WAT     H230882   0.269   5.263   0.704
10214WAT      O30883   3.486   9.288   9.507
10214WAT     H130884   3.402   9.343   9.510
10214WAT     H230885   3.474   9.212   9.444
10215WAT      O30886   1.267   6.210   8.171
10215WAT     H130887   1.287   6.296   8.218
10215WAT     H230888   1.351   6.176   8.128
10216WAT      O30889   7.693   7.148   7.916
10216WAT     H130890   7.620   7.214   7.936
10216WAT     H230891   7.756   7.187   7.849
10217WAT      O30892   2.075   9.797   0.133
10217WAT     H130893   2.080   9.896   0.146
10217WAT     H230894   2.004   9.759   0.191
10218WAT      O30895   6.174   8.872   0.022
10218WAT     H130896   6.256   8.923   0.045
10218WAT     H230897   6.195   8.804  -0.049
10219WAT      O30898   9.766   3.435   8.438
10219WAT     H130899   9.805   3.520   8.473
10219WAT     H230900   9.753   3.442   8.339
10220WAT      O30901   5.516   4.124   0.353
10220WAT     H130902   5.596   4.069   0.378
10220WAT     H230903   5.439   4.099   0.411
10221WAT      O30904   2.986   0.492   9.565
10221WAT     H130905   2.967   0.553   9.488
10221WAT     H230906   3.041   0.414   9.533
10222WAT      O30907   0.557   2.684   9.352
10222WAT     H130908   0.648   2.722   9.369
10222WAT     H230909   0.491   2.724   9.416
10223WAT      O30910   7.655   4.607   1.424
10223WAT     H130911   7.629   4.511   1.417
10223WAT     H230912   7.745   4.620   1.383
10224WAT      O30913   2.613   8.218   5.303
10224WAT     H130914   2.599   8.131   5.255
10224WAT     H230915   2.710   8.229   5.324
10225WAT      O30916   3.330   5.967   2.592
10225WAT     H130917   3.288   6.029   2.526
10225WAT     H230918   3.408   5.921   2.549
10226WAT      O30919   1.974   9.397   1.020
10226WAT     H130920   2.046   9.331   1.042
10226WAT     H230921   1.951   9.390   0.923
10227WAT      O30922   7.494   1.460   8.061
10227WAT     H130923   7.537   1.533   8.009
10227WAT     H230924   7.514   1.372   8.018
10228WAT      O30925   1.095   8.902   8.907
10228WAT     H130926   1.068   8.887   9.002
10228WAT     H230927   1.178   8.958   8.905
10229WAT      O30928   1.807   8.066   1.333
10229WAT     H130929   1.712   8.036   1.322
10229WAT     H230930   1.858   8.045   1.250
10230WAT      O30931   2.882   7.327   0.597
10230WAT     H130932   2.848   7.234   0.584
10230WAT     H230933   2.805   7.390   0.608
10231WAT      O30934   1.125   1.182   5.908
10231WAT     H130935   1.094   1.099   5.862
10231WAT     H230936   1.184   1.234   5.846
10232WAT      O30937   8.642   1.028   0.376
10232WAT     H130938   8.688   0.959   0.433
10232WAT     H230939   8.588   0.981   0.305
10233WAT      O30940   2.797   8.988   7.052
10233WAT     H130941   2.729   9.022   6.987
10233WAT     H230942   2.888   8.990   7.010
10234WAT      O30943   0.973   7.699   1.427
10234WAT     H130944   0.976   7.790   1.386
10234WAT     H230945   0.905   7.643   1.379
10235WAT      O30946   6.570   4.407   9.179
10235WAT     H130947   6.527   4.367   9.260
10235WAT     H230948   6.499   4.441   9.117
10236WAT      O30949   4.106   8.947   8.052
10236WAT     H130950   4.041   8.871   8.061
10236WAT     H230951   4.113   8.973   7.956
10237WAT      O30952   6.898   0.964   1.236
10237WAT     H130953   6.967   1.013   1.289
10237WAT     H230954   6.931   0.872   1.214
10238WAT      O30955   9.023   9.082   4.938
10238WAT     H130956   8.957   9.089   4.863
10238WAT     H230957   8.988   9.129   5.019
10239WAT      O30958   0.266   0.367   7.492
10239WAT     H130959   0.294   0.340   7.400
10239WAT     H230960   0.344   0.408   7.540
10240WAT      O30961   4.283   8.384   2.750
10240WAT     H130962   4.320   8.357   2.661
10240WAT     H230963   4.306   8.479   2.768
10241WAT      O30964   2.579   6.864   7.905
10241WAT     H130965   2.500   6.920   7.880
10241WAT     H230966   2.555   6.767   7.894
10242WAT      O30967   2.147   3.722   3.424
10242WAT     H130968   2.099   3.712   3.337
10242WAT     H230969   2.082   3.710   3.499
10243WAT      O30970   8.382   1.046   7.861
10243WAT     H130971   8.382   0.946   7.866
10243WAT     H230972   8.466   1.081   7.903
10244WAT      O30973   6.074   2.595   4.951
10244WAT     H130974   6.008   2.534   4.997
10244WAT     H230975   6.039   2.619   4.861
10245WAT      O30976   3.944   3.189   7.560
10245WAT     H130977   3.855   3.153   7.533
10245WAT     H230978   3.977   3.253   7.490
10246WAT      O30979   2.197   4.523   8.130
10246WAT     H130980   2.251   4.603   8.154
10246WAT     H230981   2.116   4.552   8.078
10247WAT      O30982   8.437   2.893   9.213
10247WAT     H130983   8.395   2.913   9.301
10247WAT     H230984   8.402   2.805   9.178
10248WAT      O30985   0.780   3.268   3.580
10248WAT     H130986   0.815   3.214   3.657
10248WAT     H230987   0.774   3.364   3.607
10249WAT      O30988   1.893   8.742   4.721
10249WAT     H130989   1.971   8.684   4.697
10249WAT     H230990   1.916   8.838   4.705
10250WAT      O30991   9.500   7.463   4.525
10250WAT     H130992   9.514   7.503   4.435
10250WAT     H230993   9.583   7.416   4.554
10251WAT      O30994   0.132   1.588   2.391
10251WAT     H130995   0.104   1.571   2.486
10251WAT     H230996   0.122   1.685   2.370
10252WAT      O30997   5.173   3.258   6.318
10252WAT     H130998   5.116   3.261   6.236
10252WAT     H230999   5.115   3.255   6.400
10253WAT      O31000   2.934   1.044   7.402
10253WAT     H131001   3.014   1.053   7.461
10253WAT     H231002   2.853   1.027   7.457
10254WAT      O31003   9.296   8.232   8.252
10254WAT     H131004   9.368   8.169   8.224
10254WAT     H231005   9.207   8.188   8.241
10255WAT      O31006   2.026   9.622   0.504
10255WAT     H131007   2.114   9.661   0.480
10255WAT     H231008   1.970   9.610   0.422
10256WAT      O31009   0.539   4.298   6.543
10256WAT     H131010   0.554   4.206   6.508
10256WAT     H231011   0.502   4.292   6.636
10257WAT      O31012   8.474   1.863   4.469
10257WAT     H131013   8.377   1.840   4.477
10257WAT     H231014   8.489   1.956   4.502
10258WAT      O31015   2.313   6.688   6.498
10258WAT     H131016   2.282   6.603   6.456
10258WAT     H231017   2.302   6.764   6.434
10259WAT      O31018   0.742   5.061   6.916
10259WAT     H131019   0.647   5.033   6.928
10259WAT     H231020   0.795   5.036   6.997
10260WAT      O31021   2.570   5.138   7.632
10260WAT     H131022   2.491   5.190   7.599
10260WAT     H231023   2.556   5.041   7.612
10261WAT      O31024   4.501   3.290   7.093
10261WAT     H131025   4.575   3.350   7.065
10261WAT     H231026   4.532   3.231   7.167
10262WAT      O31027   4.367   1.739   2.437
10262WAT     H131028   4.452   1.758   2.389
10262WAT     H231029   4.343   1.817   2.495
10263WAT      O31030   3.165   3.911   9.356
10263WAT     H131031   3.233   3.952   9.416
10263WAT     H231032   3.076   3.910   9.402
10264WAT      O31033   3.008   3.259   0.084
10264WAT     H131034   3.010   3.278  -0.014
10264WAT     H231035   3.089   3.207   0.110
10265WAT      O31036   0.090   0.703   3.628
10265WAT     H131037   0.070   0.606   3.632
10265WAT     H231038   0.094   0.741   3.720
10266WAT      O31039   4.790   0.659   8.518
10266WAT     H131040   4.783   0.736   8.455
10266WAT     H231041   4.803   0.694   8.611
10267WAT      O31042   7.850   9.284   7.558
10267WAT     H131043   7.798   9.337   7.491
10267WAT     H231044   7.934   9.333   7.582
10268WAT      O31045   9.683   5.852   7.742
10268WAT     H131046   9.772   5.888   7.715
10268WAT     H231047   9.660   5.773   7.686
10269WAT      O31048   6.119   1.172   7.260
10269WAT     H131049   6.066   1.089   7.245
10269WAT     H231050   6.211   1.162   7.222
10270WAT      O31051   4.961   5.444   6.635
10270WAT     H131052   5.041   5.396   6.669
10270WAT     H231053   4.960   5.537   6.672
10271WAT      O31054   3.695   9.454   9.489
10271WAT     H131055   3.623   9.385   9.495
10271WAT     H231056   3.681   9.523   9.561
10272WAT      O31057   2.934   7.229   0.994
10272WAT     H131058   2.976   7.319   0.994
10272WAT     H231059   2.835   7.238   0.998
10273WAT      O31060   6.597   2.105   5.480
10273WAT     H131061   6.581   2.041   5.406
10273WAT     H231062   6.677   2.162   5.460
10274WAT      O31063   1.898   6.274   5.067
10274WAT     H131064   1.967   6.264   5.139
10274WAT     H231065   1.807   6.259   5.106
10275WAT      O31066   3.732   8.951   2.529
10275WAT     H131067   3.772   9.013   2.596
10275WAT     H231068   3.633   8.955   2.536
10276WAT      O31069   7.437   1.021   7.691
10276WAT     H131070   7.481   0.946   7.739
10276WAT     H231071   7.417   0.993   7.597
10277WAT      O31072   6.617   5.154   8.766
10277WAT     H131073   6.607   5.245   8.726
10277WAT     H231074   6.541   5.136   8.828
10278WAT      O31075   5.633   5.950   3.318
10278WAT     H131076   5.717   5.905   3.286
10278WAT     H231077   5.593   6.003   3.243
10279WAT      O31078   0.857   6.232   0.577
10279WAT     H131079   0.885   6.327   0.569
10279WAT     H231080   0.830   6.212   0.671
10280WAT      O31081   5.429   7.073   1.293
10280WAT     H131082   5.501   7.116   1.238
10280WAT     H231083   5.349   7.055   1.236
10281WAT      O31084   3.011   4.087   4.049
10281WAT     H131085   2.967   4.177   4.042
10281WAT     H231086   2.946   4.017   4.019
10282WAT      O31087   8.372   6.296   6.041
10282WAT     H131088   8.334   6.206   6.021
10282WAT     H231089   8.311   6.344   6.104
10283WAT      O31090   2.040   1.135   7.077
10283WAT     H131091   2.033   1.051   7.132
10283WAT     H231092   2.127   1.179   7.095
10284WAT      O31093   2.974   9.260   9.673
10284WAT     H131094   2.895   9.199   9.668
10284WAT     H231095   3.054   9.214   9.635
10285WAT      O31096   5.499   3.658   1.107
10285WAT     H131097   5.401   3.664   1.090
10285WAT     H231098   5.547   3.644   1.020
10286WAT      O31099   1.101   0.850   2.114
10286WAT     H131100   1.015   0.849   2.062
10286WAT     H231101   1.109   0.937   2.162
10287WAT      O31102   4.383   4.147   1.242
10287WAT     H131103   4.345   4.122   1.332
10287WAT     H231104   4.346   4.085   1.173
10288WAT      O31105   5.771   4.667   6.049
10288WAT     H131106   5.860   4.623   6.055
10288WAT     H231107   5.769   4.747   6.109
10289WAT      O31108   2.545   8.218   3.951
10289WAT     H131109   2.495   8.268   4.022
10289WAT     H231110   2.643   8.238   3.959
10290WAT      O31111   1.634   1.584   6.604
10290WAT     H131112   1.573   1.662   6.594
10290WAT     H231113   1.707   1.607   6.669
10291WAT      O31114   2.842   3.860   3.974
10291WAT     H131115   2.851   3.858   3.874
10291WAT     H231116   2.746   3.852   3.999
10292WAT      O31117   7.332   1.111   8.421
10292WAT     H131118   7.348   1.032   8.362
10292WAT     H231119   7.316   1.192   8.364
10293WAT      O31120   9.724   0.105   4.534
10293WAT     H131121   9.685   0.041   4.601
10293WAT     H231122   9.747   0.191   4.580
10294WAT      O31123   4.065   1.542   7.165
10294WAT     H131124   4.146   1.484   7.169
10294WAT     H231125   4.092   1.635   7.141
10295WAT      O31126   9.414   1.575   7.035
10295WAT     H131127   9.318   1.595   7.014
10295WAT     H231128   9.466   1.660   7.034
10296WAT      O31129   3.282   8.078   4.999
10296WAT     H131130   3.182   8.087   4.994
10296WAT     H231131   3.310   8.000   4.943
10297WAT      O31132   5.129   9.034   5.479
10297WAT     H131133   5.131   9.034   5.379
10297WAT     H231134   5.192   9.104   5.513
10298WAT      O31135   8.283   6.301   1.912
10298WAT     H131136   8.325   6.277   1.825
10298WAT     H231137   8.243   6.219   1.954
10299WAT      O31138   1.039   8.310   7.269
10299WAT     H131139   1.102   8.346   7.200
10299WAT     H231140   0.983   8.385   7.305
10300WAT      O31141   8.589   9.012   2.573
10300WAT     H131142   8.583   9.090   2.510
10300WAT     H231143   8.649   9.034   2.649
10301WAT      O31144   9.211   0.780   4.307
10301WAT     H131145   9.159   0.774   4.393
10301WAT     H231146   9.175   0.854   4.251
10302WAT      O31147   2.223   0.958   1.183
10302WAT     H131148   2.276   1.040   1.203
10302WAT     H231149   2.223   0.898   1.263
10303WAT      O31150   6.206   1.799   0.946
10303WAT     H131151   6.208   1.823   1.043
10303WAT     H231152   6.274   1.853   0.897
10304WAT      O31153   1.768   6.660   2.958
10304WAT     H131154   1.755   6.615   3.046
10304WAT     H231155   1.689   6.719   2.938
10305WAT      O31156   2.621   0.321   9.263
10305WAT     H131157   2.561   0.316   9.184
10305WAT     H231158   2.623   0.232   9.310
10306WAT      O31159   2.937   4.026   2.382
10306WAT     H131160   2.967   3.937   2.346
10306WAT     H231161   2.844   4.045   2.350
10307WAT      O31162   7.585   1.457   2.701
10307WAT     H131163   7.620   1.487   2.790
10307WAT     H231164   7.625   1.513   2.629
10308WAT      O31165   5.367   6.454   9.176
10308WAT     H131166   5.293   6.387   9.185
10308WAT     H231167   5.331   6.539   9.139
10309WAT      O31168   6.888   6.935   6.644
10309WAT     H131169   6.894   6.867   6.716
10309WAT     H231170   6.963   7.001   6.653
10310WAT      O31171   7.202   9.762   6.078
10310WAT     H131172   7.289   9.757   6.128
10310WAT     H231173   7.143   9.830   6.122
10311WAT      O31174   8.845   2.832   0.044
10311WAT     H131175   8.834   2.733   0.036
10311WAT     H231176   8.770   2.868   0.100
10312WAT      O31177   8.004   8.576   1.092
10312WAT     H131178   7.925   8.517   1.078
10312WAT     H231179   7.979   8.671   1.074
10313WAT      O31180   6.347   7.714   1.769
10313WAT     H131181   6.418   7.663   1.720
10313WAT     H231182   6.369   7.812   1.765
10314WAT      O31183   7.628   8.972   5.043
10314WAT     H131184   7.570   8.893   5.021
10314WAT     H231185   7.572   9.053   5.056
10315WAT      O31186   3.864   4.106   8.888
10315WAT     H131187   3.885   4.024   8.836
10315WAT     H231188   3.796   4.085   8.958
10316WAT      O31189   7.395   3.570   8.206
10316WAT     H131190   7.439   3.657   8.226
10316WAT     H231191   7.342   3.578   8.122
10317WAT      O31192   8.380   5.958   6.487
10317WAT     H131193   8.472   5.928   6.463
10317WAT     H231194   8.361   5.934   6.582
10318WAT      O31195   6.573   5.681   9.624
10318WAT     H131196   6.488   5.649   9.667
10318WAT     H231197   6.644   5.611   9.633
10319WAT      O31198   9.043   3.942   4.344
10319WAT     H131199   9.082   3.855   4.313
10319WAT     H231200   9.089   4.018   4.300
10320WAT      O31201   7.504   7.158   0.015
10320WAT     H131202   7.504   7.186   0.111
10320WAT     H231203   7.426   7.198  -0.032
10321WAT      O31204   1.071   2.533   2.292
10321WAT     H131205   1.006   2.607   2.309
10321WAT     H231206   1.113   2.505   2.379
10322WAT      O31207   2.961   0.688   6.018
10322WAT     H131208   3.019   0.610   5.995
10322WAT     H231209   3.018   0.761   6.058
10323WAT      O31210   7.265   8.483   1.534
10323WAT     H131211   7.234   8.390   1.555
10323WAT     H231212   7.361   8.492   1.560
10324WAT      O31213   9.062   1.844   1.412
10324WAT     H131214   9.077   1.942   1.425
10324WAT     H231215   9.118   1.793   1.477
10325WAT      O31216   8.204   4.945   5.354
10325WAT     H131217   8.119   4.939   5.407
10325WAT     H231218   8.186   4.917   5.260
10326WAT      O31219   3.587   4.896   6.540
10326WAT     H131220   3.629   4.809   6.516
10326WAT     H231221   3.491   4.881   6.563
10327WAT      O31222   1.644   3.738   5.297
10327WAT     H131223   1.733   3.777   5.322
10327WAT     H231224   1.620   3.666   5.361
10328WAT      O31225   2.217   7.404   6.662
10328WAT     H131226   2.208   7.356   6.750
10328WAT     H231227   2.268   7.489   6.676
10329WAT      O31228   5.722   1.823   2.195
10329WAT     H131229   5.775   1.907   2.180
10329WAT     H231230   5.649   1.817   2.127
10330WAT      O31231   9.877   2.428   8.735
10330WAT     H131232   9.800   2.368   8.711
10330WAT     H231233   9.908   2.476   8.654
10331WAT      O31234   1.100   8.414   7.555
10331WAT     H131235   1.041   8.377   7.483
10331WAT     H231236   1.056   8.398   7.644
10332WAT      O31237   7.043   8.214   5.942
10332WAT     H131238   6.990   8.193   5.860
10332WAT     H231239   7.125   8.265   5.915
10333WAT      O31240   5.413   2.057   2.911
10333WAT     H131241   5.359   2.033   2.831
10333WAT     H231242   5.382   2.003   2.990
10334WAT      O31243   0.732   1.591   0.015
10334WAT     H131244   0.691   1.663  -0.041
10334WAT     H231245   0.830   1.605   0.021
10335WAT      O31246   7.773   4.757   8.899
10335WAT     H131247   7.762   4.657   8.897
10335WAT     H231248   7.692   4.797   8.943
10336WAT      O31249   8.583   8.510   1.032
10336WAT     H131250   8.531   8.587   0.996
10336WAT     H231251   8.593   8.519   1.131
10337WAT      O31252   9.781   7.995   1.087
10337WAT     H131253   9.880   7.994   1.070
10337WAT     H231254   9.741   8.075   1.044
10338WAT      O31255   0.600   9.198   9.733
10338WAT     H131256   0.622   9.122   9.795
10338WAT     H231257   0.566   9.162   9.646
10339WAT      O31258   6.060   4.248   6.072
10339WAT     H131259   6.014   4.159   6.068
10339WAT     H231260   6.155   4.238   6.043
10340WAT      O31261   3.565   0.227   3.689
10340WAT     H131262   3.574   0.293   3.614
10340WAT     H231263   3.544   0.276   3.773
10341WAT      O31264   1.768   4.433   7.743
10341WAT     H131265   1.700   4.452   7.813
10341WAT     H231266   1.730   4.371   7.675
10342WAT      O31267   7.756   5.590   7.913
10342WAT     H131268   7.708   5.515   7.867
10342WAT     H231269   7.786   5.559   8.003
10343WAT      O31270   1.600   1.930   4.153
10343WAT     H131271   1.649   2.010   4.190
10343WAT     H231272   1.503   1.951   4.147
10344WAT      O31273   8.928   8.830   8.638
10344WAT     H131274   8.972   8.795   8.555
10344WAT     H231275   8.839   8.786   8.649
10345WAT      O31276   8.161   7.794   4.531
10345WAT     H131277   8.246   7.742   4.528
10345WAT     H231278   8.158   7.848   4.616
10346WAT      O31279   0.589   9.078   4.668
10346WAT     H131280   0.654   9.011   4.702
10346WAT     H231281   0.569   9.058   4.572
10347WAT      O31282   8.369   9.206   5.217
10347WAT     H131283   8.331   9.123   5.258
10347WAT     H231284   8.346   9.285   5.273
10348WAT      O31285   1.301   3.550   2.474
10348WAT     H131286   1.297   3.544   2.574
10348WAT     H231287   1.330   3.462   2.437
10349WAT      O31288   9.091   8.446   8.776
10349WAT     H131289   9.162   8.515   8.783
10349WAT     H231290   9.031   8.467   8.698
10350WAT      O31291   2.291   2.098   8.545
10350WAT     H131292   2.303   2.034   8.469
10350WAT     H231293   2.205   2.148   8.533
10351WAT      O31294   3.275   0.249   7.030
10351WAT     H131295   3.253   0.283   7.122
10351WAT     H231296   3.222   0.167   7.012
10352WAT      O31297   6.448   6.681   6.669
10352WAT     H131298   6.531   6.728   6.639
10352WAT     H231299   6.457   6.583   6.650
10353WAT      O31300   5.496   7.571   7.507
10353WAT     H131301   5.489   7.668   7.526
10353WAT     H231302   5.567   7.555   7.437
10354WAT      O31303   5.290   5.758   1.235
10354WAT     H131304   5.230   5.790   1.161
10354WAT     H231305   5.327   5.837   1.284
10355WAT      O31306   4.068   4.935   6.681
10355WAT     H131307   4.093   5.032   6.684
10355WAT     H231308   4.071   4.897   6.773
10356WAT      O31309   4.998   4.009   4.159
10356WAT     H131310   5.056   3.983   4.237
10356WAT     H231311   5.055   4.026   4.079
10357WAT      O31312   5.308   8.315   0.407
10357WAT     H131313   5.363   8.247   0.455
10357WAT     H231314   5.339   8.321   0.312
10358WAT      O31315   0.940   3.964   1.214
10358WAT     H131316   0.941   3.982   1.312
10358WAT     H231317   0.852   3.992   1.175
10359WAT      O31318   8.719   3.224   2.665
10359WAT     H131319   8.802   3.214   2.609
10359WAT     H231320   8.725   3.307   2.719
10360WAT      O31321   2.761   0.120   5.762
10360WAT     H131322   2.752   0.200   5.821
10360WAT     H231323   2.674   0.103   5.716
10361WAT      O31324   4.533   6.143   1.843
10361WAT     H131325   4.500   6.051   1.825
10361WAT     H231326   4.528   6.162   1.941
10362WAT      O31327   0.866   4.053   2.617
10362WAT     H131328   0.889   3.957   2.600
10362WAT     H231329   0.847   4.099   2.530
10363WAT      O31330   5.802   7.516   8.555
10363WAT     H131331   5.738   7.526   8.479
10363WAT     H231332   5.800   7.598   8.612
10364WAT      O31333   9.712   8.948   2.686
10364WAT     H131334   9.711   8.850   2.666
10364WAT     H231335   9.806   8.981   2.687
10365WAT      O31336   7.156   6.454   1.218
10365WAT     H131337   7.239   6.425   1.266
10365WAT     H231338   7.131   6.546   1.248
10366WAT      O31339   1.031   3.696   9.639
10366WAT     H131340   0.998   3.604   9.661
10366WAT     H231341   0.982   3.764   9.694
10367WAT      O31342   4.793   9.490   0.981
10367WAT     H131343   4.711   9.522   1.030
10367WAT     H231344   4.809   9.550   0.902
10368WAT      O31345   4.552   3.090   7.333
10368WAT     H131346   4.453   3.095   7.323
10368WAT     H231347   4.576   3.077   7.429
10369WAT      O31348   2.837   8.640   3.274
10369WAT     H131349   2.798   8.732   3.273
10369WAT     H231350   2.762   8.573   3.278
10370WAT      O31351   8.834   2.629   3.572
10370WAT     H131352   8.750   2.635   3.518
10370WAT     H231353   8.812   2.643   3.669
10371WAT      O31354   2.580   5.314   9.068
10371WAT     H131355   2.626   5.247   9.009
10371WAT     H231356   2.483   5.319   9.044
10372WAT      O31357   3.572   1.347   1.264
10372WAT     H131358   3.596   1.396   1.180
10372WAT     H231359   3.567   1.249   1.245
10373WAT      O31360   0.689   6.366   0.119
10373WAT     H131361   0.629   6.412   0.052
10373WAT     H231362   0.668   6.269   0.121
10374WAT      O31363   0.626   3.925   7.151
10374WAT     H131364   0.618   4.025   7.152
10374WAT     H231365   0.574   3.888   7.074
10375WAT      O31366   2.810   4.781   0.009
10375WAT     H131367   2.838   4.689   0.035
10375WAT     H231368   2.889   4.832  -0.026
10376WAT      O31369   8.206   2.518   8.811
10376WAT     H131370   8.133   2.451   8.820
10376WAT     H231371   8.177   2.604   8.853
10377WAT      O31372   8.603   7.963   2.948
10377WAT     H131373   8.527   7.921   2.899
10377WAT     H231374   8.571   7.999   3.036
10378WAT      O31375   2.709   1.336   2.820
10378WAT     H131376   2.634   1.385   2.775
10378WAT     H231377   2.781   1.400   2.845
10379WAT      O31378   6.428   2.282   6.898
10379WAT     H131379   6.466   2.216   6.963
10379WAT     H231380   6.360   2.339   6.945
10380WAT      O31381   5.799   6.050   3.959
10380WAT     H131382   5.778   6.075   3.864
10380WAT     H231383   5.851   5.965   3.959
10381WAT      O31384   5.068   2.013   5.569
10381WAT     H131385   5.033   1.993   5.477
10381WAT     H231386   5.137   1.945   5.594
10382WAT      O31387   6.282   2.532   4.225
10382WAT     H131388   6.352   2.477   4.271
10382WAT     H231389   6.196   2.527   4.277
10383WAT      O31390   3.019   5.639   0.099
10383WAT     H131391   3.078   5.705   0.144
10383WAT     H231392   2.929   5.679   0.085
10384WAT      O31393   3.442   4.657   7.026
10384WAT     H131394   3.540   4.635   7.022
10384WAT     H231395   3.419   4.720   6.952
10385WAT      O31396   0.542   8.126   0.342
10385WAT     H131397   0.542   8.027   0.328
10385WAT     H231398   0.619   8.166   0.293
10386WAT      O31399   6.440   5.029   2.974
10386WAT     H131400   6.489   5.051   2.890
10386WAT     H231401   6.352   4.987   2.951
10387WAT      O31402   2.214   3.783   9.598
10387WAT     H131403   2.261   3.848   9.537
10387WAT     H231404   2.274   3.759   9.674
10388WAT      O31405   8.442   6.731   9.035
10388WAT     H131406   8.416   6.738   9.131
10388WAT     H231407   8.538   6.702   9.028
10389WAT      O31408   6.937   2.489   3.985
10389WAT     H131409   7.017   2.544   3.961
10389WAT     H231410   6.910   2.509   4.079
10390WAT      O31411   8.500   8.409   9.264
10390WAT     H131412   8.590   8.375   9.294
10390WAT     H231413   8.509   8.450   9.174
10391WAT      O31414   8.657   5.129   2.912
10391WAT     H131415   8.644   5.118   3.010
10391WAT     H231416   8.691   5.222   2.893
10392WAT      O31417   0.170   6.462   9.054
10392WAT     H131418   0.188   6.499   9.146
10392WAT     H231419   0.241   6.397   9.030
10393WAT      O31420   6.420   9.416   6.952
10393WAT     H131421   6.432   9.467   7.038
10393WAT     H231422   6.356   9.465   6.893
10394WAT      O31423   9.016   8.389   3.163
10394WAT     H131424   9.091   8.338   3.121
10394WAT     H231425   8.992   8.467   3.106
10395WAT      O31426   8.338   6.220   8.819
10395WAT     H131427   8.373   6.136   8.859
10395WAT     H231428   8.323   6.287   8.891
10396WAT      O31429   4.751   3.698   8.436
10396WAT     H131430   4.698   3.680   8.519
10396WAT     H231431   4.691   3.690   8.356
10397WAT      O31432   9.259   1.674   5.162
10397WAT     H131433   9.338   1.732   5.181
10397WAT     H231434   9.201   1.718   5.094
10398WAT      O31435   9.599   5.729   0.766
10398WAT     H131436   9.563   5.644   0.806
10398WAT     H231437   9.569   5.807   0.820
10399WAT      O31438   4.704   3.957   3.383
10399WAT     H131439   4.691   4.054   3.365
10399WAT     H231440   4.644   3.927   3.457
10400WAT      O31441   3.081   8.069   1.582
10400WAT     H131442   3.086   7.975   1.615
10400WAT     H231443   3.173   8.103   1.565
10401WAT      O31444   3.976   3.831   8.015
10401WAT     H131445   3.936   3.827   7.923
10401WAT     H231446   3.989   3.738   8.050
10402WAT      O31447   0.460   0.969   1.735
10402WAT     H131448   0.551   0.935   1.710
10402WAT     H231449   0.450   0.965   1.835
10403WAT      O31450   0.439   2.180   4.492
10403WAT     H131451   0.339   2.173   4.496
10403WAT     H231452   0.477   2.097   4.452
10404WAT      O31453   3.615   3.897   4.042
10404WAT     H131454   3.557   3.889   3.961
10404WAT     H231455   3.643   3.806   4.073
10405WAT      O31456   2.231   9.144   2.672
10405WAT     H131457   2.314   9.178   2.630
10405WAT     H231458   2.154   9.204   2.649
10406WAT      O31459   0.541   7.815   5.693
10406WAT     H131460   0.464   7.753   5.682
10406WAT     H231461   0.528   7.871   5.775
10407WAT      O31462   0.150   4.608   6.123
10407WAT     H131463   0.216   4.681   6.105
10407WAT     H231464   0.067   4.648   6.163
10408WAT      O31465   4.598   4.190   0.143
10408WAT     H131466   4.609   4.289   0.131
10408WAT     H231467   4.591   4.170   0.241
10409WAT      O31468   3.265   0.077   5.272
10409WAT     H131469   3.195   0.017   5.311
10409WAT     H231470   3.237   0.107   5.181
10410WAT      O31471   0.134   0.839   2.678
10410WAT     H131472   0.225   0.826   2.719
10410WAT     H231473   0.075   0.763   2.702
10411WAT      O31474   6.515   7.040   5.813
10411WAT     H131475   6.559   7.126   5.785
10411WAT     H231476   6.583   6.967   5.817
10412WAT      O31477   8.250   5.126   6.667
10412WAT     H131478   8.220   5.043   6.713
10412WAT     H231479   8.341   5.151   6.699
10413WAT      O31480   7.608   0.837   4.585
10413WAT     H131481   7.663   0.780   4.647
10413WAT     H231482   7.644   0.930   4.586
10414WAT      O31483   4.277   0.451   5.547
10414WAT     H131484   4.246   0.534   5.593
10414WAT     H231485   4.375   0.438   5.564
10415WAT      O31486   5.076   8.870   5.673
10415WAT     H131487   5.117   8.780   5.664
10415WAT     H231488   5.108   8.929   5.598
10416WAT      O31489   2.742   3.148   4.784
10416WAT     H131490   2.688   3.231   4.771
10416WAT     H231491   2.690   3.083   4.840
10417WAT      O31492   9.110   0.933   6.338
10417WAT     H131493   9.208   0.957   6.344
10417WAT     H231494   9.101   0.835   6.321
10418WAT      O31495   8.493   0.115   5.756
10418WAT     H131496   8.443   0.065   5.685
10418WAT     H231497   8.590   0.091   5.750
10419WAT      O31498   0.899   3.802   5.282
10419WAT     H131499   0.926   3.873   5.347
10419WAT     H231500   0.809   3.824   5.244
10420WAT      O31501   9.142   3.468   4.459
10420WAT     H131502   9.198   3.426   4.531
10420WAT     H231503   9.056   3.502   4.498
10421WAT      O31504   4.264   9.748   6.602
10421WAT     H131505   4.303   9.694   6.527
10421WAT     H231506   4.185   9.798   6.568
10422WAT      O31507   4.369   9.209   6.909
10422WAT     H131508   4.365   9.304   6.938
10422WAT     H231509   4.445   9.197   6.845
10423WAT      O31510   6.158   6.418   5.218
10423WAT     H131511   6.223   6.463   5.157
10423WAT     H231512   6.147   6.472   5.302
10424WAT      O31513   2.467   5.144   7.228
10424WAT     H131514   2.558   5.179   7.250
10424WAT     H231515   2.446   5.066   7.287
10425WAT      O31516   5.182   8.524   4.212
10425WAT     H131517   5.205   8.452   4.278
10425WAT     H231518   5.181   8.485   4.119
10426WAT      O31519   0.149   7.392   7.589
10426WAT     H131520   0.159   7.425   7.683
10426WAT     H231521   0.110   7.300   7.591
10427WAT      O31522   0.301   4.428   3.867
10427WAT     H131523   0.356   4.344   3.871
10427WAT     H231524   0.338   4.495   3.931
10428WAT      O31525   1.293   0.305   4.371
10428WAT     H131526   1.334   0.332   4.458
10428WAT     H231527   1.210   0.358   4.355
10429WAT      O31528   0.701   3.654   0.862
10429WAT     H131529   0.691   3.565   0.907
10429WAT     H231530   0.790   3.659   0.817
10430WAT      O31531   5.782   3.739   8.558
10430WAT     H131532   5.823   3.821   8.521
10430WAT     H231533   5.837   3.705   8.634
10431WAT      O31534   5.382   6.453   2.118
10431WAT     H131535   5.439   6.390   2.066
10431WAT     H231536   5.436   6.496   2.190
10432WAT      O31537   2.687   7.495   8.090
10432WAT     H131538   2.683   7.595   8.079
10432WAT     H231539   2.766   7.471   8.146
10433WAT      O31540   5.036   3.204   0.020
10433WAT     H131541   5.126   3.183   0.058
10433WAT     H231542   4.983   3.119   0.012
10434WAT      O31543   3.806   5.547   9.673
10434WAT     H131544   3.832   5.498   9.590
10434WAT     H231545   3.721   5.598   9.658
10435WAT      O31546   3.927   9.124   9.397
10435WAT     H131547   3.993   9.074   9.454
10435WAT     H231548   3.976   9.176   9.327
10436WAT      O31549   1.303   3.863   3.525
10436WAT     H131550   1.384   3.820   3.564
10436WAT     H231551   1.330   3.926   3.452
10437WAT      O31552   4.187   7.343   9.166
10437WAT     H131553   4.156   7.307   9.254
10437WAT     H231554   4.279   7.307   9.146
10438WAT      O31555   1.656   7.349   2.994
10438WAT     H131556   1.581   7.348   2.927
10438WAT     H231557   1.694   7.257   3.004
10439WAT      O31558   0.829   2.516   8.539
10439WAT     H131559   0.821   2.417   8.544
10439WAT     H231560   0.770   2.558   8.607
10440WAT      O31561   2.582   0.208   2.047
10440WAT     H131562   2.592   0.265   2.129
10440WAT     H231563   2.620   0.256   1.968
10441WAT      O31564   5.548   2.257   7.537
10441WAT     H131565   5.467   2.201   7.551
10441WAT     H231566   5.620   2.228   7.601
10442WAT      O31567   7.891   9.729   7.473
10442WAT     H131568   7.828   9.805   7.459
10442WAT     H231569   7.844   9.655   7.520
10443WAT      O31570   5.918   2.578   6.796
10443WAT     H131571   5.837   2.634   6.779
10443WAT     H231572   5.892   2.482   6.801
10444WAT      O31573   9.626   0.685   2.021
10444WAT     H131574   9.703   0.742   2.048
10444WAT     H231575   9.540   0.732   2.040
10445WAT      O31576   9.203   1.674   1.570
10445WAT     H131577   9.165   1.615   1.641
10445WAT     H231578   9.241   1.618   1.497
10446WAT      O31579   9.642   6.396   8.264
10446WAT     H131580   9.721   6.443   8.225
10446WAT     H231581   9.596   6.456   8.329
10447WAT      O31582   7.099   6.306   1.000
10447WAT     H131583   7.135   6.356   1.079
10447WAT     H231584   7.113   6.208   1.013
10448WAT      O31585   5.349   7.439   3.915
10448WAT     H131586   5.281   7.396   3.856
10448WAT     H231587   5.348   7.538   3.901
10449WAT      O31588   3.701   4.740   9.426
10449WAT     H131589   3.750   4.721   9.341
10449WAT     H231590   3.710   4.837   9.448
10450WAT      O31591   0.788   8.354   9.236
10450WAT     H131592   0.814   8.418   9.308
10450WAT     H231593   0.727   8.284   9.273
10451WAT      O31594   4.207   1.545   9.110
10451WAT     H131595   4.246   1.523   9.020
10451WAT     H231596   4.229   1.639   9.133
10452WAT      O31597   7.141   5.368   8.220
10452WAT     H131598   7.118   5.317   8.303
10452WAT     H231599   7.058   5.397   8.173
10453WAT      O31600   7.011   1.602   7.251
10453WAT     H131601   7.038   1.698   7.249
10453WAT     H231602   6.922   1.591   7.205
10454WAT      O31603   5.214   5.467   6.331
10454WAT     H131604   5.191   5.371   6.319
10454WAT     H231605   5.130   5.521   6.332
10455WAT      O31606   2.992   4.576   8.987
10455WAT     H131607   3.013   4.674   8.984
10455WAT     H231608   2.917   4.556   8.923
10456WAT      O31609   1.163   0.356   6.748
10456WAT     H131610   1.258   0.351   6.778
10456WAT     H231611   1.143   0.447   6.712
10457WAT      O31612   8.082   1.601   6.616
10457WAT     H131613   8.115   1.520   6.568
10457WAT     H231614   8.157   1.665   6.630
10458WAT      O31615   6.974   4.108   0.068
10458WAT     H131616   6.896   4.063   0.111
10458WAT     H231617   6.942   4.188   0.016
10459WAT      O31618   4.832   0.628   0.543
10459WAT     H131619   4.762   0.556   0.541
10459WAT     H231620   4.858   0.646   0.638
10460WAT      O31621   0.813   6.515   7.136
10460WAT     H131622   0.818   6.419   7.161
10460WAT     H231623   0.902   6.546   7.103
10461WAT      O31624   0.180   4.869   2.791
10461WAT     H131625   0.174   4.845   2.694
10461WAT     H231626   0.136   4.957   2.806
10462WAT      O31627   8.729   7.076   1.934
10462WAT     H131628   8.762   7.087   2.028
10462WAT     H231629   8.631   7.095   1.930
10463WAT      O31630   3.513   7.182   6.472
10463WAT     H131631   3.509   7.082   6.473
10463WAT     H231632   3.448   7.219   6.538
10464WAT      O31633   0.547   3.728   7.302
10464WAT     H131634   0.590   3.803   7.250
10464WAT     H231635   0.555   3.747   7.400
10465WAT      O31636   4.320   3.623   0.767
10465WAT     H131637   4.329   3.670   0.679
10465WAT     H231638   4.250   3.552   0.761
10466WAT      O31639   9.623   7.460   5.943
10466WAT     H131640   9.620   7.522   5.864
10466WAT     H231641   9.531   7.448   5.980
10467WAT      O31642   0.929   7.326   2.084
10467WAT     H131643   0.995   7.327   2.159
10467WAT     H231644   0.837   7.342   2.119
10468WAT      O31645   0.716   0.247   2.844
10468WAT     H131646   0.732   0.267   2.940
10468WAT     H231647   0.620   0.224   2.830
10469WAT      O31648   2.090   4.992   7.645
10469WAT     H131649   1.993   5.019   7.650
10469WAT     H231650   2.132   5.005   7.734
10470WAT      O31651   5.058   5.498   7.599
10470WAT     H131652   5.066   5.579   7.656
10470WAT     H231653   5.033   5.525   7.506
10471WAT      O31654   5.837   7.113   4.723
10471WAT     H131655   5.773   7.117   4.646
10471WAT     H231656   5.930   7.108   4.687
10472WAT      O31657   3.035   7.509   6.604
10472WAT     H131658   2.972   7.465   6.668
10472WAT     H231659   3.001   7.497   6.511
10473WAT      O31660   3.543   0.840   5.129
10473WAT     H131661   3.534   0.786   5.045
10473WAT     H231662   3.596   0.923   5.110
10474WAT      O31663   3.698   2.143   1.919
10474WAT     H131664   3.633   2.138   1.843
10474WAT     H231665   3.738   2.053   1.935
10475WAT      O31666   3.293   1.192   3.745
10475WAT     H131667   3.209   1.243   3.729
10475WAT     H231668   3.345   1.236   3.819
10476WAT      O31669   7.866   8.276   7.814
10476WAT     H131670   7.913   8.358   7.780
10476WAT     H231671   7.795   8.249   7.750
10477WAT      O31672   6.374   8.245   0.618
10477WAT     H131673   6.360   8.225   0.521
10477WAT     H231674   6.371   8.160   0.671
10478WAT      O31675   9.280   7.874   5.681
10478WAT     H131676   9.376   7.867   5.707
10478WAT     H231677   9.253   7.971   5.681
10479WAT      O31678   8.964   0.668   7.230
10479WAT     H131679   8.888   0.603   7.231
10479WAT     H231680   8.948   0.736   7.159
10480WAT      O31681   4.682   5.516   7.347
10480WAT     H131682   4.708   5.610   7.324
10480WAT     H231683   4.596   5.493   7.303
10481WAT      O31684   2.484   5.248   4.013
10481WAT     H131685   2.492   5.321   3.945
10481WAT     H231686   2.396   5.202   4.002
10482WAT      O31687   7.133   0.631   7.402
10482WAT     H131688   7.052   0.665   7.451
10482WAT     H231689   7.172   0.705   7.348
10483WAT      O31690   6.703   1.283   9.773
10483WAT     H131691   6.688   1.342   9.852
10483WAT     H231692   6.785   1.312   9.724
10484WAT      O31693   6.671   0.619   2.444
10484WAT     H131694   6.592   0.563   2.468
10484WAT     H231695   6.755   0.567   2.460
10485WAT      O31696   5.194   7.393   4.464
10485WAT     H131697   5.151   7.432   4.546
10485WAT     H231698   5.221   7.467   4.403
10486WAT      O31699   9.356   2.268   9.085
10486WAT     H131700   9.293   2.282   9.008
10486WAT     H231701   9.310   2.212   9.154
10487WAT      O31702   0.772   8.368   4.954
10487WAT     H131703   0.752   8.358   4.856
10487WAT     H231704   0.713   8.307   5.006
10488WAT      O31705   6.885   1.470   3.134
10488WAT     H131706   6.965   1.515   3.172
10488WAT     H231707   6.832   1.428   3.208
10489WAT      O31708   0.043   6.912   0.506
10489WAT     H131709   0.008   6.982   0.444
10489WAT     H231710   0.106   6.954   0.572
10490WAT      O31711   8.111   5.054   5.647
10490WAT     H131712   8.176   5.129   5.629
10490WAT     H231713   8.112   5.032   5.744
10491WAT      O31714   8.128   1.153   3.005
10491WAT     H131715   8.109   1.237   2.954
10491WAT     H231716   8.151   1.079   2.941
10492WAT      O31717   9.288   4.515   2.716
10492WAT     H131718   9.204   4.482   2.674
10492WAT     H231719   9.277   4.513   2.816
10493WAT      O31720   3.297   5.267   2.728
10493WAT     H131721   3.217   5.313   2.766
10493WAT     H231722   3.313   5.299   2.635
10494WAT      O31723   1.869   4.117   9.490
10494WAT     H131724   1.805   4.183   9.452
10494WAT     H231725   1.858   4.113   9.590
10495WAT      O31726   5.908   7.178   6.280
10495WAT     H131727   5.909   7.116   6.202
10495WAT     H231728   5.822   7.228   6.282
10496WAT      O31729   2.670   1.120   8.723
10496WAT     H131730   2.663   1.141   8.626
10496WAT     H231731   2.765   1.132   8.753
10497WAT      O31732   0.496   7.894   7.584
10497WAT     H131733   0.557   7.815   7.578
10497WAT     H231734   0.492   7.925   7.679
10498WAT      O31735   4.674   0.890   6.649
10498WAT     H131736   4.665   0.975   6.598
10498WAT     H231737   4.763   0.888   6.694
10499WAT      O31738   1.265   6.493   7.320
10499WAT     H131739   1.187   6.488   7.383
10499WAT     H231740   1.321   6.411   7.330
10500WAT      O31741   5.484   7.689   8.684
10500WAT     H131742   5.536   7.630   8.745
10500WAT     H231743   5.493   7.784   8.715
10501WAT      O31744   9.784   4.727   6.789
10501WAT     H131745   9.825   4.674   6.863
10501WAT     H231746   9.749   4.814   6.825
10502WAT      O31747   1.921   9.493   5.099
10502WAT     H131748   1.825   9.466   5.091
10502WAT     H231749   1.927   9.591   5.115
10503WAT      O31750   3.976   2.556   6.852
10503WAT     H131751   3.925   2.558   6.765
10503WAT     H231752   3.970   2.646   6.896
10504WAT      O31753   9.751   1.506   9.285
10504WAT     H131754   9.734   1.591   9.335
10504WAT     H231755   9.665   1.456   9.274
10505WAT      O31756   6.086   6.702   4.241
10505WAT     H131757   6.131   6.786   4.209
10505WAT     H231758   5.991   6.702   4.211
10506WAT      O31759   9.234   3.365   8.374
10506WAT     H131760   9.292   3.378   8.293
10506WAT     H231761   9.139   3.353   8.345
10507WAT      O31762   8.477   5.239   3.704
10507WAT     H131763   8.380   5.261   3.717
10507WAT     H231764   8.534   5.310   3.745
10508WAT      O31765   7.040   5.135   7.281
10508WAT     H131766   7.024   5.059   7.344
10508WAT     H231767   6.953   5.174   7.252
10509WAT      O31768   5.965   7.534   7.984
10509WAT     H131769   5.877   7.527   7.938
10509WAT     H231770   5.984   7.630   8.005
10510WAT      O31771   7.351   4.606   2.756
10510WAT     H131772   7.268   4.629   2.806
10510WAT     H231773   7.342   4.515   2.716
10511WAT      O31774   6.397   3.977   2.575
10511WAT     H131775   6.339   3.942   2.649
10511WAT     H231776   6.410   4.075   2.586
10512WAT      O31777   6.462   1.401   8.968
10512WAT     H131778   6.469   1.360   8.877
10512WAT     H231779   6.377   1.373   9.011
10513WAT      O31780   2.482   4.204   1.469
10513WAT     H131781   2.432   4.234   1.550
10513WAT     H231782   2.443   4.247   1.388
10514WAT      O31783   6.784   6.960   9.833
10514WAT     H131784   6.776   6.935   9.736
10514WAT     H231785   6.871   6.927   9.869
10515WAT      O31786   5.581   7.166   8.139
10515WAT     H131787   5.548   7.072   8.138
10515WAT     H231788   5.543   7.216   8.062
10516WAT      O31789   8.770   5.659   4.999
10516WAT     H131790   8.817   5.744   4.974
10516WAT     H231791   8.837   5.586   5.009
10517WAT      O31792   3.955   1.502   8.473
10517WAT     H131793   4.014   1.567   8.520
10517WAT     H231794   3.962   1.413   8.516
10518WAT      O31795   9.830   4.608   5.895
10518WAT     H131796   9.911   4.618   5.952
10518WAT     H231797   9.856   4.600   5.799
10519WAT      O31798   3.067   2.068   4.409
10519WAT     H131799   3.100   1.977   4.383
10519WAT     H231800   3.004   2.102   4.339
10520WAT      O31801   7.959   7.183   9.766
10520WAT     H131802   7.928   7.259   9.824
10520WAT     H231803   8.053   7.199   9.738
10521WAT      O31804   6.372   5.204   6.488
10521WAT     H131805   6.279   5.235   6.467
10521WAT     H231806   6.414   5.267   6.553
10522WAT      O31807   5.748   3.142   0.099
10522WAT     H131808   5.763   3.064   0.160
10522WAT     H231809   5.734   3.225   0.154
10523WAT      O31810   9.822   3.970   2.725
10523WAT     H131811   9.893   3.966   2.654
10523WAT     H231812   9.850   4.033   2.797
10524WAT      O31813   5.512   7.690   2.961
10524WAT     H131814   5.471   7.678   2.870
10524WAT     H231815   5.595   7.744   2.953
10525WAT      O31816   8.621   1.726   1.278
10525WAT     H131817   8.677   1.721   1.360
10525WAT     H231818   8.541   1.667   1.288
10526WAT      O31819   5.252   5.302   5.528
10526WAT     H131820   5.207   5.272   5.444
10526WAT     H231821   5.285   5.396   5.517
10527WAT      O31822   7.931   6.062   2.412
10527WAT     H131823   8.012   6.041   2.467
10527WAT     H231824   7.898   6.153   2.435
10528WAT      O31825   0.753   2.194   5.087
10528WAT     H131826   0.695   2.240   5.154
10528WAT     H231827   0.849   2.207   5.113
10529WAT      O31828   3.438   1.163   6.150
10529WAT     H131829   3.438   1.134   6.054
10529WAT     H231830   3.513   1.227   6.164
10530WAT      O31831   2.671   2.289   3.716
10530WAT     H131832   2.678   2.368   3.655
10530WAT     H231833   2.732   2.216   3.683
10531WAT      O31834   9.538   5.488   0.908
10531WAT     H131835   9.466   5.535   0.960
10531WAT     H231836   9.569   5.408   0.959
10532WAT      O31837   0.358   6.404   5.278
10532WAT     H131838   0.360   6.502   5.298
10532WAT     H231839   0.393   6.353   5.357
10533WAT      O31840   9.533   3.125   2.691
10533WAT     H131841   9.441   3.093   2.670
10533WAT     H231842   9.533   3.177   2.776
10534WAT      O31843   1.253   9.075   0.902
10534WAT     H131844   1.243   9.174   0.903
10534WAT     H231845   1.230   9.038   0.992
10535WAT      O31846   8.337   7.281   3.147
10535WAT     H131847   8.316   7.186   3.170
10535WAT     H231848   8.320   7.339   3.227
10536WAT      O31849   0.834   8.518   6.910
10536WAT     H131850   0.883   8.595   6.951
10536WAT     H231851   0.736   8.530   6.922
10537WAT      O31852   1.988   8.399   0.136
10537WAT     H131853   1.931   8.417   0.056
10537WAT     H231854   1.974   8.470   0.204
10538WAT      O31855   2.206   5.311   2.295
10538WAT     H131856   2.210   5.280   2.200
10538WAT     H231857   2.255   5.247   2.354
10539WAT      O31858   2.082   3.763   7.104
10539WAT     H131859   2.075   3.791   7.008
10539WAT     H231860   2.163   3.705   7.116
10540WAT      O31861   1.228   0.974   0.828
10540WAT     H131862   1.327   0.989   0.819
10540WAT     H231863   1.179   1.048   0.783
10541WAT      O31864   5.992   4.949   9.638
10541WAT     H131865   5.941   5.024   9.595
10541WAT     H231866   5.952   4.929   9.727
10542WAT      O31867   5.893   4.067   7.453
10542WAT     H131868   5.836   4.149   7.452
10542WAT     H231869   5.885   4.019   7.366
10543WAT      O31870   6.483   4.200   5.688
10543WAT     H131871   6.423   4.133   5.732
10543WAT     H231872   6.562   4.153   5.649
10544WAT      O31873   6.129   8.218   8.980
10544WAT     H131874   6.079   8.304   8.996
10544WAT     H231875   6.219   8.223   9.025
10545WAT      O31876   6.904   8.151   5.732
10545WAT     H131877   6.862   8.081   5.789
10545WAT     H231878   6.832   8.208   5.691
10546WAT      O31879   8.861   8.840   4.361
10546WAT     H131880   8.788   8.894   4.320
10546WAT     H231881   8.851   8.745   4.334
10547WAT      O31882   2.401  -0.002   2.333
10547WAT     H131883   2.470  -0.001   2.261
10547WAT     H231884   2.345   0.081   2.326
10548WAT      O31885   4.654   8.271   3.376
10548WAT     H131886   4.673   8.258   3.473
10548WAT     H231887   4.685   8.361   3.347
10549WAT      O31888   9.601   7.978   8.620
10549WAT     H131889   9.522   7.916   8.631
10549WAT     H231890   9.649   7.955   8.535
10550WAT      O31891   8.922   7.073   1.158
10550WAT     H131892   8.846   7.049   1.098
10550WAT     H231893   8.984   6.995   1.165
10551WAT      O31894   7.293   2.862   1.409
10551WAT     H131895   7.204   2.838   1.370
10551WAT     H231896   7.292   2.958   1.438
10552WAT      O31897   7.513   7.547   8.886
10552WAT     H131898   7.535   7.449   8.890
10552WAT     H231899   7.585   7.596   8.837
10553WAT      O31900   7.669   1.401   6.561
10553WAT     H131901   7.631   1.448   6.482
10553WAT     H231902   7.662   1.460   6.642
10554WAT      O31903   0.051   7.563   8.098
10554WAT     H131904   0.111   7.559   8.178
10554WAT     H231905  -0.004   7.646   8.102
10555WAT      O31906   8.966   4.284   4.294
10555WAT     H131907   9.054   4.238   4.286
10555WAT     H231908   8.902   4.226   4.344
10556WAT      O31909   2.694   7.135   4.471
10556WAT     H131910   2.597   7.159   4.477
10556WAT     H231911   2.749   7.218   4.481
10557WAT      O31912   3.393   1.906   1.900
10557WAT     H131913   3.362   1.937   1.810
10557WAT     H231914   3.464   1.837   1.888
10558WAT      O31915   7.723   7.618   3.479
10558WAT     H131916   7.773   7.640   3.562
10558WAT     H231917   7.624   7.624   3.496
10559WAT      O31918   9.554   8.053   6.159
10559WAT     H131919   9.467   8.037   6.206
10559WAT     H231920   9.617   8.099   6.222
10560WAT      O31921   9.432   3.743   3.158
10560WAT     H131922   9.361   3.766   3.092
10560WAT     H231923   9.390   3.697   3.237
10561WAT      O31924   7.767   9.613   7.232
10561WAT     H131925   7.670   9.601   7.251
10561WAT     H231926   7.811   9.662   7.307
10562WAT      O31927   9.555   2.923   3.940
10562WAT     H131928   9.640   2.875   3.963
10562WAT     H231929   9.575   3.019   3.920
10563WAT      O31930   1.728   4.129   5.833
10563WAT     H131931   1.652   4.191   5.814
10563WAT     H231932   1.787   4.169   5.902
10564WAT      O31933   5.886   4.215   2.366
10564WAT     H131934   5.787   4.209   2.367
10564WAT     H231935   5.925   4.130   2.403
10565WAT      O31936   5.516   4.557   7.106
10565WAT     H131937   5.428   4.511   7.114
10565WAT     H231938   5.544   4.559   7.010
10566WAT      O31939   5.593   3.188   8.293
10566WAT     H131940   5.548   3.227   8.373
10566WAT     H231941   5.525   3.165   8.224
10567WAT      O31942   0.587   1.005   8.220
10567WAT     H131943   0.683   0.988   8.242
10567WAT     H231944   0.547   0.922   8.181
10568WAT      O31945   4.685   5.164   6.008
10568WAT     H131946   4.740   5.237   6.046
10568WAT     H231947   4.744   5.097   5.963
10569WAT      O31948   0.167   2.725   1.960
10569WAT     H131949   0.194   2.674   1.878
10569WAT     H231950   0.195   2.675   2.042
10570WAT      O31951   9.863   0.550   6.574
10570WAT     H131952   9.878   0.546   6.673
10570WAT     H231953   9.940   0.596   6.530
10571WAT      O31954   6.324   7.216   9.784
10571WAT     H131955   6.318   7.300   9.728
10571WAT     H231956   6.415   7.210   9.825
10572WAT      O31957   6.463   4.333   5.032
10572WAT     H131958   6.562   4.320   5.040
10572WAT     H231959   6.435   4.408   5.092
10573WAT      O31960   5.461   1.332   0.821
10573WAT     H131961   5.414   1.418   0.840
10573WAT     H231962   5.400   1.272   0.769
10574WAT      O31963   1.953   7.523   8.077
10574WAT     H131964   2.028   7.480   8.027
10574WAT     H231965   1.930   7.610   8.033
10575WAT      O31966   7.720   0.774   4.053
10575WAT     H131967   7.689   0.797   4.146
10575WAT     H231968   7.812   0.811   4.039
10576WAT      O31969   3.581   4.161   2.557
10576WAT     H131970   3.567   4.253   2.522
10576WAT     H231971   3.636   4.108   2.493
10577WAT      O31972   3.071   7.229   9.349
10577WAT     H131973   3.061   7.290   9.270
10577WAT     H231974   3.030   7.272   9.429
10578WAT      O31975   5.154   9.481   4.025
10578WAT     H131976   5.200   9.406   4.071
10578WAT     H231977   5.065   9.452   3.992
10579WAT      O31978   8.404   5.856   4.847
10579WAT     H131979   8.474   5.904   4.794
10579WAT     H231980   8.346   5.923   4.895
10580WAT      O31981   4.621   5.030   0.509
10580WAT     H131982   4.643   4.934   0.493
10580WAT     H231983   4.640   5.053   0.605
10581WAT      O31984   5.983   2.823   6.384
10581WAT     H131985   5.991   2.857   6.478
10581WAT     H231986   5.987   2.723   6.385
10582WAT      O31987   6.908   2.135   4.595
10582WAT     H131988   6.892   2.233   4.588
10582WAT     H231989   6.959   2.116   4.680
10583WAT      O31990   2.937   1.088   6.992
10583WAT     H131991   2.962   1.133   7.078
10583WAT     H231992   2.844   1.052   6.999
10584WAT      O31993   7.089   1.294   7.355
10584WAT     H131994   7.012   1.245   7.395
10584WAT     H231995   7.106   1.377   7.407
10585WAT      O31996   1.869   2.484   7.501
10585WAT     H131997   1.816   2.477   7.585
10585WAT     H231998   1.929   2.564   7.506
10586WAT      O31999   3.760   6.167   0.128
10586WAT     H132000   3.854   6.163   0.096
10586WAT     H232001   3.739   6.259   0.161
10587WAT      O32002   0.310   9.168   0.416
10587WAT     H132003   0.239   9.210   0.472
10587WAT     H232004   0.400   9.193   0.452
10588WAT      O32005   1.471   3.038   7.476
10588WAT     H132006   1.395   2.973   7.483
10588WAT     H232007   1.473   3.095   7.558
10589WAT      O32008   3.495   7.738   7.928
10589WAT     H132009   3.463   7.696   7.843
10589WAT     H232010   3.443   7.821   7.945
10590WAT      O32011   8.754   8.377   3.655
10590WAT     H132012   8.835   8.371   3.597
10590WAT     H232013   8.730   8.285   3.688
10591WAT      O32014   6.836   7.905   5.842
10591WAT     H132015   6.857   7.908   5.940
10591WAT     H232016   6.842   7.810   5.810
10592WAT      O32017   7.814   2.861   1.676
10592WAT     H132018   7.755   2.832   1.601
10592WAT     H232019   7.859   2.947   1.653
10593WAT      O32020   0.845   8.511   0.372
10593WAT     H132021   0.914   8.443   0.398
10593WAT     H232022   0.863   8.545   0.280
10594WAT      O32023   6.779   8.750   3.461
10594WAT     H132024   6.698   8.745   3.519
10594WAT     H232025   6.762   8.700   3.376
10595WAT      O32026   2.934   7.949   8.137
10595WAT     H132027   2.934   7.934   8.236
10595WAT     H232028   2.921   8.046   8.117
10596WAT      O32029   3.354   2.511   8.065
10596WAT     H132030   3.374   2.414   8.048
10596WAT     H232031   3.286   2.543   8.000
10597WAT      O32032   7.275   5.001   5.678
10597WAT     H132033   7.374   5.011   5.669
10597WAT     H232034   7.254   4.911   5.716
10598WAT      O32035   8.856   1.085   1.454
10598WAT     H132036   8.895   1.001   1.415
10598WAT     H232037   8.765   1.100   1.416
10599WAT      O32038   0.262   8.440   6.856
10599WAT     H132039   0.348   8.393   6.838
10599WAT     H232040   0.199   8.378   6.901
10600WAT      O32041   4.115   8.432   6.830
10600WAT     H132042   4.031   8.421   6.778
10600WAT     H232043   4.115   8.370   6.909
10601WAT      O32044   7.852   0.944   3.115
10601WAT     H132045   7.869   0.965   3.018
10601WAT     H232046   7.816   1.025   3.161
10602WAT      O32047   5.015   9.655   1.298
10602WAT     H132048   5.072   9.644   1.216
10602WAT     H232049   5.054   9.601   1.372
10603WAT      O32050   9.528   8.664   7.342
10603WAT     H132051   9.463   8.644   7.269
10603WAT     H232052   9.513   8.600   7.418
10604WAT      O32053   4.702   8.457   0.532
10604WAT     H132054   4.719   8.404   0.449
10604WAT     H232055   4.606   8.448   0.559
10605WAT      O32056   2.894   2.582   3.880
10605WAT     H132057   2.806   2.623   3.854
10605WAT     H232058   2.891   2.484   3.861
10606WAT      O32059   8.599   4.403   0.375
10606WAT     H132060   8.608   4.303   0.372
10606WAT     H232061   8.683   4.445   0.344
10607WAT      O32062   8.972   3.961   3.885
10607WAT     H132063   8.931   4.012   3.961
10607WAT     H232064   8.914   3.884   3.861
10608WAT      O32065   3.959   7.871   5.251
10608WAT     H132066   3.901   7.798   5.287
10608WAT     H232067   4.003   7.919   5.327
10609WAT      O32068   7.861   3.844   5.252
10609WAT     H132069   7.856   3.745   5.238
10609WAT     H232070   7.835   3.892   5.169
10610WAT      O32071   7.560   4.452   7.957
10610WAT     H132072   7.588   4.356   7.969
10610WAT     H232073   7.460   4.458   7.958
10611WAT      O32074   0.795   4.771   4.392
10611WAT     H132075   0.815   4.679   4.358
10611WAT     H232076   0.790   4.768   4.492
10612WAT      O32077   3.507   5.467   6.158
10612WAT     H132078   3.602   5.460   6.191
10612WAT     H232079   3.477   5.377   6.125
10613WAT      O32080   9.121   2.864   1.892
10613WAT     H132081   9.168   2.953   1.896
10613WAT     H232082   9.134   2.816   1.978
10614WAT      O32083   9.566   5.738   7.487
10614WAT     H132084   9.497   5.809   7.501
10614WAT     H232085   9.527   5.664   7.431
10615WAT      O32086   9.374   4.850   7.690
10615WAT     H132087   9.455   4.827   7.637
10615WAT     H232088   9.339   4.767   7.735
10616WAT      O32089   6.705   7.029   8.278
10616WAT     H132090   6.655   7.044   8.192
10616WAT     H232091   6.781   6.966   8.261
10617WAT      O32092   0.698   1.196   7.714
10617WAT     H132093   0.693   1.294   7.734
10617WAT     H232094   0.621   1.149   7.757
10618WAT      O32095   0.246   5.948   3.672
10618WAT     H132096   0.221   5.914   3.582
10618WAT     H232097   0.340   5.982   3.670
10619WAT      O32098   8.337   4.901   3.691
10619WAT     H132099   8.245   4.867   3.712
10619WAT     H232100   8.335   4.953   3.606
10620WAT      O32101   4.318   1.090   4.603
10620WAT     H132102   4.411   1.122   4.623
10620WAT     H232103   4.265   1.090   4.688
10621WAT      O32104   1.052   5.168   4.480
10621WAT     H132105   1.152   5.165   4.490
10621WAT     H232106   1.023   5.094   4.420
10622WAT      O32107   4.472   5.613   6.750
10622WAT     H132108   4.505   5.519   6.764
10622WAT     H232109   4.541   5.664   6.699
10623WAT      O32110   2.727   3.104   5.827
10623WAT     H132111   2.791   3.093   5.751
10623WAT     H232112   2.663   3.177   5.806
10624WAT      O32113   7.037   2.270   7.179
10624WAT     H132114   7.089   2.333   7.121
10624WAT     H232115   7.011   2.189   7.127
10625WAT      O32116   5.574   8.420   6.882
10625WAT     H132117   5.674   8.415   6.879
10625WAT     H232118   5.536   8.367   6.806
10626WAT      O32119   7.241   2.198   5.026
10626WAT     H132120   7.314   2.208   4.960
10626WAT     H232121   7.269   2.137   5.099
10627WAT      O32122   1.641   0.084   9.328
10627WAT     H132123   1.632  -0.014   9.347
10627WAT     H232124   1.732   0.115   9.353
10628WAT      O32125   7.592   5.813   3.161
10628WAT     H132126   7.559   5.785   3.071
10628WAT     H232127   7.535   5.888   3.196
10629WAT      O32128   5.747   8.432   9.067
10629WAT     H132129   5.846   8.428   9.079
10629WAT     H232130   5.709   8.340   9.064
10630WAT      O32131   6.583   2.030   6.720
10630WAT     H132132   6.621   2.021   6.628
10630WAT     H232133   6.483   2.029   6.715
10631WAT      O32134   0.883   6.723   9.665
10631WAT     H132135   0.943   6.762   9.735
10631WAT     H232136   0.851   6.634   9.695
10632WAT      O32137   8.259   5.508   9.788
10632WAT     H132138   8.342   5.494   9.735
10632WAT     H232139   8.249   5.434   9.855
10633WAT      O32140   6.732   5.127   8.097
10633WAT     H132141   6.739   5.063   8.020
10633WAT     H232142   6.677   5.087   8.170
10634WAT      O32143   7.479   4.389   4.750
10634WAT     H132144   7.478   4.325   4.674
10634WAT     H232145   7.559   4.449   4.741
10635WAT      O32146   5.928   5.372   7.299
10635WAT     H132147   5.858   5.443   7.294
10635WAT     H232148   5.948   5.350   7.395
10636WAT      O32149   2.062   4.501   0.755
10636WAT     H132150   2.027   4.476   0.845
10636WAT     H232151   2.083   4.599   0.753
10637WAT      O32152   2.129   6.897   8.896
10637WAT     H132153   2.107   6.816   8.951
10637WAT     H232154   2.082   6.976   8.933
10638WAT      O32155   2.995   7.424   9.108
10638WAT     H132156   2.900   7.440   9.083
10638WAT     H232157   3.037   7.360   9.043
10639WAT      O32158   2.226   4.586   1.098
10639WAT     H132159   2.261   4.505   1.050
10639WAT     H232160   2.190   4.559   1.188
10640WAT      O32161   1.877   1.847   2.587
10640WAT     H132162   1.803   1.851   2.520
10640WAT     H232163   1.962   1.878   2.545
10641WAT      O32164   7.320   9.018   5.569
10641WAT     H132165   7.413   9.036   5.602
10641WAT     H232166   7.325   8.990   5.473
10642WAT      O32167   7.103   8.426   5.172
10642WAT     H132168   7.148   8.361   5.234
10642WAT     H232169   7.060   8.498   5.226
10643WAT      O32170   7.284   8.645   7.823
10643WAT     H132171   7.348   8.721   7.835
10643WAT     H232172   7.216   8.670   7.754
10644WAT      O32173   6.517   6.582   2.756
10644WAT     H132174   6.435   6.621   2.797
10644WAT     H232175   6.538   6.629   2.671
10645WAT      O32176   2.262   0.308   0.875
10645WAT     H132177   2.201   0.254   0.817
10645WAT     H232178   2.264   0.268   0.967
10646WAT      O32179   5.381   1.858   3.630
10646WAT     H132180   5.353   1.765   3.604
10646WAT     H232181   5.468   1.853   3.679
10647WAT      O32182   2.736   6.713   4.598
10647WAT     H132183   2.705   6.672   4.683
10647WAT     H232184   2.791   6.794   4.618
10648WAT      O32185   0.388   2.940   8.153
10648WAT     H132186   0.297   2.940   8.113
10648WAT     H232187   0.392   3.010   8.225
10649WAT      O32188   4.946   3.051   3.995
10649WAT     H132189   4.990   3.052   4.085
10649WAT     H232190   4.906   2.962   3.979
10650WAT      O32191   1.406   2.484   0.127
10650WAT     H132192   1.316   2.527   0.131
10650WAT     H232193   1.440   2.487   0.032
10651WAT      O32194   8.685   6.316   8.053
10651WAT     H132195   8.643   6.229   8.077
10651WAT     H232196   8.709   6.316   7.956
10652WAT      O32197   6.603   6.197   4.266
10652WAT     H132198   6.662   6.216   4.344
10652WAT     H232199   6.599   6.099   4.250
10653WAT      O32200   1.974   6.649   0.759
10653WAT     H132201   1.993   6.552   0.770
10653WAT     H232202   1.879   6.662   0.733
10654WAT      O32203   0.931   1.597   8.066
10654WAT     H132204   0.983   1.586   7.981
10654WAT     H232205   0.840   1.557   8.055
10655WAT      O32206   9.623   3.057   3.587
10655WAT     H132207   9.545   3.098   3.541
10655WAT     H232208   9.647   3.110   3.668
10656WAT      O32209   4.716   1.800   8.694
10656WAT     H132210   4.630   1.848   8.711
10656WAT     H232211   4.697   1.712   8.651
10657WAT      O32212   1.315   2.059   8.922
10657WAT     H132213   1.252   2.047   8.845
10657WAT     H232214   1.321   1.974   8.974
10658WAT      O32215   9.284   0.784   5.700
10658WAT     H132216   9.333   0.823   5.777
10658WAT     H232217   9.190   0.762   5.728
10659WAT      O32218   1.414   2.271   3.890
10659WAT     H132219   1.454   2.179   3.888
10659WAT     H232220   1.319   2.266   3.858
10660WAT      O32221   7.391   5.117   2.602
10660WAT     H132222   7.396   5.019   2.583
10660WAT     H232223   7.346   5.132   2.690
10661WAT      O32224   4.981   6.302   7.562
10661WAT     H132225   4.939   6.271   7.477
10661WAT     H232226   4.910   6.314   7.632
10662WAT      O32227   0.547   8.485   2.673
10662WAT     H132228   0.570   8.395   2.710
10662WAT     H232229   0.625   8.522   2.623
10663WAT      O32230   4.338   7.975   6.523
10663WAT     H132231   4.336   8.014   6.615
10663WAT     H232232   4.421   8.006   6.475
10664WAT      O32233   9.781   1.961   6.066
10664WAT     H132234   9.790   1.866   6.094
10664WAT     H232235   9.862   1.989   6.014
10665WAT      O32236   1.663   1.474   9.191
10665WAT     H132237   1.633   1.417   9.115
10665WAT     H232238   1.701   1.559   9.157
10666WAT      O32239   6.366   7.512   0.039
10666WAT     H132240   6.454   7.517  -0.008
10666WAT     H232241   6.365   7.432   0.100
10667WAT      O32242   3.826   5.726   1.839
10667WAT     H132243   3.727   5.739   1.835
10667WAT     H232244   3.863   5.774   1.919
10668WAT      O32245   9.047   4.386   8.000
10668WAT     H132246   8.953   4.355   8.012
10668WAT     H232247   9.050   4.454   7.926
10669WAT      O32248   4.562   3.388   9.556
10669WAT     H132249   4.511   3.471   9.532
10669WAT     H232250   4.529   3.352   9.643
10670WAT      O32251   1.841   2.021   7.478
10670WAT     H132252   1.865   1.976   7.564
10670WAT     H232253   1.744   2.008   7.460
10671WAT      O32254   3.703   7.150   4.585
10671WAT     H132255   3.709   7.249   4.575
10671WAT     H232256   3.768   7.106   4.523
10672WAT      O32257   7.572   3.633   3.332
10672WAT     H132258   7.546   3.707   3.271
10672WAT     H232259   7.659   3.594   3.301
10673WAT      O32260   4.969   1.485   5.232
10673WAT     H132261   4.978   1.487   5.332
10673WAT     H232262   4.971   1.578   5.197
10674WAT      O32263   3.755   6.700   2.036
10674WAT     H132264   3.752   6.659   1.945
10674WAT     H232265   3.815   6.780   2.035
10675WAT      O32266   2.373   5.847   7.432
10675WAT     H132267   2.313   5.769   7.417
10675WAT     H232268   2.456   5.836   7.378
10676WAT      O32269   3.092   2.106   9.348
10676WAT     H132270   3.185   2.072   9.366
10676WAT     H232271   3.097   2.202   9.322
10677WAT      O32272   5.814   7.329   1.626
10677WAT     H132273   5.832   7.259   1.556
10677WAT     H232274   5.901   7.357   1.667
10678WAT      O32275   5.126   7.404   5.332
10678WAT     H132276   5.183   7.420   5.413
10678WAT     H232277   5.032   7.431   5.351
10679WAT      O32278   6.316   6.798   2.619
10679WAT     H132279   6.272   6.864   2.680
10679WAT     H232280   6.248   6.758   2.558
10680WAT      O32281   3.797   3.990   2.456
10680WAT     H132282   3.877   3.969   2.511
10680WAT     H232283   3.816   4.071   2.400
10681WAT      O32284   4.080   7.566   7.674
10681WAT     H132285   4.012   7.534   7.740
10681WAT     H232286   4.172   7.552   7.710
10682WAT      O32287   2.719   7.615   9.043
10682WAT     H132288   2.680   7.648   9.129
10682WAT     H232289   2.653   7.557   8.996
10683WAT      O32290   4.461   1.136   9.739
10683WAT     H132291   4.415   1.201   9.678
10683WAT     H232292   4.393   1.079   9.784
10684WAT      O32293   7.345   3.463   3.282
10684WAT     H132294   7.374   3.367   3.291
10684WAT     H232295   7.418   3.523   3.314
10685WAT      O32296   1.964   0.409   5.438
10685WAT     H132297   1.909   0.328   5.419
10685WAT     H232298   2.057   0.381   5.462
10686WAT      O32299   3.975   9.413   4.208
10686WAT     H132300   3.990   9.366   4.295
10686WAT     H232301   3.887   9.386   4.170
10687WAT      O32302   5.393   8.624   1.772
10687WAT     H132303   5.317   8.593   1.714
10687WAT     H232304   5.476   8.632   1.717
10688WAT      O32305   2.858   1.082   6.464
10688WAT     H132306   2.919   1.161   6.457
10688WAT     H232307   2.886   1.025   6.541
10689WAT      O32308   0.919   2.137   8.364
10689WAT     H132309   0.855   2.062   8.346
10689WAT     H232310   1.011   2.099   8.378
10690WAT      O32311   7.672   8.864   0.388
10690WAT     H132312   7.684   8.871   0.487
10690WAT     H232313   7.639   8.773   0.365
10691WAT      O32314   2.816   8.376   4.781
10691WAT     H132315   2.834   8.305   4.714
10691WAT     H232316   2.800   8.463   4.734
10692WAT      O32317   1.181   7.251   7.513
10692WAT     H132318   1.220   7.168   7.552
10692WAT     H232319   1.110   7.228   7.447
10693WAT      O32320   1.725   2.753   5.312
10693WAT     H132321   1.670   2.679   5.351
10693WAT     H232322   1.768   2.805   5.385
10694WAT      O32323   1.891   4.779   7.566
10694WAT     H132324   1.964   4.832   7.522
10694WAT     H232325   1.879   4.692   7.519
10695WAT      O32326   3.222   7.395   1.752
10695WAT     H132327   3.283   7.442   1.816
10695WAT     H232328   3.166   7.329   1.802
10696WAT      O32329   7.037   0.714   0.408
10696WAT     H132330   7.126   0.672   0.391
10696WAT     H232331   6.975   0.646   0.447
10697WAT      O32332   5.671   6.099   7.339
10697WAT     H132333   5.688   6.135   7.431
10697WAT     H232334   5.579   6.125   7.309
10698WAT      O32335   9.843   8.052   1.612
10698WAT     H132336   9.828   7.977   1.676
10698WAT     H232337   9.830   8.019   1.519
10699WAT      O32338   7.193   4.874   9.772
10699WAT     H132339   7.214   4.968   9.798
10699WAT     H232340   7.224   4.812   9.844
10700WAT      O32341   9.613   2.239   2.921
10700WAT     H132342   9.599   2.284   3.010
10700WAT     H232343   9.707   2.205   2.916
10701WAT      O32344   3.301   7.807   1.586
10701WAT     H132345   3.350   7.730   1.628
10701WAT     H232346   3.203   7.789   1.587
10702WAT      O32347   3.847   0.136   0.568
10702WAT     H132348   3.857   0.204   0.495
10702WAT     H232349   3.877   0.047   0.534
10703WAT      O32350   3.524   2.017   2.621
10703WAT     H132351   3.452   2.085   2.612
10703WAT     H232352   3.593   2.031   2.550
10704WAT      O32353   5.514   6.245   1.988
10704WAT     H132354   5.434   6.187   2.001
10704WAT     H232355   5.595   6.197   2.020
10705WAT      O32356   2.647   3.432   3.742
10705WAT     H132357   2.558   3.474   3.726
10705WAT     H232358   2.719   3.499   3.725
10706WAT      O32359   2.618   5.918   7.964
10706WAT     H132360   2.618   5.920   7.864
10706WAT     H232361   2.646   5.828   7.996
10707WAT      O32362   5.805   8.498   7.414
10707WAT     H132363   5.763   8.420   7.369
10707WAT     H232364   5.866   8.467   7.487
10708WAT      O32365   2.128   9.794   4.878
10708WAT     H132366   2.103   9.891   4.869
10708WAT     H232367   2.046   9.738   4.873
10709WAT      O32368   3.226   5.415   3.461
10709WAT     H132369   3.192   5.374   3.376
10709WAT     H232370   3.319   5.384   3.478
10710WAT      O32371   6.012   9.729   6.668
10710WAT     H132372   6.026   9.798   6.738
10710WAT     H232373   5.915   9.726   6.644
10711WAT      O32374   0.198   9.709   2.563
10711WAT     H132375   0.168   9.800   2.591
10711WAT     H232376   0.202   9.704   2.463
10712WAT      O32377   2.202   2.237   0.542
10712WAT     H132378   2.222   2.335   0.547
10712WAT     H232379   2.118   2.223   0.490
10713WAT      O32380   4.199   4.788   3.876
10713WAT     H132381   4.162   4.880   3.878
10713WAT     H232382   4.226   4.760   3.968
10714WAT      O32383   3.756   5.051   3.181
10714WAT     H132384   3.807   5.083   3.101
10714WAT     H232385   3.696   5.124   3.213
10715WAT      O32386   1.229   9.774   9.447
10715WAT     H132387   1.178   9.854   9.477
10715WAT     H232388   1.272   9.730   9.526
10716WAT      O32389   8.143   0.094   9.722
10716WAT     H132390   8.107   0.175   9.768
10716WAT     H232391   8.103   0.012   9.763
10717WAT      O32392   1.252   9.813   6.147
10717WAT     H132393   1.302   9.727   6.156
10717WAT     H232394   1.307   9.878   6.095
10718WAT      O32395   7.496   4.289   9.248
10718WAT     H132396   7.465   4.311   9.341
10718WAT     H232397   7.435   4.220   9.208
10719WAT      O32398   6.363   9.832   1.583
10719WAT     H132399   6.265   9.847   1.573
10719WAT     H232400   6.379   9.738   1.615
10720WAT      O32401   9.361   9.387   2.774
10720WAT     H132402   9.274   9.422   2.808
10720WAT     H232403   9.430   9.391   2.846
10721WAT      O32404   1.118   8.914   8.419
10721WAT     H132405   1.199   8.863   8.447
10721WAT     H232406   1.078   8.961   8.498
10722WAT      O32407   7.107   5.532   4.424
10722WAT     H132408   7.198   5.549   4.385
10722WAT     H232409   7.109   5.447   4.476
10723WAT      O32410   9.347   3.164   8.935
10723WAT     H132411   9.360   3.207   8.846
10723WAT     H232412   9.375   3.228   9.007
10724WAT      O32413   8.317   1.076   5.580
10724WAT     H132414   8.294   0.994   5.631
10724WAT     H232415   8.306   1.059   5.482
10725WAT      O32416   2.285   4.707   6.821
10725WAT     H132417   2.228   4.738   6.897
10725WAT     H232418   2.269   4.766   6.742
10726WAT      O32419   6.720   8.300   4.395
10726WAT     H132420   6.659   8.275   4.470
10726WAT     H232421   6.675   8.366   4.335
10727WAT      O32422   6.858   0.189   0.206
10727WAT     H132423   6.935   0.252   0.199
10727WAT     H232424   6.885   0.109   0.259
10728WAT      O32425   7.935   1.010   0.383
10728WAT     H132426   7.847   0.997   0.429
10728WAT     H232427   7.997   0.936   0.408
10729WAT      O32428   9.464   5.936   5.797
10729WAT     H132429   9.373   5.968   5.825
10729WAT     H232430   9.503   6.001   5.732
10730WAT      O32431   6.397   0.613   8.955
10730WAT     H132432   6.406   0.644   9.049
10730WAT     H232433   6.432   0.519   8.947
10731WAT      O32434   6.885   0.912   8.517
10731WAT     H132435   6.877   0.886   8.421
10731WAT     H232436   6.794   0.923   8.557
10732WAT      O32437   4.183   1.147   2.150
10732WAT     H132438   4.168   1.069   2.210
10732WAT     H232439   4.274   1.185   2.166
10733WAT      O32440   1.386   5.912   9.650
10733WAT     H132441   1.429   5.965   9.723
10733WAT     H232442   1.346   5.829   9.688
10734WAT      O32443   1.006   9.383   2.276
10734WAT     H132444   1.100   9.391   2.245
10734WAT     H232445   0.960   9.471   2.268
10735WAT      O32446   2.098   6.220   5.681
10735WAT     H132447   2.033   6.147   5.659
10735WAT     H232448   2.070   6.305   5.636
10736WAT      O32449   5.964   1.380   5.834
10736WAT     H132450   5.941   1.462   5.782
10736WAT     H232451   5.906   1.304   5.804
10737WAT      O32452   0.558   9.237   0.560
10737WAT     H132453   0.595   9.310   0.617
10737WAT     H232454   0.626   9.164   0.551
10738WAT      O32455   9.634   0.639   2.641
10738WAT     H132456   9.677   0.637   2.732
10738WAT     H232457   9.535   0.636   2.651
10739WAT      O32458   8.980   3.863   4.755
10739WAT     H132459   9.049   3.861   4.683
10739WAT     H232460   8.979   3.953   4.798
10740WAT      O32461   5.217   0.797   8.305
10740WAT     H132462   5.305   0.758   8.280
10740WAT     H232463   5.229   0.863   8.379
10741WAT      O32464   8.918   6.550   0.488
10741WAT     H132465   8.856   6.594   0.552
10741WAT     H232466   8.954   6.619   0.424
10742WAT      O32467   1.499   3.758   3.676
10742WAT     H132468   1.449   3.720   3.754
10742WAT     H232469   1.597   3.761   3.697
10743WAT      O32470   2.502   8.739   4.460
10743WAT     H132471   2.524   8.646   4.432
10743WAT     H232472   2.426   8.738   4.524
10744WAT      O32473   3.544   2.136   1.669
10744WAT     H132474   3.479   2.063   1.648
10744WAT     H232475   3.495   2.222   1.685
10745WAT      O32476   3.758   2.820   3.882
10745WAT     H132477   3.745   2.758   3.959
10745WAT     H232478   3.805   2.902   3.913
10746WAT      O32479   3.067   2.853   8.050
10746WAT     H132480   3.146   2.806   8.012
10746WAT     H232481   2.984   2.820   8.005
10747WAT      O32482   6.556   5.297   0.801
10747WAT     H132483   6.561   5.211   0.852
10747WAT     H232484   6.532   5.371   0.864
10748WAT      O32485   5.407   5.465   8.476
10748WAT     H132486   5.479   5.528   8.504
10748WAT     H232487   5.448   5.381   8.440
10749WAT      O32488   5.997   6.607   8.606
10749WAT     H132489   5.936   6.567   8.537
10749WAT     H232490   5.998   6.706   8.594
10750WAT      O32491   8.827   6.613   1.105
10750WAT     H132492   8.824   6.584   1.010
10750WAT     H232493   8.828   6.533   1.165
10751WAT      O32494   7.954   7.648   5.024
10751WAT     H132495   7.970   7.740   4.988
10751WAT     H232496   7.888   7.601   4.966
10752WAT      O32497   1.785   3.468   5.709
10752WAT     H132498   1.688   3.488   5.715
10752WAT     H232499   1.834   3.548   5.674
10753WAT      O32500   4.632   2.644   9.682
10753WAT     H132501   4.725   2.611   9.695
10753WAT     H232502   4.605   2.632   9.586
10754WAT      O32503   4.855   6.488   1.318
10754WAT     H132504   4.760   6.468   1.343
10754WAT     H232505   4.915   6.467   1.395
10755WAT      O32506   8.144   5.425   7.452
10755WAT     H132507   8.068   5.473   7.495
10755WAT     H232508   8.112   5.375   7.372
10756WAT      O32509   9.499   2.859   1.883
10756WAT     H132510   9.489   2.951   1.921
10756WAT     H232511   9.488   2.863   1.784
10757WAT      O32512   3.518   1.251   0.920
10757WAT     H132513   3.519   1.199   1.005
10757WAT     H232514   3.423   1.268   0.893
10758WAT      O32515   4.480   5.877   1.841
10758WAT     H132516   4.543   5.841   1.773
10758WAT     H232517   4.477   5.815   1.920
10759WAT      O32518   6.679   9.495   4.592
10759WAT     H132519   6.722   9.451   4.513
10759WAT     H232520   6.717   9.587   4.605
10760WAT      O32521   3.695   9.136   7.164
10760WAT     H132522   3.610   9.158   7.212
10760WAT     H232523   3.714   9.206   7.095
10761WAT      O32524   1.455   1.140   8.640
10761WAT     H132525   1.439   1.044   8.617
10761WAT     H232526   1.376   1.177   8.688
10762WAT      O32527   2.665   9.194   5.782
10762WAT     H132528   2.703   9.236   5.864
10762WAT     H232529   2.568   9.216   5.774
10763WAT      O32530   7.953   3.253   2.824
10763WAT     H132531   8.041   3.299   2.836
10763WAT     H232532   7.962   3.179   2.757
10764WAT      O32533   1.730   7.757   4.111
10764WAT     H132534   1.802   7.780   4.177
10764WAT     H232535   1.768   7.754   4.019
10765WAT      O32536   5.910   6.021   6.073
10765WAT     H132537   6.000   6.040   6.114
10765WAT     H232538   5.912   5.931   6.030
10766WAT      O32539   6.139   2.264   9.708
10766WAT     H132540   6.185   2.238   9.623
10766WAT     H232541   6.189   2.338   9.752
10767WAT      O32542   0.854   9.481   8.511
10767WAT     H132543   0.925   9.436   8.457
10767WAT     H232544   0.896   9.545   8.575
10768WAT      O32545   8.299   6.454   3.032
10768WAT     H132546   8.202   6.435   3.047
10768WAT     H232547   8.318   6.550   3.053
10769WAT      O32548   3.355   2.808   0.052
10769WAT     H132549   3.273   2.792   0.106
10769WAT     H232550   3.415   2.871   0.101
10770WAT      O32551   3.273   8.563   3.566
10770WAT     H132552   3.181   8.558   3.530
10770WAT     H232553   3.332   8.498   3.518
10771WAT      O32554   8.400   9.193   0.878
10771WAT     H132555   8.438   9.142   0.801
10771WAT     H232556   8.404   9.291   0.858
10772WAT      O32557   6.852   3.576   1.027
10772WAT     H132558   6.935   3.576   1.084
10772WAT     H232559   6.824   3.671   1.009
10773WAT      O32560   6.218   4.401   0.772
10773WAT     H132561   6.182   4.459   0.845
10773WAT     H232562   6.155   4.401   0.695
10774WAT      O32563   2.033   8.399   8.057
10774WAT     H132564   2.066   8.320   8.110
10774WAT     H232565   2.110   8.457   8.031
10775WAT      O32566   0.211   3.817   6.041
10775WAT     H132567   0.295   3.766   6.061
10775WAT     H232568   0.235   3.908   6.007
10776WAT      O32569   5.121   2.933   9.135
10776WAT     H132570   5.165   2.844   9.144
10776WAT     H232571   5.154   2.994   9.207
10777WAT      O32572   0.638   0.163   0.469
10777WAT     H132573   0.733   0.187   0.489
10777WAT     H232574   0.635   0.107   0.387
10778WAT      O32575   2.072   2.562   0.508
10778WAT     H132576   2.057   2.536   0.413
10778WAT     H232577   2.090   2.661   0.513
10779WAT      O32578   1.655   9.746   4.765
10779WAT     H132579   1.611   9.693   4.692
10779WAT     H232580   1.602   9.736   4.849
10780WAT      O32581   9.498   3.139   0.635
10780WAT     H132582   9.457   3.048   0.639
10780WAT     H232583   9.595   3.132   0.660
10781WAT      O32584   5.875   3.374   2.114
10781WAT     H132585   5.817   3.442   2.070
10781WAT     H232586   5.933   3.330   2.045
10782WAT      O32587   7.889   9.266   2.236
10782WAT     H132588   7.861   9.335   2.169
10782WAT     H232589   7.816   9.254   2.303
10783WAT      O32590   8.121   0.809   7.590
10783WAT     H132591   8.214   0.831   7.561
10783WAT     H232592   8.108   0.710   7.590
10784WAT      O32593   5.646   4.840   0.406
10784WAT     H132594   5.614   4.784   0.482
10784WAT     H232595   5.569   4.892   0.369
10785WAT      O32596   6.993   8.342   4.396
10785WAT     H132597   7.041   8.255   4.406
10785WAT     H232598   6.895   8.328   4.407
10786WAT      O32599   8.319   6.285   4.891
10786WAT     H132600   8.268   6.200   4.889
10786WAT     H232601   8.265   6.358   4.848
10787WAT      O32602   6.673   1.650   0.946
10787WAT     H132603   6.640   1.629   0.854
10787WAT     H232604   6.752   1.710   0.941
10788WAT      O32605   3.607   1.776   2.307
10788WAT     H132606   3.626   1.747   2.213
10788WAT     H232607   3.652   1.863   2.324
10789WAT      O32608   4.294   4.616   9.162
10789WAT     H132609   4.272   4.683   9.091
10789WAT     H232610   4.231   4.538   9.155
10790WAT      O32611   4.587   1.618   4.150
10790WAT     H132612   4.579   1.583   4.243
10790WAT     H232613   4.616   1.714   4.154
10791WAT      O32614   2.707   4.171   5.793
10791WAT     H132615   2.644   4.248   5.786
10791WAT     H232616   2.717   4.128   5.703
10792WAT      O32617   6.464   1.857   6.965
10792WAT     H132618   6.524   1.858   7.045
10792WAT     H232619   6.472   1.943   6.915
10793WAT      O32620   5.009   8.885   9.198
10793WAT     H132621   5.097   8.876   9.152
10793WAT     H232622   4.949   8.945   9.144
10794WAT      O32623   5.648   9.293   2.131
10794WAT     H132624   5.648   9.251   2.041
10794WAT     H232625   5.743   9.312   2.158
10795WAT      O32626   5.685   3.618   0.890
10795WAT     H132627   5.767   3.653   0.844
10795WAT     H232628   5.703   3.527   0.927
10796WAT      O32629   8.697   5.113   0.408
10796WAT     H132630   8.737   5.135   0.497
10796WAT     H232631   8.695   5.013   0.397
10797WAT      O32632   3.560   1.216   1.991
10797WAT     H132633   3.565   1.225   2.091
10797WAT     H232634   3.638   1.163   1.958
10798WAT      O32635   5.604   7.910   5.874
10798WAT     H132636   5.586   7.996   5.923
10798WAT     H232637   5.520   7.856   5.870
10799WAT      O32638   5.338   2.589   3.653
10799WAT     H132639   5.284   2.508   3.673
10799WAT     H232640   5.415   2.595   3.717
10800WAT      O32641   6.945   3.715   8.608
10800WAT     H132642   6.899   3.802   8.594
10800WAT     H232643   7.039   3.720   8.575
10801WAT      O32644   6.338   7.373   5.941
10801WAT     H132645   6.401   7.396   6.015
10801WAT     H232646   6.251   7.343   5.980
10802WAT      O32647   7.769   6.485   0.568
10802WAT     H132648   7.790   6.410   0.506
10802WAT     H232649   7.839   6.490   0.639
10803WAT      O32650   5.612   4.049   8.883
10803WAT     H132651   5.534   4.072   8.940
10803WAT     H232652   5.635   4.126   8.823
10804WAT      O32653   3.853   0.514   7.056
10804WAT     H132654   3.879   0.605   7.024
10804WAT     H232655   3.935   0.457   7.066
10805WAT      O32656   5.836   6.220   6.550
10805WAT     H132657   5.857   6.318   6.550
10805WAT     H232658   5.848   6.183   6.457
10806WAT      O32659   6.298   4.121   0.778
10806WAT     H132660   6.286   4.219   0.761
10806WAT     H232661   6.338   4.078   0.697
10807WAT      O32662   0.149   2.423   8.003
10807WAT     H132663   0.158   2.324   7.997
10807WAT     H232664   0.149   2.451   8.099
10808WAT      O32665   6.161   9.727   2.036
10808WAT     H132666   6.142   9.695   2.128
10808WAT     H232667   6.260   9.732   2.022
10809WAT      O32668   4.115   5.420   5.579
10809WAT     H132669   4.182   5.419   5.504
10809WAT     H232670   4.068   5.332   5.584
10810WAT      O32671   0.639   6.390   3.158
10810WAT     H132672   0.544   6.421   3.150
10810WAT     H232673   0.680   6.427   3.241
10811WAT      O32674   7.269   7.656   8.969
10811WAT     H132675   7.361   7.619   8.957
10811WAT     H232676   7.247   7.716   8.892
10812WAT      O32677   3.394   0.938   0.924
10812WAT     H132678   3.359   0.954   1.017
10812WAT     H232679   3.361   1.010   0.863
10813WAT      O32680   2.326   1.614   0.862
10813WAT     H132681   2.254   1.544   0.865
10813WAT     H232682   2.295   1.696   0.910
10814WAT      O32683   2.309   6.116   0.190
10814WAT     H132684   2.225   6.126   0.242
10814WAT     H232685   2.290   6.069   0.104
10815WAT      O32686   4.009   4.450   3.259
10815WAT     H132687   3.960   4.477   3.176
10815WAT     H232688   4.062   4.528   3.293
10816WAT      O32689   7.225   0.428   9.507
10816WAT     H132690   7.169   0.498   9.463
10816WAT     H232691   7.249   0.457   9.600
10817WAT      O32692   6.684   4.805   2.410
10817WAT     H132693   6.624   4.751   2.352
10817WAT     H232694   6.752   4.852   2.354
10818WAT      O32695   7.250   6.974   9.751
10818WAT     H132696   7.330   6.954   9.807
10818WAT     H232697   7.253   6.918   9.668
10819WAT      O32698   2.328   7.365   6.911
10819WAT     H132699   2.263   7.385   6.984
10819WAT     H232700   2.382   7.285   6.935
10820WAT      O32701   1.960   7.204   6.744
10820WAT     H132702   1.985   7.160   6.657
10820WAT     H232703   1.885   7.269   6.728
10821WAT      O32704   7.550   6.169   6.117
10821WAT     H132705   7.520   6.077   6.140
10821WAT     H232706   7.618   6.200   6.183
10822WAT      O32707   5.893   5.262   4.258
10822WAT     H132708   5.921   5.166   4.246
10822WAT     H232709   5.973   5.321   4.248
10823WAT      O32710   1.951   3.542   5.221
10823WAT     H132711   1.892   3.542   5.141
10823WAT     H232712   1.939   3.456   5.272
10824WAT      O32713   4.674   5.823   2.909
10824WAT     H132714   4.698   5.847   2.815
10824WAT     H232715   4.631   5.733   2.910
10825WAT      O32716   5.895   0.094   8.729
10825WAT     H132717   5.954   0.154   8.673
10825WAT     H232718   5.935   0.084   8.820
10826WAT      O32719   7.454   1.363   0.398
10826WAT     H132720   7.504   1.370   0.311
10826WAT     H232721   7.372   1.308   0.385
10827WAT      O32722   3.528   9.503   6.293
10827WAT     H132723   3.503   9.491   6.389
10827WAT     H232724   3.476   9.439   6.237
10828WAT      O32725   5.589   0.324   6.357
10828WAT     H132726   5.609   0.265   6.435
10828WAT     H232727   5.498   0.302   6.321
10829WAT      O32728   7.697   5.097   9.413
10829WAT     H132729   7.717   5.194   9.402
10829WAT     H232730   7.617   5.085   9.471
10830WAT      O32731   3.294   1.985   1.659
10830WAT     H132732   3.226   2.055   1.682
10830WAT     H232733   3.261   1.931   1.581
10831WAT      O32734   0.366   2.560   4.321
10831WAT     H132735   0.440   2.597   4.264
10831WAT     H232736   0.284   2.547   4.265
10832WAT      O32737   5.238   3.183   9.059
10832WAT     H132738   5.181   3.116   9.011
10832WAT     H232739   5.303   3.135   9.118
10833WAT      O32740   1.787   5.674   2.948
10833WAT     H132741   1.747   5.654   2.858
10833WAT     H232742   1.882   5.645   2.949
10834WAT      O32743   4.624   9.391   8.770
10834WAT     H132744   4.652   9.400   8.866
10834WAT     H232745   4.677   9.317   8.727
10835WAT      O32746   3.123   2.830   0.200
10835WAT     H132747   3.066   2.780   0.266
10835WAT     H232748   3.064   2.880   0.137
10836WAT      O32749   9.715   9.789   1.466
10836WAT     H132750   9.626   9.773   1.424
10836WAT     H232751   9.781   9.816   1.397
10837WAT      O32752   8.582   3.291   3.266
10837WAT     H132753   8.562   3.253   3.356
10837WAT     H232754   8.654   3.237   3.223
10838WAT      O32755   8.795   1.289   6.505
10838WAT     H132756   8.857   1.364   6.483
10838WAT     H232757   8.847   1.203   6.509
10839WAT      O32758   5.386   8.956   2.065
10839WAT     H132759   5.335   8.978   2.148
10839WAT     H232760   5.483   8.947   2.087
10840WAT      O32761   3.415   7.451   3.819
10840WAT     H132762   3.483   7.525   3.815
10840WAT     H232763   3.345   7.474   3.887
10841WAT      O32764   2.169   9.415   6.763
10841WAT     H132765   2.236   9.402   6.836
10841WAT     H232766   2.082   9.444   6.803
10842WAT      O32767   1.461   7.756   3.791
10842WAT     H132768   1.552   7.714   3.791
10842WAT     H232769   1.444   7.799   3.703
10843WAT      O32770   2.577   9.078   3.829
10843WAT     H132771   2.666   9.115   3.801
10843WAT     H232772   2.548   9.008   3.764
10844WAT      O32773   2.752   2.333   2.172
10844WAT     H132774   2.671   2.279   2.149
10844WAT     H232775   2.731   2.430   2.164
10845WAT      O32776   3.421   2.119   0.104
10845WAT     H132777   3.515   2.133   0.073
10845WAT     H232778   3.411   2.157   0.195
10846WAT      O32779   3.643   6.535   1.337
10846WAT     H132780   3.609   6.450   1.295
10846WAT     H232781   3.706   6.511   1.411
10847WAT      O32782   7.196   8.080   4.996
10847WAT     H132783   7.148   8.135   5.064
10847WAT     H232784   7.133   8.051   4.925
10848WAT      O32785   8.692   8.451   6.682
10848WAT     H132786   8.664   8.543   6.711
10848WAT     H232787   8.678   8.386   6.757
10849WAT      O32788   8.410   0.258   6.931
10849WAT     H132789   8.430   0.237   7.026
10849WAT     H232790   8.403   0.174   6.878
10850WAT      O32791   4.385   2.989   0.002
10850WAT     H132792   4.413   2.970   0.096
10850WAT     H232793   4.381   2.904  -0.050
10851WAT      O32794   8.320   4.838   4.121
10851WAT     H132795   8.323   4.922   4.066
10851WAT     H232796   8.317   4.759   4.060
10852WAT      O32797   9.731   0.317   5.197
10852WAT     H132798   9.721   0.218   5.195
10852WAT     H232799   9.783   0.348   5.117
10853WAT      O32800   3.517   4.498   2.018
10853WAT     H132801   3.451   4.559   1.973
10853WAT     H232802   3.470   4.416   2.050
10854WAT      O32803   3.027   6.604   7.618
10854WAT     H132804   2.969   6.608   7.700
10854WAT     H232805   3.120   6.578   7.645
10855WAT      O32806   4.522   1.308   3.399
10855WAT     H132807   4.552   1.350   3.313
10855WAT     H232808   4.515   1.209   3.386
10856WAT      O32809   3.603   5.123   1.882
10856WAT     H132810   3.623   5.044   1.824
10856WAT     H232811   3.509   5.116   1.917
10857WAT      O32812   6.479   4.478   1.831
10857WAT     H132813   6.495   4.384   1.860
10857WAT     H232814   6.387   4.486   1.793
10858WAT      O32815   7.137   9.624   4.084
10858WAT     H132816   7.144   9.555   4.011
10858WAT     H232817   7.084   9.702   4.051
10859WAT      O32818   2.825   4.293   0.148
10859WAT     H132819   2.878   4.258   0.225
10859WAT     H232820   2.818   4.223   0.077
10860WAT      O32821   2.322   2.480   4.645
10860WAT     H132822   2.294   2.395   4.600
10860WAT     H232823   2.402   2.518   4.599
10861WAT      O32824   0.274   8.686   0.951
10861WAT     H132825   0.213   8.755   0.912
10861WAT     H232826   0.368   8.719   0.949
10862WAT      O32827   5.961   1.774   2.291
10862WAT     H132828   5.871   1.783   2.250
10862WAT     H232829   5.964   1.692   2.348
10863WAT      O32830   3.716   8.682   2.603
10863WAT     H132831   3.733   8.709   2.698
10863WAT     H232832   3.757   8.750   2.541
10864WAT      O32833   1.159   9.154   1.718
10864WAT     H132834   1.213   9.089   1.773
10864WAT     H232835   1.065   9.121   1.711
10865WAT      O32836   8.649   4.085   2.544
10865WAT     H132837   8.605   4.071   2.456
10865WAT     H232838   8.630   4.178   2.576
10866WAT      O32839   0.821   2.099   7.628
10866WAT     H132840   0.875   2.162   7.685
10866WAT     H232841   0.724   2.113   7.646
10867WAT      O32842   3.919   6.516   0.017
10867WAT     H132843   3.984   6.447   0.047
10867WAT     H232844   3.945   6.605   0.055
10868WAT      O32845   7.717   5.454   2.096
10868WAT     H132846   7.789   5.395   2.133
10868WAT     H232847   7.723   5.544   2.138
10869WAT      O32848   0.804   9.676   7.542
10869WAT     H132849   0.718   9.726   7.549
10869WAT     H232850   0.873   9.735   7.500
10870WAT      O32851   0.524   4.857   5.324
10870WAT     H132852   0.487   4.773   5.363
10870WAT     H232853   0.497   4.935   5.379
10871WAT      O32854   4.675   9.039   7.793
10871WAT     H132855   4.748   9.103   7.818
10871WAT     H232856   4.712   8.946   7.790
10872WAT      O32857   8.519   8.722   8.868
10872WAT     H132858   8.459   8.685   8.797
10872WAT     H232859   8.559   8.808   8.836
10873WAT      O32860   2.623   0.244   3.739
10873WAT     H132861   2.559   0.198   3.678
10873WAT     H232862   2.677   0.175   3.788
10874WAT      O32863   2.775   1.051   3.853
10874WAT     H132864   2.697   1.002   3.815
10874WAT     H232865   2.783   1.141   3.810
10875WAT      O32866   3.148   1.940   2.948
10875WAT     H132867   3.067   1.897   2.907
10875WAT     H232868   3.174   1.889   3.030
10876WAT      O32869   1.652   1.964   1.037
10876WAT     H132870   1.582   1.894   1.022
10876WAT     H232871   1.633   2.014   1.121
10877WAT      O32872   7.533   8.131   5.882
10877WAT     H132873   7.575   8.220   5.897
10877WAT     H232874   7.564   8.067   5.952
10878WAT      O32875   7.969   4.117   4.815
10878WAT     H132876   8.017   4.031   4.797
10878WAT     H232877   7.973   4.138   4.913
10879WAT      O32878   2.762   8.204   8.081
10879WAT     H132879   2.716   8.197   7.993
10879WAT     H232880   2.706   8.162   8.152
10880WAT      O32881   6.076   8.016   1.716
10880WAT     H132882   6.166   8.053   1.738
10880WAT     H232883   6.030   7.988   1.801
10881WAT      O32884   4.718   3.238   7.770
10881WAT     H132885   4.736   3.336   7.764
10881WAT     H232886   4.768   3.199   7.847
10882WAT      O32887   3.244   6.695   4.646
10882WAT     H132888   3.178   6.728   4.578
10882WAT     H232889   3.336   6.696   4.605
10883WAT      O32890   9.143   8.229   4.228
10883WAT     H132891   9.236   8.195   4.241
10883WAT     H232892   9.083   8.154   4.202
10884WAT      O32893   4.495   6.255   8.268
10884WAT     H132894   4.526   6.247   8.173
10884WAT     H232895   4.566   6.301   8.322
10885WAT      O32896   6.990   0.656   0.802
10885WAT     H132897   6.997   0.599   0.719
10885WAT     H232898   6.961   0.599   0.879
10886WAT      O32899   4.968   5.849   4.452
10886WAT     H132900   4.922   5.920   4.506
10886WAT     H232901   5.052   5.887   4.413
10887WAT      O32902   6.594   8.522   9.588
10887WAT     H132903   6.657   8.539   9.664
10887WAT     H232904   6.519   8.588   9.591
10888WAT      O32905   9.736   6.585   2.883
10888WAT     H132906   9.643   6.551   2.897
10888WAT     H232907   9.734   6.666   2.825
10889WAT      O32908   8.259   7.759   7.695
10889WAT     H132909   8.331   7.693   7.719
10889WAT     H232910   8.209   7.786   7.777
10890WAT      O32911   1.296   9.130   6.923
10890WAT     H132912   1.273   9.166   7.013
10890WAT     H232913   1.395   9.118   6.916
10891WAT      O32914   6.548   4.216   9.690
10891WAT     H132915   6.563   4.117   9.687
10891WAT     H232916   6.533   4.244   9.785
10892WAT      O32917   0.427   3.428   2.445
10892WAT     H132918   0.334   3.447   2.474
10892WAT     H232919   0.491   3.454   2.517
10893WAT      O32920   3.948   1.178   0.195
10893WAT     H132921   3.889   1.209   0.270
10893WAT     H232922   4.001   1.255   0.160
10894WAT      O32923   5.234   1.936   7.192
10894WAT     H132924   5.325   1.951   7.229
10894WAT     H232925   5.237   1.941   7.092
10895WAT      O32926   6.531   9.116   4.703
10895WAT     H132927   6.588   9.082   4.777
10895WAT     H232928   6.589   9.147   4.627
10896WAT      O32929   6.048   3.306   0.743
10896WAT     H132930   6.147   3.309   0.730
10896WAT     H232931   6.008   3.239   0.680
10897WAT      O32932   0.949   3.506   0.182
10897WAT     H132933   0.862   3.537   0.144
10897WAT     H232934   0.937   3.479   0.277
10898WAT      O32935   0.457   2.410   5.954
10898WAT     H132936   0.427   2.343   5.886
10898WAT     H232937   0.377   2.448   6.001
10899WAT      O32938   5.509   8.292   1.734
10899WAT     H132939   5.482   8.351   1.810
10899WAT     H232940   5.606   8.306   1.714
10900WAT      O32941   4.238   4.106   3.440
10900WAT     H132942   4.274   4.148   3.523
10900WAT     H232943   4.197   4.017   3.462
10901WAT      O32944   6.229   9.324   1.949
10901WAT     H132945   6.262   9.287   1.862
10901WAT     H232946   6.304   9.326   2.015
10902WAT      O32947   1.051   6.265   1.709
10902WAT     H132948   1.058   6.349   1.654
10902WAT     H232949   1.024   6.189   1.651
10903WAT      O32950   1.151   4.761   6.482
10903WAT     H132951   1.074   4.784   6.423
10903WAT     H232952   1.168   4.662   6.478
10904WAT      O32953   5.409   6.964   3.935
10904WAT     H132954   5.494   6.936   3.891
10904WAT     H232955   5.384   6.897   4.005
10905WAT      O32956   6.557   4.971   4.419
10905WAT     H132957   6.495   4.892   4.417
10905WAT     H232958   6.644   4.946   4.376
10906WAT      O32959   5.115   1.029   3.283
10906WAT     H132960   5.029   1.014   3.332
10906WAT     H232961   5.160   1.111   3.318
10907WAT      O32962   2.987   2.334   3.770
10907WAT     H132963   3.073   2.291   3.797
10907WAT     H232964   2.932   2.271   3.716
10908WAT      O32965   5.012   0.452   1.627
10908WAT     H132966   5.014   0.481   1.722
10908WAT     H232967   4.920   0.462   1.590
10909WAT      O32968   5.325   8.662   1.066
10909WAT     H132969   5.420   8.676   1.092
10909WAT     H232970   5.319   8.584   1.004
10910WAT      O32971   5.339   9.666   8.677
10910WAT     H132972   5.357   9.765   8.679
10910WAT     H232973   5.259   9.648   8.620
10911WAT      O32974   8.156   7.084   0.120
10911WAT     H132975   8.095   7.102   0.042
10911WAT     H232976   8.185   7.172   0.159
10912WAT      O32977   3.556   8.082   3.077
10912WAT     H132978   3.486   8.140   3.037
10912WAT     H232979   3.625   8.138   3.122
10913WAT      O32980   5.616   8.938   3.496
10913WAT     H132981   5.624   8.979   3.405
10913WAT     H232982   5.520   8.913   3.512
10914WAT      O32983   8.472   3.074   3.514
10914WAT     H132984   8.393   3.128   3.542
10914WAT     H232985   8.492   3.006   3.585
10915WAT      O32986   2.244   8.329   5.100
10915WAT     H132987   2.168   8.309   5.162
10915WAT     H232988   2.212   8.389   5.027
10916WAT      O32989   5.376   4.086   8.445
10916WAT     H132990   5.324   4.151   8.502
10916WAT     H232991   5.467   4.072   8.486
10917WAT      O32992   8.356   0.328   6.661
10917WAT     H132993   8.283   0.301   6.598
10917WAT     H232994   8.326   0.312   6.755
10918WAT      O32995   8.513   5.565   4.099
10918WAT     H132996   8.435   5.618   4.063
10918WAT     H232997   8.489   5.527   4.188
10919WAT      O32998   0.972   0.424   6.937
10919WAT     H132999   1.035   0.359   6.894
10919WAT     H233000   0.993   0.517   6.905
10920WAT      O33001   5.807   2.602   7.784
10920WAT     H133002   5.796   2.530   7.853
10920WAT     H233003   5.816   2.559   7.693
10921WAT      O33004   5.816   0.143   7.521
10921WAT     H133005   5.874   0.063   7.504
10921WAT     H233006   5.721   0.113   7.534
10922WAT      O33007   0.746   0.188   8.561
10922WAT     H133008   0.803   0.163   8.483
10922WAT     H233009   0.663   0.132   8.560
10923WAT      O33010   8.418   6.344   4.210
10923WAT     H133011   8.476   6.272   4.247
10923WAT     H233012   8.325   6.332   4.244
10924WAT      O33013   7.898   4.064   7.829
10924WAT     H133014   7.897   4.037   7.925
10924WAT     H233015   7.871   3.986   7.773
10925WAT      O33016   6.891   7.001   9.272
10925WAT     H133017   6.854   7.075   9.328
10925WAT     H233018   6.842   6.916   9.292
10926WAT      O33019   2.092   5.255   6.844
10926WAT     H133020   2.016   5.320   6.850
10926WAT     H233021   2.174   5.296   6.886
10927WAT      O33022   6.295   8.138   0.382
10927WAT     H133023   6.266   8.046   0.408
10927WAT     H233024   6.278   8.152   0.284
10928WAT      O33025   6.076   5.091   2.613
10928WAT     H133026   6.037   5.081   2.704
10928WAT     H233027   6.131   5.175   2.608
10929WAT      O33028   0.535   5.916   3.053
10929WAT     H133029   0.585   6.003   3.053
10929WAT     H233030   0.557   5.865   2.970
10930WAT      O33031   9.242   6.064   2.070
10930WAT     H133032   9.316   6.009   2.032
10930WAT     H233033   9.184   6.006   2.127
10931WAT      O33034   8.992   1.856   4.721
10931WAT     H133035   9.020   1.834   4.628
10931WAT     H233036   8.903   1.901   4.720
10932WAT      O33037   7.347   9.284   7.818
10932WAT     H133038   7.286   9.252   7.746
10932WAT     H233039   7.386   9.206   7.866
10933WAT      O33040   0.621   1.091   0.104
10933WAT     H133041   0.538   1.066   0.153
10933WAT     H233042   0.606   1.177   0.055
10934WAT      O33043   0.935   3.077   5.704
10934WAT     H133044   0.844   3.044   5.733
10934WAT     H233045   1.005   3.023   5.750
10935WAT      O33046   6.630   6.608   3.469
10935WAT     H133047   6.647   6.695   3.423
10935WAT     H233048   6.531   6.592   3.474
10936WAT      O33049   9.015   0.618   9.474
10936WAT     H133050   8.968   0.705   9.491
10936WAT     H233051   9.075   0.597   9.551
10937WAT      O33052   5.786   5.753   0.338
10937WAT     H133053   5.687   5.740   0.336
10937WAT     H233054   5.810   5.809   0.417
10938WAT      O33055   8.131   6.379   0.599
10938WAT     H133056   8.132   6.304   0.533
10938WAT     H233057   8.223   6.417   0.609
10939WAT      O33058   3.465   8.528   3.808
10939WAT     H133059   3.412   8.540   3.724
10939WAT     H233060   3.406   8.542   3.887
10940WAT      O33061   8.945   3.908   0.206
10940WAT     H133062   8.854   3.867   0.199
10940WAT     H233063   8.952   3.958   0.292
10941WAT      O33064   8.632   8.318   1.464
10941WAT     H133065   8.695   8.262   1.410
10941WAT     H233066   8.578   8.259   1.523
10942WAT      O33067   5.768   4.504   2.972
10942WAT     H133068   5.840   4.516   2.903
10942WAT     H233069   5.682   4.482   2.927
10943WAT      O33070   7.501   3.138   9.259
10943WAT     H133071   7.552   3.102   9.181
10943WAT     H233072   7.425   3.077   9.279
10944WAT      O33073   2.753   6.596   8.886
10944WAT     H133074   2.732   6.543   8.968
10944WAT     H233075   2.756   6.535   8.807
10945WAT      O33076   8.057   7.430   6.693
10945WAT     H133077   8.101   7.344   6.717
10945WAT     H233078   7.994   7.457   6.765
10946WAT      O33079   1.784   2.944   3.489
10946WAT     H133080   1.879   2.972   3.471
10946WAT     H233081   1.784   2.863   3.547
10947WAT      O33082   4.496   3.169   2.120
10947WAT     H133083   4.422   3.201   2.060
10947WAT     H233084   4.584   3.201   2.085
10948WAT      O33085   1.111   2.661   9.308
10948WAT     H133086   1.077   2.650   9.401
10948WAT     H233087   1.039   2.700   9.250
10949WAT      O33088   9.739   3.129   5.486
10949WAT     H133089   9.711   3.077   5.567
10949WAT     H233090   9.745   3.068   5.407
10950WAT      O33091   1.710   2.348   9.505
10950WAT     H133092   1.795   2.332   9.453
10950WAT     H233093   1.665   2.261   9.523
10951WAT      O33094   0.608   2.021   2.655
10951WAT     H133095   0.699   1.984   2.667
10951WAT     H233096   0.585   2.081   2.732
10952WAT      O33097   8.983   8.141   4.768
10952WAT     H133098   8.994   8.042   4.779
10952WAT     H233099   9.046   8.174   4.698
10953WAT      O33100   3.320   7.934   1.329
10953WAT     H133101   3.287   7.900   1.417
10953WAT     H233102   3.352   7.857   1.273
10954WAT      O33103   8.749   7.976   6.683
10954WAT     H133104   8.802   7.922   6.748
10954WAT     H233105   8.685   8.034   6.732
10955WAT      O33106   5.254   3.796   7.325
10955WAT     H133107   5.196   3.717   7.345
10955WAT     H233108   5.330   3.768   7.265
10956WAT      O33109   4.402   6.875   9.188
10956WAT     H133110   4.468   6.949   9.183
10956WAT     H233111   4.320   6.906   9.237
10957WAT      O33112   4.104   9.243   2.189
10957WAT     H133113   4.044   9.302   2.136
10957WAT     H233114   4.090   9.148   2.161
10958WAT      O33115   2.511   2.763   7.058
10958WAT     H133116   2.560   2.677   7.043
10958WAT     H233117   2.475   2.797   6.972
10959WAT      O33118   3.997   4.247   1.117
10959WAT     H133119   4.000   4.149   1.097
10959WAT     H233120   4.065   4.295   1.063
10960WAT      O33121   9.708   9.485   7.515
10960WAT     H133122   9.767   9.565   7.515
10960WAT     H233123   9.614   9.513   7.535
10961WAT      O33124   4.725   9.509   2.345
10961WAT     H133125   4.749   9.481   2.252
10961WAT     H233126   4.807   9.506   2.402
10962WAT      O33127   7.551   3.461   0.399
10962WAT     H133128   7.547   3.376   0.453
10962WAT     H233129   7.639   3.466   0.351
10963WAT      O33130   8.533   9.612   1.075
10963WAT     H133131   8.481   9.697   1.064
10963WAT     H233132   8.560   9.578   0.985
10964WAT      O33133   1.734   0.885   3.862
10964WAT     H133134   1.680   0.934   3.931
10964WAT     H233135   1.673   0.851   3.791
10965WAT      O33136   0.720   7.639   8.772
10965WAT     H133137   0.742   7.619   8.867
10965WAT     H233138   0.727   7.738   8.756
10966WAT      O33139   8.486   3.685   3.014
10966WAT     H133140   8.488   3.589   3.043
10966WAT     H233141   8.399   3.704   2.968
10967WAT      O33142   3.699   1.573   9.467
10967WAT     H133143   3.660   1.657   9.504
10967WAT     H233144   3.631   1.499   9.473
10968WAT      O33145   9.019   4.723   4.484
10968WAT     H133146   8.991   4.630   4.509
10968WAT     H233147   8.939   4.774   4.450
10969WAT      O33148   7.152   1.485   9.079
10969WAT     H133149   7.249   1.507   9.065
10969WAT     H233150   7.096   1.544   9.022
10970WAT      O33151   0.492   4.590   5.459
10970WAT     H133152   0.483   4.497   5.422
10970WAT     H233153   0.430   4.601   5.536
10971WAT      O33154   8.864   0.766   1.608
10971WAT     H133155   8.850   0.697   1.537
10971WAT     H233156   8.959   0.798   1.605
10972WAT      O33157   7.752   6.711   3.835
10972WAT     H133158   7.722   6.665   3.752
10972WAT     H233159   7.810   6.789   3.810
10973WAT      O33160   1.461   1.475   1.300
10973WAT     H133161   1.506   1.425   1.374
10973WAT     H233162   1.362   1.477   1.317
10974WAT      O33163   6.757   9.601   1.123
10974WAT     H133164   6.745   9.645   1.212
10974WAT     H233165   6.744   9.503   1.132
10975WAT      O33166   9.499   6.073   7.803
10975WAT     H133167   9.569   6.005   7.781
10975WAT     H233168   9.533   6.164   7.778
10976WAT      O33169   2.349   2.409   9.050
10976WAT     H133170   2.344   2.310   9.043
10976WAT     H233171   2.258   2.449   9.032
10977WAT      O33172   1.633   0.277   3.727
10977WAT     H133173   1.546   0.237   3.755
10977WAT     H233174   1.707   0.235   3.780
10978WAT      O33175   7.282   0.312   4.757
10978WAT     H133176   7.308   0.362   4.840
10978WAT     H233177   7.184   0.324   4.741
10979WAT      O33178   2.538   0.469   1.468
10979WAT     H133179   2.497   0.388   1.511
10979WAT     H233180   2.546   0.454   1.369
10980WAT      O33181   6.810   4.886   3.129
10980WAT     H133182   6.864   4.805   3.106
10980WAT     H233183   6.716   4.874   3.096
10981WAT      O33184   7.315   5.992   1.701
10981WAT     H133185   7.308   5.905   1.653
10981WAT     H233186   7.355   5.977   1.792
10982WAT      O33187   7.112   3.216   5.130
10982WAT     H133188   7.037   3.280   5.144
10982WAT     H233189   7.197   3.256   5.165
10983WAT      O33190   4.687   7.926   3.622
10983WAT     H133191   4.740   7.843   3.602
10983WAT     H233192   4.664   7.972   3.536
10984WAT      O33193   2.972   9.561   5.054
10984WAT     H133194   2.938   9.630   4.990
10984WAT     H233195   3.002   9.481   5.003
10985WAT      O33196   1.521   5.453   6.112
10985WAT     H133197   1.617   5.428   6.104
10985WAT     H233198   1.464   5.376   6.085
10986WAT      O33199   1.834   6.579   5.709
10986WAT     H133200   1.905   6.535   5.654
10986WAT     H233201   1.872   6.658   5.756
10987WAT      O33202   7.454   1.743   3.142
10987WAT     H133203   7.370   1.797   3.141
10987WAT     H233204   7.533   1.804   3.141
10988WAT      O33205   7.727   0.596   1.761
10988WAT     H133206   7.732   0.584   1.860
10988WAT     H233207   7.678   0.519   1.721
10989WAT      O33208   1.269   6.417   0.806
10989WAT     H133209   1.232   6.424   0.713
10989WAT     H233210   1.332   6.493   0.823
10990WAT      O33211   8.265   2.961   7.532
10990WAT     H133212   8.195   2.939   7.463
10990WAT     H233213   8.224   2.957   7.623
10991WAT      O33214   0.589   8.716   0.919
10991WAT     H133215   0.609   8.729   1.016
10991WAT     H233216   0.662   8.758   0.864
10992WAT      O33217   1.393   6.524   8.647
10992WAT     H133218   1.339   6.594   8.693
10992WAT     H233219   1.355   6.507   8.556
10993WAT      O33220   6.976   2.345   1.597
10993WAT     H133221   6.922   2.268   1.630
10993WAT     H233222   7.066   2.312   1.567
10994WAT      O33223   0.844   9.239   6.878
10994WAT     H133224   0.797   9.218   6.964
10994WAT     H233225   0.783   9.293   6.819
10995WAT      O33226   9.805   6.576   6.791
10995WAT     H133227   9.775   6.632   6.714
10995WAT     H233228   9.867   6.629   6.848
10996WAT      O33229   2.737   0.245   6.337
10996WAT     H133230   2.757   0.210   6.245
10996WAT     H233231   2.717   0.169   6.399
10997WAT      O33232   2.682   1.390   7.298
10997WAT     H133233   2.718   1.412   7.388
10997WAT     H233234   2.582   1.401   7.298
10998WAT      O33235   3.981   4.514   0.267
10998WAT     H133236   4.023   4.439   0.215
10998WAT     H233237   4.030   4.599   0.248
10999WAT      O33238   0.171   9.659   2.302
10999WAT     H133239   0.231   9.653   2.222
10999WAT     H233240   0.098   9.592   2.293
11000WAT      O33241   8.396   8.660   4.798
11000WAT     H133242   8.477   8.678   4.744
11000WAT     H233243   8.390   8.726   4.873
11001WAT      O33244   1.753   1.835   0.249
11001WAT     H133245   1.730   1.912   0.309
11001WAT     H233246   1.744   1.749   0.300
11002WAT      O33247   8.635   9.646   5.607
11002WAT     H133248   8.539   9.671   5.618
11002WAT     H233249   8.693   9.725   5.624
11003WAT      O33250   6.889   0.639   8.243
11003WAT     H133251   6.944   0.630   8.326
11003WAT     H233252   6.793   0.623   8.265
11004WAT      O33253   2.619   4.806   3.496
11004WAT     H133254   2.635   4.708   3.508
11004WAT     H233255   2.588   4.845   3.583
11005WAT      O33256   6.579   2.165   4.747
11005WAT     H133257   6.660   2.217   4.774
11005WAT     H233258   6.532   2.132   4.829
11006WAT      O33259   7.890   4.058   7.448
11006WAT     H133260   7.839   4.143   7.462
11006WAT     H233261   7.836   3.981   7.481
11007WAT      O33262   1.150   8.428   3.890
11007WAT     H133263   1.224   8.376   3.847
11007WAT     H233264   1.167   8.526   3.877
11008WAT      O33265   3.269   4.296   2.278
11008WAT     H133266   3.298   4.389   2.298
11008WAT     H233267   3.306   4.234   2.347
11009WAT      O33268   3.286   8.923   8.731
11009WAT     H133269   3.223   9.001   8.728
11009WAT     H233270   3.249   8.849   8.676
11010WAT      O33271   0.063   5.381   4.665
11010WAT     H133272   0.145   5.354   4.716
11010WAT     H233273   0.009   5.300   4.644
11011WAT      O33274   8.821   4.624   7.792
11011WAT     H133275   8.917   4.595   7.789
11011WAT     H233276   8.772   4.571   7.861
11012WAT      O33277   6.708   4.760   5.155
11012WAT     H133278   6.669   4.710   5.077
11012WAT     H233279   6.677   4.718   5.240
11013WAT      O33280   1.152   1.781   4.304
11013WAT     H133281   1.136   1.691   4.263
11013WAT     H233282   1.152   1.773   4.404
11014WAT      O33283   0.135   5.783   1.920
11014WAT     H133284   0.120   5.791   1.822
11014WAT     H233285   0.048   5.764   1.966
11015WAT      O33286   5.210   2.786   8.870
11015WAT     H133287   5.229   2.741   8.957
11015WAT     H233288   5.111   2.798   8.860
11016WAT      O33289   7.988   7.199   0.356
11016WAT     H133290   8.070   7.199   0.299
11016WAT     H233291   7.907   7.197   0.298
11017WAT      O33292   7.577   1.707   5.643
11017WAT     H133293   7.626   1.773   5.700
11017WAT     H233294   7.552   1.751   5.557
11018WAT      O33295   0.671   8.441   8.763
11018WAT     H133296   0.748   8.447   8.827
11018WAT     H233297   0.678   8.515   8.696
11019WAT      O33298   9.177   9.537   3.544
11019WAT     H133299   9.217   9.573   3.460
11019WAT     H233300   9.165   9.438   3.536
11020WAT      O33301   2.109   9.509   4.526
11020WAT     H133302   2.011   9.488   4.531
11020WAT     H233303   2.145   9.521   4.618
11021WAT      O33304   0.480   7.508   8.730
11021WAT     H133305   0.568   7.545   8.760
11021WAT     H233306   0.444   7.566   8.656
11022WAT      O33307   0.058   4.986   2.444
11022WAT     H133308   0.096   4.895   2.455
11022WAT     H233309   0.120   5.041   2.388
11023WAT      O33310   2.287   5.707   5.256
11023WAT     H133311   2.220   5.676   5.189
11023WAT     H233312   2.240   5.749   5.334
11024WAT      O33313   9.777   1.527   2.256
11024WAT     H133314   9.827   1.511   2.341
11024WAT     H233315   9.733   1.616   2.259
11025WAT      O33316   5.497   1.675   6.959
11025WAT     H133317   5.518   1.772   6.970
11025WAT     H233318   5.558   1.634   6.891
11026WAT      O33319   6.894   9.054   4.934
11026WAT     H133320   6.980   9.004   4.940
11026WAT     H233321   6.903   9.142   4.981
11027WAT      O33322   3.870   9.532   0.041
11027WAT     H133323   3.904   9.473   0.114
11027WAT     H233324   3.856   9.624   0.076
11028WAT      O33325   3.803   4.045   9.364
11028WAT     H133326   3.828   3.949   9.373
11028WAT     H233327   3.745   4.072   9.441
11029WAT      O33328   1.966   9.528   9.008
11029WAT     H133329   1.930   9.454   8.952
11029WAT     H233330   1.907   9.608   8.999
11030WAT      O33331   2.595   1.940   3.907
11030WAT     H133332   2.555   1.951   3.816
11030WAT     H233333   2.522   1.920   3.973
11031WAT      O33334   8.335   6.297   7.352
11031WAT     H133335   8.253   6.352   7.338
11031WAT     H233336   8.404   6.352   7.399
11032WAT      O33337   8.038   8.300   4.609
11032WAT     H133338   7.973   8.251   4.550
11032WAT     H233339   8.052   8.392   4.573
11033WAT      O33340   1.898   2.917   0.088
11033WAT     H133341   1.912   2.949  -0.006
11033WAT     H233342   1.981   2.930   0.141
11034WAT      O33343   4.683   8.117   7.899
11034WAT     H133344   4.670   8.019   7.918
11034WAT     H233345   4.755   8.128   7.831
11035WAT      O33346   0.792   6.821   1.124
11035WAT     H133347   0.788   6.723   1.146
11035WAT     H233348   0.770   6.833   1.027
11036WAT      O33349   7.422   9.596   8.973
11036WAT     H133350   7.395   9.656   8.897
11036WAT     H233351   7.379   9.630   9.057
11037WAT      O33352   0.955   1.919   4.189
11037WAT     H133353   1.030   1.864   4.226
11037WAT     H233354   0.869   1.868   4.198
11038WAT      O33355   3.561   1.444   0.009
11038WAT     H133356   3.578   1.525   0.064
11038WAT     H233357   3.499   1.467  -0.066
11039WAT      O33358   8.311   9.396   7.982
11039WAT     H133359   8.350   9.366   8.069
11039WAT     H233360   8.333   9.329   7.911
11040WAT      O33361   0.102   4.158   7.736
11040WAT     H133362   0.061   4.232   7.790
11040WAT     H233363   0.055   4.150   7.648
11041WAT      O33364   5.662   1.583   7.661
11041WAT     H133365   5.678   1.547   7.753
11041WAT     H233366   5.713   1.529   7.594
11042WAT      O33367   4.784   9.754   1.378
11042WAT     H133368   4.875   9.728   1.345
11042WAT     H233369   4.714   9.715   1.319
11043WAT      O33370   2.596   2.778   4.163
11043WAT     H133371   2.500   2.795   4.181
11043WAT     H233372   2.608   2.683   4.133
11044WAT      O33373   1.957   5.852   7.395
11044WAT     H133374   1.942   5.924   7.463
11044WAT     H233375   1.950   5.890   7.303
11045WAT      O33376   5.608   4.100   4.334
11045WAT     H133377   5.673   4.176   4.340
11045WAT     H233378   5.553   4.111   4.250
11046WAT      O33379   8.895   6.965   1.575
11046WAT     H133380   8.837   6.921   1.506
11046WAT     H233381   8.848   7.045   1.612
11047WAT      O33382   8.400   8.435   3.943
11047WAT     H133383   8.485   8.465   3.987
11047WAT     H233384   8.328   8.502   3.961
11048WAT      O33385   1.895   0.630   3.070
11048WAT     H133386   1.945   0.716   3.076
11048WAT     H233387   1.886   0.604   2.974
11049WAT      O33388   7.052  -0.002   5.177
11049WAT     H133389   7.044   0.037   5.086
11049WAT     H233390   7.011   0.060   5.244
11050WAT      O33391   6.961   1.615   0.738
11050WAT     H133392   6.974   1.516   0.741
11050WAT     H233393   7.049   1.661   0.730
11051WAT      O33394   2.154   9.345   7.131
11051WAT     H133395   2.087   9.415   7.108
11051WAT     H233396   2.107   9.263   7.162
11052WAT      O33397   2.570   3.798   0.837
11052WAT     H133398   2.541   3.710   0.874
11052WAT     H233399   2.508   3.869   0.870
11053WAT      O33400   2.867   5.766   3.542
11053WAT     H133401   2.884   5.708   3.622
11053WAT     H233402   2.868   5.862   3.570
11054WAT      O33403   1.368   3.321   2.323
11054WAT     H133404   1.304   3.244   2.315
11054WAT     H233405   1.453   3.289   2.367
11055WAT      O33406   1.299   0.100   3.757
11055WAT     H133407   1.356   0.141   3.829
11055WAT     H233408   1.203   0.103   3.785
11056WAT      O33409   3.319   9.724   0.013
11056WAT     H133410   3.392   9.743  -0.052
11056WAT     H233411   3.295   9.809   0.061
11057WAT      O33412   7.205   2.152   2.512
11057WAT     H133413   7.270   2.181   2.443
11057WAT     H233414   7.112   2.164   2.478
11058WAT      O33415   7.405   9.613   4.273
11058WAT     H133416   7.321   9.662   4.295
11058WAT     H233417   7.427   9.549   4.347
11059WAT      O33418   0.229   7.634   1.414
11059WAT     H133419   0.208   7.718   1.466
11059WAT     H233420   0.197   7.555   1.466
11060WAT      O33421   3.796   1.971   7.625
11060WAT     H133422   3.774   1.959   7.528
11060WAT     H233423   3.864   1.904   7.653
11061WAT      O33424   9.230   3.435   2.147
11061WAT     H133425   9.312   3.420   2.203
11061WAT     H233426   9.154   3.464   2.206
11062WAT      O33427   7.255   4.852   8.659
11062WAT     H133428   7.335   4.907   8.634
11062WAT     H233429   7.193   4.847   8.580
11063WAT      O33430   4.115   3.284   5.133
11063WAT     H133431   4.200   3.258   5.088
11063WAT     H233432   4.124   3.378   5.167
11064WAT      O33433   0.906   1.615   9.230
11064WAT     H133434   0.900   1.608   9.329
11064WAT     H233435   0.991   1.662   9.205
11065WAT      O33436   3.180   9.171   7.853
11065WAT     H133437   3.086   9.160   7.887
11065WAT     H233438   3.177   9.207   7.760
11066WAT      O33439   9.078   9.403   8.178
11066WAT     H133440   9.043   9.492   8.206
11066WAT     H233441   9.132   9.363   8.252
11067WAT      O33442   3.148   1.442   0.160
11067WAT     H133443   3.142   1.451   0.259
11067WAT     H233444   3.215   1.372   0.137
11068WAT      O33445   2.921   3.614   6.115
11068WAT     H133446   3.014   3.585   6.136
11068WAT     H233447   2.904   3.704   6.155
11069WAT      O33448   6.740   4.069   7.690
11069WAT     H133449   6.723   4.094   7.785
11069WAT     H233450   6.764   4.151   7.638
11070WAT      O33451   9.397   3.258   6.482
11070WAT     H133452   9.490   3.277   6.451
11070WAT     H233453   9.394   3.257   6.582
11071WAT      O33454   4.971   2.435   4.008
11071WAT     H133455   5.020   2.369   4.066
11071WAT     H233456   4.925   2.502   4.066
11072WAT      O33457   8.629   7.336   6.183
11072WAT     H133458   8.563   7.406   6.208
11072WAT     H233459   8.599   7.248   6.221
11073WAT      O33460   0.102   0.713   1.485
11073WAT     H133461   0.169   0.735   1.556
11073WAT     H233462   0.055   0.628   1.510
11074WAT      O33463   2.591   2.545   8.401
11074WAT     H133464   2.647   2.598   8.465
11074WAT     H233465   2.495   2.573   8.409
11075WAT      O33466   8.870   5.690   2.463
11075WAT     H133467   8.863   5.762   2.393
11075WAT     H233468   8.965   5.684   2.495
11076WAT      O33469   2.751   3.778   6.680
11076WAT     H133470   2.816   3.852   6.697
11076WAT     H233471   2.800   3.691   6.682
11077WAT      O33472   2.586   9.295   7.051
11077WAT     H133473   2.642   9.372   7.082
11077WAT     H233474   2.623   9.259   6.966
11078WAT      O33475   5.838   0.225   0.370
11078WAT     H133476   5.880   0.315   0.363
11078WAT     H233477   5.752   0.224   0.319
11079WAT      O33478   7.535   5.655   4.031
11079WAT     H133479   7.517   5.726   3.963
11079WAT     H233480   7.535   5.566   3.986
11080WAT      O33481   2.742   4.587   4.463
11080WAT     H133482   2.815   4.561   4.400
11080WAT     H233483   2.751   4.533   4.547
11081WAT      O33484   6.899   0.794   4.203
11081WAT     H133485   6.937   0.834   4.120
11081WAT     H233486   6.934   0.842   4.283
11082WAT      O33487   2.906   3.560   5.845
11082WAT     H133488   2.918   3.592   5.939
11082WAT     H233489   2.811   3.576   5.816
11083WAT      O33490   5.762   3.479   8.311
11083WAT     H133491   5.712   3.393   8.316
11083WAT     H233492   5.805   3.498   8.399
11084WAT      O33493   4.163   3.802   4.375
11084WAT     H133494   4.226   3.854   4.432
11084WAT     H233495   4.198   3.797   4.281
11085WAT      O33496   6.714   8.065   9.397
11085WAT     H133497   6.674   8.117   9.472
11085WAT     H233498   6.667   7.977   9.388
11086WAT      O33499   2.445   0.503   0.289
11086WAT     H133500   2.528   0.529   0.239
11086WAT     H233501   2.394   0.585   0.314
11087WAT      O33502   0.637   2.639   4.262
11087WAT     H133503   0.671   2.731   4.242
11087WAT     H233504   0.636   2.625   4.361
11088WAT      O33505   4.810   6.381   6.697
11088WAT     H133506   4.839   6.290   6.725
11088WAT     H233507   4.780   6.433   6.778
11089WAT      O33508   4.427   7.891   7.712
11089WAT     H133509   4.502   7.824   7.715
11089WAT     H233510   4.353   7.862   7.772
11090WAT      O33511   1.057   6.731   8.042
11090WAT     H133512   1.051   6.671   7.963
11090WAT     H233513   1.152   6.734   8.075
11091WAT      O33514   6.538   8.849   4.546
11091WAT     H133515   6.627   8.804   4.548
11091WAT     H233516   6.549   8.947   4.564
11092WAT      O33517   9.786   9.348   4.657
11092WAT     H133518   9.720   9.275   4.670
11092WAT     H233519   9.863   9.335   4.719
11093WAT      O33520   5.564   9.492   3.908
11093WAT     H133521   5.468   9.515   3.890
11093WAT     H233522   5.579   9.395   3.890
11094WAT      O33523   1.559   2.260   3.466
11094WAT     H133524   1.467   2.255   3.506
11094WAT     H233525   1.613   2.327   3.517
11095WAT      O33526   7.906   7.909   7.567
11095WAT     H133527   7.975   7.969   7.607
11095WAT     H233528   7.935   7.814   7.576
11096WAT      O33529   0.769   4.132   6.601
11096WAT     H133530   0.728   4.222   6.587
11096WAT     H233531   0.832   4.136   6.678
11097WAT      O33532   7.341   4.292   9.493
11097WAT     H133533   7.349   4.222   9.565
11097WAT     H233534   7.247   4.297   9.462
11098WAT      O33535   2.427   7.659   7.465
11098WAT     H133536   2.464   7.594   7.398
11098WAT     H233537   2.403   7.744   7.418
11099WAT      O33538   8.882   1.394   9.253
11099WAT     H133539   8.873   1.313   9.311
11099WAT     H233540   8.806   1.456   9.270
11100WAT      O33541   0.934   7.788   6.610
11100WAT     H133542   0.921   7.730   6.530
11100WAT     H233543   0.865   7.861   6.609
11101WAT      O33544   7.855   5.969   0.876
11101WAT     H133545   7.793   5.922   0.813
11101WAT     H233546   7.946   5.976   0.834
11102WAT      O33547   6.001   2.117   5.751
11102WAT     H133548   6.068   2.172   5.802
11102WAT     H233549   6.049   2.047   5.698
11103WAT      O33550   6.123   3.322   8.871
11103WAT     H133551   6.205   3.309   8.926
11103WAT     H233552   6.138   3.285   8.779
11104WAT      O33553   4.819   6.129   2.873
11104WAT     H133554   4.743   6.100   2.815
11104WAT     H233555   4.787   6.197   2.939
11105WAT      O33556   7.509   2.244   3.634
11105WAT     H133557   7.468   2.331   3.606
11105WAT     H233558   7.606   2.244   3.609
11106WAT      O33559   7.654   3.890   6.647
11106WAT     H133560   7.685   3.929   6.734
11106WAT     H233561   7.564   3.849   6.659
11107WAT      O33562   5.480   2.841   4.109
11107WAT     H133563   5.559   2.878   4.158
11107WAT     H233564   5.505   2.756   4.062
11108WAT      O33565   4.355   2.586   2.277
11108WAT     H133566   4.328   2.611   2.184
11108WAT     H233567   4.453   2.566   2.279
11109WAT      O33568   5.841   2.741   4.002
11109WAT     H133569   5.894   2.678   3.944
11109WAT     H233570   5.744   2.720   3.995
11110WAT      O33571   1.784   1.011   6.949
11110WAT     H133572   1.710   1.064   6.908
11110WAT     H233573   1.867   1.022   6.894
11111WAT      O33574   6.204   2.405   8.727
11111WAT     H133575   6.142   2.440   8.657
11111WAT     H233576   6.285   2.464   8.731
11112WAT      O33577   9.854   0.896   2.112
11112WAT     H133578   9.897   0.977   2.072
11112WAT     H233579   9.921   0.823   2.119
11113WAT      O33580   4.415   8.932   8.998
11113WAT     H133581   4.503   8.931   9.046
11113WAT     H233582   4.346   8.884   9.053
11114WAT      O33583   2.698   4.162   5.371
11114WAT     H133584   2.600   4.155   5.349
11114WAT     H233585   2.716   4.112   5.456
11115WAT      O33586   9.798   5.609   9.631
11115WAT     H133587   9.849   5.589   9.547
11115WAT     H233588   9.758   5.700   9.624
11116WAT      O33589   0.186   8.104   0.810
11116WAT     H133590   0.156   8.085   0.716
11116WAT     H233591   0.271   8.157   0.807
11117WAT      O33592   1.506   0.641   2.496
11117WAT     H133593   1.475   0.571   2.432
11117WAT     H233594   1.551   0.714   2.445
11118WAT      O33595   4.932   3.972   1.817
11118WAT     H133596   4.885   4.059   1.833
11118WAT     H233597   4.873   3.911   1.765
11119WAT      O33598   2.439   9.016   8.500
11119WAT     H133599   2.532   8.982   8.488
11119WAT     H233600   2.438   9.090   8.567
11120WAT      O33601   1.463   0.416   8.245
11120WAT     H133602   1.430   0.439   8.153
11120WAT     H233603   1.426   0.328   8.273
11121WAT      O33604   9.369   8.657   9.437
11121WAT     H133605   9.286   8.698   9.399
11121WAT     H233606   9.424   8.618   9.363
11122WAT      O33607   1.877   3.037   2.449
11122WAT     H133608   1.958   3.009   2.399
11122WAT     H233609   1.903   3.066   2.541
11123WAT      O33610   1.715   9.092   1.065
11123WAT     H133611   1.623   9.066   1.096
11123WAT     H233612   1.708   9.172   1.006
11124WAT      O33613   8.064   4.616   5.108
11124WAT     H133614   8.149   4.665   5.089
11124WAT     H233615   7.997   4.679   5.147
11125WAT      O33616   1.120   4.081   3.159
11125WAT     H133617   1.180   4.050   3.233
11125WAT     H233618   1.111   4.008   3.091
11126WAT      O33619   7.473   2.858   3.025
11126WAT     H133620   7.381   2.881   3.056
11126WAT     H233621   7.531   2.841   3.105
11127WAT      O33622   6.159   8.099   3.084
11127WAT     H133623   6.087   8.031   3.075
11127WAT     H233624   6.249   8.055   3.077
11128WAT      O33625   4.370   9.828   2.670
11128WAT     H133626   4.330   9.886   2.741
11128WAT     H233627   4.464   9.805   2.695
11129WAT      O33628   6.294   0.218   1.316
11129WAT     H133629   6.286   0.308   1.272
11129WAT     H233630   6.268   0.225   1.412
11130WAT      O33631   4.389   5.001   7.706
11130WAT     H133632   4.486   5.006   7.731
11130WAT     H233633   4.334   4.985   7.787
11131WAT      O33634   2.782   3.826   8.291
11131WAT     H133635   2.852   3.760   8.319
11131WAT     H233636   2.808   3.868   8.204
11132WAT      O33637   7.709   5.238   4.690
11132WAT     H133638   7.633   5.301   4.701
11132WAT     H233639   7.729   5.195   4.778
11133WAT      O33640   1.029   5.950   7.208
11133WAT     H133641   0.951   5.949   7.145
11133WAT     H233642   0.996   5.938   7.302
11134WAT      O33643   7.454   7.422   3.934
11134WAT     H133644   7.469   7.438   3.836
11134WAT     H233645   7.530   7.367   3.971
11135WAT      O33646   9.699   5.099   0.710
11135WAT     H133647   9.691   5.050   0.624
11135WAT     H233648   9.609   5.125   0.743
11136WAT      O33649   2.236   7.401   2.414
11136WAT     H133650   2.168   7.471   2.435
11136WAT     H233651   2.189   7.320   2.378
11137WAT      O33652   8.667   0.564   4.285
11137WAT     H133653   8.681   0.589   4.381
11137WAT     H233654   8.605   0.487   4.280
11138WAT      O33655   3.609   5.874   7.492
11138WAT     H133656   3.555   5.937   7.548
11138WAT     H233657   3.554   5.846   7.413
11139WAT      O33658   2.839   6.671   6.693
11139WAT     H133659   2.926   6.698   6.649
11139WAT     H233660   2.847   6.577   6.726
11140WAT      O33661   3.628   3.175   8.280
11140WAT     H133662   3.557   3.165   8.350
11140WAT     H233663   3.682   3.091   8.276
11141WAT      O33664   7.499   9.325   1.075
11141WAT     H133665   7.430   9.252   1.078
11141WAT     H233666   7.455   9.412   1.054
11142WAT      O33667   7.873   8.601   0.313
11142WAT     H133668   7.778   8.631   0.306
11142WAT     H233669   7.889   8.524   0.251
11143WAT      O33670   8.615   2.657   7.953
11143WAT     H133671   8.630   2.639   8.050
11143WAT     H233672   8.675   2.731   7.923
11144WAT      O33673   3.175   4.000   4.756
11144WAT     H133674   3.224   3.998   4.668
11144WAT     H233675   3.123   3.915   4.767
11145WAT      O33676   7.960   4.019   0.829
11145WAT     H133677   7.930   4.106   0.867
11145WAT     H233678   8.045   3.990   0.872
11146WAT      O33679   0.239   4.331   2.088
11146WAT     H133680   0.225   4.410   2.149
11146WAT     H233681   0.325   4.343   2.038
11147WAT      O33682   0.883   4.486   0.663
11147WAT     H133683   0.884   4.402   0.609
11147WAT     H233684   0.808   4.545   0.632
11148WAT      O33685   4.874   6.980   0.221
11148WAT     H133686   4.923   6.997   0.136
11148WAT     H233687   4.907   6.895   0.263
11149WAT      O33688   4.328   3.020   7.200
11149WAT     H133689   4.372   2.938   7.165
11149WAT     H233690   4.254   2.994   7.263
11150WAT      O33691   5.346   4.898   6.422
11150WAT     H133692   5.324   4.961   6.496
11150WAT     H233693   5.444   4.879   6.422
11151WAT      O33694   0.737   6.289   2.409
11151WAT     H133695   0.811   6.340   2.453
11151WAT     H233696   0.700   6.222   2.473
11152WAT      O33697   7.437   9.442   4.751
11152WAT     H133698   7.453   9.456   4.849
11152WAT     H233699   7.407   9.348   4.736
11153WAT      O33700   7.711   5.805   6.188
11153WAT     H133701   7.650   5.814   6.266
11153WAT     H233702   7.657   5.799   6.104
11154WAT      O33703   3.576   2.494   6.747
11154WAT     H133704   3.499   2.431   6.733
11154WAT     H233705   3.584   2.515   6.844
11155WAT      O33706   8.447   7.335   9.018
11155WAT     H133707   8.362   7.386   9.017
11155WAT     H233708   8.515   7.383   9.074
11156WAT      O33709   5.595   3.886   3.994
11156WAT     H133710   5.679   3.932   3.964
11156WAT     H233711   5.604   3.858   4.090
11157WAT      O33712   0.137   7.644   9.833
11157WAT     H133713   0.175   7.560   9.872
11157WAT     H233714   0.179   7.661   9.743
11158WAT      O33715   4.013   4.450   0.880
11158WAT     H133716   4.028   4.535   0.830
11158WAT     H233717   3.944   4.395   0.832
11159WAT      O33718   3.041   3.948   1.877
11159WAT     H133719   3.070   3.877   1.942
11159WAT     H233720   2.944   3.939   1.858
11160WAT      O33721   6.742   9.170   5.454
11160WAT     H133722   6.814   9.102   5.437
11160WAT     H233723   6.742   9.238   5.381
11161WAT      O33724   8.557   4.366   7.667
11161WAT     H133725   8.500   4.397   7.744
11161WAT     H233726   8.542   4.425   7.588
11162WAT      O33727   4.060   5.583   0.577
11162WAT     H133728   4.085   5.590   0.674
11162WAT     H233729   4.118   5.515   0.532
11163WAT      O33730   8.474   2.900   5.212
11163WAT     H133731   8.442   2.927   5.122
11163WAT     H233732   8.430   2.814   5.239
11164WAT      O33733   3.176   9.535   1.412
11164WAT     H133734   3.210   9.628   1.419
11164WAT     H233735   3.248   9.476   1.375
11165WAT      O33736   8.153   8.974   3.634
11165WAT     H133737   8.250   8.995   3.650
11165WAT     H233738   8.116   9.037   3.566
11166WAT      O33739   9.547   2.679   3.169
11166WAT     H133740   9.625   2.738   3.189
11166WAT     H233741   9.510   2.701   3.079
11167WAT      O33742   0.585   2.354   0.378
11167WAT     H133743   0.672   2.393   0.407
11167WAT     H233744   0.540   2.310   0.456
11168WAT      O33745   8.103   4.350   1.115
11168WAT     H133746   8.082   4.300   1.031
11168WAT     H233747   8.044   4.318   1.188
11169WAT      O33748   9.586   7.980   5.665
11169WAT     H133749   9.668   7.926   5.647
11169WAT     H233750   9.586   8.061   5.605
11170WAT      O33751   2.585   8.692   0.805
11170WAT     H133752   2.602   8.739   0.891
11170WAT     H233753   2.630   8.603   0.806
11171WAT      O33754   1.259   6.162   7.681
11171WAT     H133755   1.344   6.119   7.653
11171WAT     H233756   1.237   6.133   7.775
11172WAT      O33757   5.346   5.094   6.856
11172WAT     H133758   5.254   5.133   6.860
11172WAT     H233759   5.339   4.994   6.855
11173WAT      O33760   9.808  -0.005   2.644
11173WAT     H133761   9.822   0.059   2.569
11173WAT     H233762   9.863   0.024   2.723
11174WAT      O33763   1.890   8.840   3.133
11174WAT     H133764   1.852   8.908   3.196
11174WAT     H233765   1.989   8.838   3.143
11175WAT      O33766   7.006   4.008   3.868
11175WAT     H133767   6.970   3.982   3.957
11175WAT     H233768   7.066   4.088   3.878
11176WAT      O33769   3.540   0.664   4.308
11176WAT     H133770   3.539   0.758   4.276
11176WAT     H233771   3.468   0.612   4.262
11177WAT      O33772   7.787   6.612   6.116
11177WAT     H133773   7.821   6.519   6.105
11177WAT     H233774   7.693   6.609   6.152
11178WAT      O33775   3.626   6.721   2.662
11178WAT     H133776   3.539   6.770   2.658
11178WAT     H233777   3.689   6.761   2.596
11179WAT      O33778   4.072   6.524   9.233
11179WAT     H133779   4.115   6.433   9.231
11179WAT     H233780   4.118   6.581   9.301
11180WAT      O33781   9.574   8.157   9.866
11180WAT     H133782   9.529   8.228   9.812
11180WAT     H233783   9.637   8.105   9.808
11181WAT      O33784   5.971   8.104   8.259
11181WAT     H133785   5.964   8.094   8.159
11181WAT     H233786   5.913   8.036   8.304
11182WAT      O33787   9.711   3.563   2.275
11182WAT     H133788   9.757   3.615   2.347
11182WAT     H233789   9.724   3.465   2.292
11183WAT      O33790   4.048   8.906   5.740
11183WAT     H133791   4.014   8.964   5.666
11183WAT     H233792   4.118   8.844   5.703
11184WAT      O33793   8.585   8.882   0.475
11184WAT     H133794   8.624   8.808   0.530
11184WAT     H233795   8.486   8.871   0.470
11185WAT      O33796   3.011   7.787   1.989
11185WAT     H133797   2.915   7.772   1.964
11185WAT     H233798   3.031   7.885   1.986
11186WAT      O33799   8.287   4.593   6.386
11186WAT     H133800   8.270   4.513   6.444
11186WAT     H233801   8.272   4.569   6.291
11187WAT      O33802   3.304   9.385   5.262
11187WAT     H133803   3.363   9.321   5.311
11187WAT     H233804   3.236   9.422   5.326
11188WAT      O33805   9.299   5.859   6.652
11188WAT     H133806   9.288   5.761   6.636
11188WAT     H233807   9.239   5.910   6.590
11189WAT      O33808   3.625   4.554   0.404
11189WAT     H133809   3.716   4.543   0.445
11189WAT     H233810   3.616   4.647   0.368
11190WAT      O33811   1.375   5.114   9.101
11190WAT     H133812   1.463   5.084   9.066
11190WAT     H233813   1.301   5.072   9.048
11191WAT      O33814   3.710   8.399   6.928
11191WAT     H133815   3.771   8.442   6.994
11191WAT     H233816   3.618   8.394   6.965
11192WAT      O33817   6.089   9.567   0.817
11192WAT     H133818   6.117   9.630   0.890
11192WAT     H233819   6.064   9.479   0.857
11193WAT      O33820   2.133   1.119   8.433
11193WAT     H133821   2.213   1.178   8.427
11193WAT     H233822   2.050   1.173   8.420
11194WAT      O33823   7.188   1.548   3.983
11194WAT     H133824   7.215   1.597   3.900
11194WAT     H233825   7.269   1.509   4.026
11195WAT      O33826   9.260   8.785   6.884
11195WAT     H133827   9.351   8.809   6.916
11195WAT     H233828   9.259   8.689   6.855
11196WAT      O33829   6.472   0.261   9.754
11196WAT     H133830   6.537   0.217   9.816
11196WAT     H233831   6.396   0.299   9.807
11197WAT      O33832   9.390   2.823   8.188
11197WAT     H133833   9.434   2.912   8.185
11197WAT     H233834   9.313   2.821   8.125
11198WAT      O33835   2.765   2.506   5.673
11198WAT     H133836   2.801   2.538   5.585
11198WAT     H233837   2.693   2.567   5.704
11199WAT      O33838   2.171   9.375   0.557
11199WAT     H133839   2.182   9.339   0.464
11199WAT     H233840   2.121   9.461   0.554
11200WAT      O33841   7.235   3.005   0.955
11200WAT     H133842   7.143   2.966   0.952
11200WAT     H233843   7.302   2.932   0.973
11201WAT      O33844   8.485   1.708   6.418
11201WAT     H133845   8.555   1.747   6.359
11201WAT     H233846   8.488   1.751   6.508
11202WAT      O33847   8.576   4.635   8.613
11202WAT     H133848   8.655   4.583   8.643
11202WAT     H233849   8.528   4.586   8.540
11203WAT      O33850   4.774   7.982   7.166
11203WAT     H133851   4.858   7.992   7.219
11203WAT     H233852   4.716   8.063   7.178
11204WAT      O33853   7.816   7.867   2.077
11204WAT     H133854   7.730   7.884   2.030
11204WAT     H233855   7.800   7.855   2.175
11205WAT      O33856   0.631   4.395   2.908
11205WAT     H133857   0.693   4.461   2.952
11205WAT     H233858   0.625   4.313   2.964
11206WAT      O33859   9.320   5.565   9.640
11206WAT     H133860   9.273   5.510   9.571
11206WAT     H233861   9.409   5.524   9.661
11207WAT      O33862   4.458   6.575   5.891
11207WAT     H133863   4.384   6.546   5.950
11207WAT     H233864   4.430   6.655   5.837
11208WAT      O33865   0.763   0.751   8.164
11208WAT     H133866   0.778   0.660   8.204
11208WAT     H233867   0.681   0.749   8.107
11209WAT      O33868   4.124   9.459   4.851
11209WAT     H133869   4.150   9.362   4.852
11209WAT     H233870   4.150   9.501   4.938
11210WAT      O33871   7.359   9.665   4.626
11210WAT     H133872   7.273   9.683   4.673
11210WAT     H233873   7.399   9.580   4.661
11211WAT      O33874   1.003   0.540   6.353
11211WAT     H133875   0.990   0.441   6.351
11211WAT     H233876   0.943   0.583   6.286
11212WAT      O33877   7.083   3.703   6.823
11212WAT     H133878   7.181   3.695   6.838
11212WAT     H233879   7.052   3.628   6.763
11213WAT      O33880   4.188   3.133   7.003
11213WAT     H133881   4.256   3.089   7.062
11213WAT     H233882   4.172   3.226   7.035
11214WAT      O33883   8.447   9.422   9.601
11214WAT     H133884   8.352   9.402   9.576
11214WAT     H233885   8.449   9.492   9.673
11215WAT      O33886   5.655   6.715   1.907
11215WAT     H133887   5.734   6.670   1.864
11215WAT     H233888   5.632   6.668   1.993
11216WAT      O33889   3.234   3.070   1.354
11216WAT     H133890   3.175   2.994   1.381
11216WAT     H233891   3.312   3.035   1.302
11217WAT      O33892   3.622   7.334   0.383
11217WAT     H133893   3.713   7.296   0.367
11217WAT     H233894   3.553   7.272   0.345
11218WAT      O33895   4.768   8.258   6.931
11218WAT     H133896   4.739   8.353   6.919
11218WAT     H233897   4.724   8.219   7.012
11219WAT      O33898   0.748   8.648   4.017
11219WAT     H133899   0.702   8.619   4.101
11219WAT     H233900   0.739   8.576   3.948
11220WAT      O33901   3.519   5.581   1.089
11220WAT     H133902   3.498   5.672   1.055
11220WAT     H233903   3.613   5.556   1.063
11221WAT      O33904   8.420   3.057   4.344
11221WAT     H133905   8.326   3.084   4.364
11221WAT     H233906   8.480   3.090   4.417
11222WAT      O33907   5.545   6.418   8.262
11222WAT     H133908   5.607   6.387   8.335
11222WAT     H233909   5.520   6.340   8.205
11223WAT      O33910   1.622   2.537   9.328
11223WAT     H133911   1.627   2.632   9.358
11223WAT     H233912   1.668   2.478   9.395
11224WAT      O33913   3.015   1.990   4.006
11224WAT     H133914   3.009   1.893   4.029
11224WAT     H233915   2.925   2.032   4.012
11225WAT      O33916   3.849   2.657   5.500
11225WAT     H133917   3.802   2.644   5.413
11225WAT     H233918   3.909   2.579   5.517
11226WAT      O33919   8.576   4.268   5.964
11226WAT     H133920   8.596   4.304   5.872
11226WAT     H233921   8.487   4.224   5.964
11227WAT      O33922   6.887   5.177   0.820
11227WAT     H133923   6.902   5.257   0.878
11227WAT     H233924   6.814   5.197   0.754
11228WAT      O33925   3.773   2.629   3.079
11228WAT     H133926   3.769   2.721   3.040
11228WAT     H233927   3.771   2.635   3.179
11229WAT      O33928   4.176   0.044   6.186
11229WAT     H133929   4.168   0.054   6.285
11229WAT     H233930   4.093   0.077   6.142
11230WAT      O33931   9.268   7.043   0.897
11230WAT     H133932   9.247   7.086   0.985
11230WAT     H233933   9.214   6.959   0.887
11231WAT      O33934   1.961   9.001   4.645
11231WAT     H133935   1.945   9.080   4.585
11231WAT     H233936   2.031   9.024   4.712
11232WAT      O33937   1.874   1.650   5.278
11232WAT     H133938   1.796   1.596   5.308
11232WAT     H233939   1.862   1.676   5.182
11233WAT      O33940   9.656   9.838   8.798
11233WAT     H133941   9.633   9.824   8.701
11233WAT     H233942   9.756   9.836   8.809
11234WAT      O33943   2.722   4.564   2.716
11234WAT     H133944   2.764   4.507   2.645
11234WAT     H233945   2.696   4.507   2.793
11235WAT      O33946   0.012   3.894   7.089
11235WAT     H133947   0.073   3.824   7.126
11235WAT     H233948   0.000   3.880   6.991
11236WAT      O33949   2.058   2.435   5.076
11236WAT     H133950   2.106   2.518   5.106
11236WAT     H233951   2.120   2.380   5.019
11237WAT      O33952   6.277   7.479   7.694
11237WAT     H133953   6.181   7.453   7.679
11237WAT     H233954   6.311   7.525   7.612
11238WAT      O33955   0.047   5.001   9.848
11238WAT     H133956   0.030   5.064   9.772
11238WAT     H233957   0.140   5.013   9.882
11239WAT      O33958   2.226   2.961   5.736
11239WAT     H133959   2.293   3.034   5.724
11239WAT     H233960   2.206   2.950   5.834
11240WAT      O33961   8.888   5.138   1.182
11240WAT     H133962   8.958   5.067   1.178
11240WAT     H233963   8.833   5.126   1.265
11241WAT      O33964   0.354   3.208   9.857
11241WAT     H133965   0.393   3.291   9.817
11241WAT     H233966   0.376   3.129   9.800
11242WAT      O33967   0.268   5.006   3.595
11242WAT     H133968   0.174   4.985   3.567
11242WAT     H233969   0.291   5.098   3.565
11243WAT      O33970   4.089   3.301   4.396
11243WAT     H133971   4.002   3.336   4.362
11243WAT     H233972   4.155   3.296   4.321
11244WAT      O33973   9.632   9.384   6.390
11244WAT     H133974   9.651   9.348   6.482
11244WAT     H233975   9.585   9.471   6.398
11245WAT      O33976   8.678   2.358   8.657
11245WAT     H133977   8.611   2.430   8.675
11245WAT     H233978   8.770   2.397   8.658
11246WAT      O33979   2.771   6.640   9.196
11246WAT     H133980   2.732   6.554   9.163
11246WAT     H233981   2.697   6.703   9.220
11247WAT      O33982   3.054   8.431   0.532
11247WAT     H133983   3.121   8.479   0.476
11247WAT     H233984   2.999   8.497   0.583
11248WAT      O33985   9.154   3.443   9.718
11248WAT     H133986   9.070   3.447   9.664
11248WAT     H233987   9.131   3.432   9.815
11249WAT      O33988   8.540   7.127   7.417
11249WAT     H133989   8.585   7.110   7.329
11249WAT     H233990   8.608   7.126   7.490
11250WAT      O33991   0.061   9.715   3.486
11250WAT     H133992   0.000   9.696   3.408
11250WAT     H233993   0.050   9.811   3.514
11251WAT      O33994   2.940   0.519   4.359
11251WAT     H133995   3.038   0.540   4.365
11251WAT     H233996   2.888   0.584   4.413
11252WAT      O33997   4.187   8.628   0.527
11252WAT     H133998   4.277   8.628   0.484
11252WAT     H233999   4.138   8.712   0.503
11253WAT      O34000   6.247   1.098   6.068
11253WAT     H134001   6.238   1.077   6.166
11253WAT     H234002   6.208   1.023   6.015
11254WAT      O34003   7.828   0.861   2.626
11254WAT     H134004   7.826   0.924   2.703
11254WAT     H234005   7.916   0.869   2.579
11255WAT      O34006   3.642   0.478   2.787
11255WAT     H134007   3.705   0.445   2.717
11255WAT     H234008   3.550   0.442   2.770
11256WAT      O34009   4.669   8.542   2.244
11256WAT     H134010   4.669   8.442   2.247
11256WAT     H234011   4.674   8.573   2.149
11257WAT      O34012   7.605   6.888   1.532
11257WAT     H134013   7.606   6.987   1.526
11257WAT     H234014   7.518   6.858   1.571
11258WAT      O34015   4.474   7.651   8.155
11258WAT     H134016   4.463   7.597   8.238
11258WAT     H234017   4.502   7.744   8.178
11259WAT      O34018   6.228   1.193   6.410
11259WAT     H134019   6.241   1.094   6.408
11259WAT     H234020   6.314   1.238   6.386
11260WAT      O34021   8.492   7.229   9.332
11260WAT     H134022   8.421   7.190   9.273
11260WAT     H234023   8.582   7.213   9.290
11261WAT      O34024   3.751   3.414   7.367
11261WAT     H134025   3.735   3.317   7.379
11261WAT     H234026   3.686   3.467   7.422
11262WAT      O34027   1.062   2.583   0.466
11262WAT     H134028   1.105   2.669   0.495
11262WAT     H234029   1.065   2.577   0.366
11263WAT      O34030   8.477   5.256   8.473
11263WAT     H134031   8.535   5.241   8.553
11263WAT     H234032   8.526   5.313   8.407
11264WAT      O34033   6.831   0.132   1.600
11264WAT     H134034   6.757   0.071   1.574
11264WAT     H234035   6.801   0.191   1.675
11265WAT      O34036   8.583   5.347   7.828
11265WAT     H134037   8.638   5.357   7.910
11265WAT     H234038   8.508   5.414   7.829
11266WAT      O34039   1.509   0.516   8.828
11266WAT     H134040   1.448   0.444   8.794
11266WAT     H234041   1.471   0.555   8.912
11267WAT      O34042   6.373   1.168   7.132
11267WAT     H134043   6.452   1.225   7.112
11267WAT     H234044   6.390   1.075   7.101
11268WAT      O34045   1.898   1.163   3.347
11268WAT     H134046   1.871   1.127   3.258
11268WAT     H234047   1.946   1.092   3.399
11269WAT      O34048   1.534   4.153   9.645
11269WAT     H134049   1.540   4.218   9.721
11269WAT     H234050   1.450   4.099   9.655
11270WAT      O34051   6.873   1.366   6.684
11270WAT     H134052   6.889   1.413   6.597
11270WAT     H234053   6.937   1.401   6.753
11271WAT      O34054   3.390   8.318   4.160
11271WAT     H134055   3.369   8.297   4.256
11271WAT     H234056   3.395   8.233   4.108
11272WAT      O34057   3.175   0.850   9.385
11272WAT     H134058   3.144   0.935   9.427
11272WAT     H234059   3.105   0.780   9.396
11273WAT      O34060   0.199   1.802   0.586
11273WAT     H134061   0.298   1.794   0.568
11273WAT     H234062   0.184   1.797   0.685
11274WAT      O34063   8.761   2.193   8.124
11274WAT     H134064   8.857   2.203   8.095
11274WAT     H234065   8.755   2.206   8.223
11275WAT      O34066   5.069   3.136   4.892
11275WAT     H134067   5.057   3.108   4.987
11275WAT     H234068   4.988   3.109   4.839
11276WAT      O34069   2.019   0.705   9.042
11276WAT     H134070   2.079   0.626   9.054
11276WAT     H234071   1.926   0.673   9.021
11277WAT      O34072   8.615   0.299   7.862
11277WAT     H134073   8.527   0.263   7.832
11277WAT     H234074   8.666   0.332   7.783
11278WAT      O34075   2.928   2.327   8.971
11278WAT     H134076   2.885   2.395   8.911
11278WAT     H234077   2.877   2.322   9.057
11279WAT      O34078   5.027   1.730   7.555
11279WAT     H134079   4.942   1.679   7.542
11279WAT     H234080   5.104   1.675   7.525
11280WAT      O34081   8.635   6.989   5.007
11280WAT     H134082   8.614   6.906   5.058
11280WAT     H234083   8.650   6.967   4.911
11281WAT      O34084   1.113   6.793   2.403
11281WAT     H134085   1.042   6.734   2.363
11281WAT     H234086   1.200   6.777   2.357
11282WAT      O34087   9.783   7.107   8.491
11282WAT     H134088   9.788   7.109   8.591
11282WAT     H234089   9.874   7.089   8.453
11283WAT      O34090   4.908   9.386   1.624
11283WAT     H134091   4.991   9.389   1.568
11283WAT     H234092   4.875   9.478   1.641
11284WAT      O34093   6.620   6.000   5.425
11284WAT     H134094   6.600   5.951   5.340
11284WAT     H234095   6.704   6.054   5.414
11285WAT      O34096   3.378   4.237   5.551
11285WAT     H134097   3.414   4.294   5.477
11285WAT     H234098   3.290   4.274   5.581
11286WAT      O34099   0.386   5.167   2.394
11286WAT     H134100   0.437   5.249   2.372
11286WAT     H234101   0.310   5.157   2.329
11287WAT      O34102   7.226   2.119   6.115
11287WAT     H134103   7.237   2.188   6.044
11287WAT     H234104   7.293   2.135   6.188
11288WAT      O34105   6.079   7.336   5.729
11288WAT     H134106   6.156   7.272   5.724
11288WAT     H234107   6.066   7.379   5.639
11289WAT      O34108   8.394   1.541   0.062
11289WAT     H134109   8.314   1.565   0.007
11289WAT     H234110   8.431   1.454   0.030
11290WAT      O34111   5.126   0.743   1.877
11290WAT     H134112   5.096   0.648   1.884
11290WAT     H234113   5.102   0.792   1.961
11291WAT      O34114   2.380   7.270   0.649
11291WAT     H134115   2.410   7.266   0.553
11291WAT     H234116   2.441   7.329   0.700
11292WAT      O34117   2.437   9.191   3.394
11292WAT     H134118   2.514   9.255   3.385
11292WAT     H234119   2.420   9.147   3.306
11293WAT      O34120   0.754   6.671   3.844
11293WAT     H134121   0.669   6.711   3.881
11293WAT     H234122   0.785   6.727   3.767
11294WAT      O34123   6.677   3.256   8.463
11294WAT     H134124   6.775   3.273   8.454
11294WAT     H234125   6.655   3.164   8.432
11295WAT      O34126   0.561   6.798   4.916
11295WAT     H134127   0.522   6.886   4.890
11295WAT     H234128   0.505   6.724   4.879
11296WAT      O34129   1.788   6.952   5.583
11296WAT     H134130   1.840   7.034   5.557
11296WAT     H234131   1.843   6.897   5.645
11297WAT      O34132   4.978   1.718   5.117
11297WAT     H134133   5.014   1.796   5.168
11297WAT     H234134   4.972   1.741   5.020
11298WAT      O34135   0.084   4.636   4.374
11298WAT     H134136   0.031   4.613   4.292
11298WAT     H234137   0.056   4.576   4.449
11299WAT      O34138   6.931   2.176   6.122
11299WAT     H134139   6.886   2.092   6.154
11299WAT     H234140   7.029   2.159   6.113
11300WAT      O34141   8.649   3.816   6.745
11300WAT     H134142   8.608   3.727   6.725
11300WAT     H234143   8.748   3.805   6.755
11301WAT      O34144   1.958   6.014   7.611
11301WAT     H134145   1.973   6.113   7.623
11301WAT     H234146   1.867   5.990   7.646
11302WAT      O34147   6.438   8.239   5.637
11302WAT     H134148   6.436   8.316   5.701
11302WAT     H234149   6.371   8.254   5.564
11303WAT      O34150   9.305   6.376   8.345
11303WAT     H134151   9.250   6.448   8.387
11303WAT     H234152   9.399   6.408   8.333
11304WAT      O34153   8.173   6.137   0.758
11304WAT     H134154   8.256   6.175   0.799
11304WAT     H234155   8.116   6.212   0.723
11305WAT      O34156   2.195   2.908   6.009
11305WAT     H134157   2.214   2.971   6.084
11305WAT     H234158   2.137   2.834   6.043
11306WAT      O34159   8.587   3.330   7.524
11306WAT     H134160   8.580   3.354   7.621
11306WAT     H234161   8.672   3.280   7.508
11307WAT      O34162   1.509   9.354   6.372
11307WAT     H134163   1.456   9.315   6.448
11307WAT     H234164   1.521   9.284   6.301
11308WAT      O34165   4.799   6.738   9.358
11308WAT     H134166   4.879   6.689   9.322
11308WAT     H234167   4.827   6.794   9.436
11309WAT      O34168   3.206   8.219   2.319
11309WAT     H134169   3.273   8.209   2.393
11309WAT     H234170   3.170   8.130   2.294
11310WAT      O34171   3.494   2.596   5.939
11310WAT     H134172   3.571   2.603   6.003
11310WAT     H234173   3.422   2.659   5.966
11311WAT      O34174   1.814   2.595   4.994
11311WAT     H134175   1.720   2.576   5.020
11311WAT     H234176   1.876   2.549   5.058
11312WAT      O34177   0.786   0.953   1.179
11312WAT     H134178   0.718   0.995   1.239
11312WAT     H234179   0.850   1.023   1.146
11313WAT      O34180   7.222   3.875   3.103
11313WAT     H134181   7.238   3.972   3.082
11313WAT     H234182   7.167   3.834   3.030
11314WAT      O34183   0.760   0.375   6.788
11314WAT     H134184   0.841   0.375   6.846
11314WAT     H234185   0.682   0.412   6.840
11315WAT      O34186   2.909   3.905   2.621
11315WAT     H134187   2.915   3.952   2.533
11315WAT     H234188   2.916   3.807   2.608
11316WAT      O34189   1.433   1.814   9.043
11316WAT     H134190   1.411   1.721   9.072
11316WAT     H234191   1.514   1.846   9.092
11317WAT      O34192   5.209   5.279   0.212
11317WAT     H134193   5.236   5.195   0.164
11317WAT     H234194   5.116   5.268   0.247
11318WAT      O34195   4.261   1.964   2.544
11318WAT     H134196   4.175   1.994   2.586
11318WAT     H234197   4.264   1.994   2.449
11319WAT      O34198   7.126   5.332   4.003
11319WAT     H134199   7.084   5.419   4.028
11319WAT     H234200   7.054   5.264   3.988
11320WAT      O34201   7.503   9.305   0.076
11320WAT     H134202   7.548   9.278  -0.009
11320WAT     H234203   7.528   9.399   0.099
11321WAT      O34204   0.117   0.723   7.411
11321WAT     H134205   0.169   0.672   7.343
11321WAT     H234206   0.140   0.820   7.405
11322WAT      O34207   0.423   1.350   5.662
11322WAT     H134208   0.457   1.267   5.617
11322WAT     H234209   0.445   1.430   5.606
11323WAT      O34210   0.283   2.603   6.704
11323WAT     H134211   0.237   2.691   6.694
11323WAT     H234212   0.380   2.617   6.725
11324WAT      O34213   8.585   5.413   3.880
11324WAT     H134214   8.546   5.484   3.939
11324WAT     H234215   8.605   5.332   3.935
11325WAT      O34216   1.293   2.841   5.026
11325WAT     H134217   1.278   2.872   5.120
11325WAT     H234218   1.265   2.746   5.017
11326WAT      O34219   2.710   4.171   7.842
11326WAT     H134220   2.632   4.127   7.888
11326WAT     H234221   2.755   4.104   7.782
11327WAT      O34222   1.145   8.917   8.148
11327WAT     H134223   1.243   8.929   8.139
11327WAT     H234224   1.119   8.920   8.244
11328WAT      O34225   7.870   2.799   5.841
11328WAT     H134226   7.797   2.864   5.819
11328WAT     H234227   7.956   2.829   5.799
11329WAT      O34228   2.618   7.651   8.466
11329WAT     H134229   2.713   7.638   8.440
11329WAT     H234230   2.568   7.695   8.392
11330WAT      O34231   4.027   3.375   1.975
11330WAT     H134232   3.956   3.317   2.015
11330WAT     H234233   4.003   3.471   1.986
11331WAT      O34234   5.591   5.697   6.943
11331WAT     H134235   5.633   5.608   6.929
11331WAT     H234236   5.584   5.746   6.856
11332WAT      O34237   6.373   6.726   6.945
11332WAT     H134238   6.396   6.673   6.863
11332WAT     H234239   6.412   6.818   6.937
11333WAT      O34240   8.978   1.847   9.471
11333WAT     H134241   8.982   1.851   9.371
11333WAT     H234242   9.068   1.820   9.507
11334WAT      O34243   5.377   5.200   5.943
11334WAT     H134244   5.423   5.134   6.002
11334WAT     H234245   5.445   5.253   5.892
11335WAT      O34246   6.177   3.745   8.552
11335WAT     H134247   6.102   3.745   8.618
11335WAT     H234248   6.247   3.811   8.579
11336WAT      O34249   0.833   5.416   5.278
11336WAT     H134250   0.922   5.380   5.249
11336WAT     H234251   0.848   5.494   5.339
11337WAT      O34252   2.463   6.190   2.449
11337WAT     H134253   2.456   6.093   2.470
11337WAT     H234254   2.457   6.202   2.350
11338WAT      O34255   9.032   8.215   0.467
11338WAT     H134256   8.981   8.177   0.389
11338WAT     H234257   9.050   8.312   0.450
11339WAT      O34258   4.412   0.212   5.814
11339WAT     H134259   4.370   0.281   5.874
11339WAT     H234260   4.448   0.257   5.732
11340WAT      O34261   5.358   2.597   7.603
11340WAT     H134262   5.313   2.551   7.680
11340WAT     H234263   5.351   2.540   7.522
11341WAT      O34264   2.777   7.859   0.094
11341WAT     H134265   2.701   7.913   0.129
11341WAT     H234266   2.794   7.781   0.155
11342WAT      O34267   5.560   2.231   6.112
11342WAT     H134268   5.485   2.208   6.174
11342WAT     H234269   5.590   2.149   6.063
11343WAT      O34270   6.479   9.582   6.086
11343WAT     H134271   6.490   9.551   5.991
11343WAT     H234272   6.415   9.659   6.088
11344WAT      O34273   1.186   3.047   6.331
11344WAT     H134274   1.198   2.970   6.269
11344WAT     H234275   1.164   3.129   6.278
11345WAT      O34276   2.940   5.032   3.182
11345WAT     H134277   2.903   5.016   3.273
11345WAT     H234278   2.887   5.103   3.136
11346WAT      O34279   2.062   4.760   9.059
11346WAT     H134280   2.093   4.683   9.114
11346WAT     H234281   2.035   4.728   8.969
11347WAT      O34282   6.175   3.385   7.581
11347WAT     H134283   6.134   3.433   7.503
11347WAT     H234284   6.122   3.403   7.663
11348WAT      O34285   9.594   3.407   8.854
11348WAT     H134286   9.665   3.381   8.789
11348WAT     H234287   9.505   3.409   8.807
11349WAT      O34288   3.854   0.865   9.397
11349WAT     H134289   3.933   0.816   9.434
11349WAT     H234290   3.832   0.942   9.458
11350WAT      O34291   7.330   0.579   0.879
11350WAT     H134292   7.316   0.641   0.802
11350WAT     H234293   7.243   0.535   0.902
11351WAT      O34294   3.269   1.934   4.104
11351WAT     H134295   3.175   1.947   4.072
11351WAT     H234296   3.267   1.897   4.197
11352WAT      O34297   2.803   5.018   3.413
11352WAT     H134298   2.768   5.111   3.401
11352WAT     H234299   2.733   4.962   3.456
11353WAT      O34300   1.515   3.669   1.398
11353WAT     H134301   1.606   3.703   1.377
11353WAT     H234302   1.480   3.715   1.480
11354WAT      O34303   5.135   5.465   9.280
11354WAT     H134304   5.081   5.544   9.308
11354WAT     H234305   5.166   5.476   9.186
11355WAT      O34306   1.084   9.224   4.083
11355WAT     H134307   1.113   9.136   4.120
11355WAT     H234308   1.016   9.210   4.011
11356WAT      O34309   7.503   9.502   6.844
11356WAT     H134310   7.541   9.587   6.879
11356WAT     H234311   7.412   9.519   6.806
11357WAT      O34312   5.693   6.825   9.229
11357WAT     H134313   5.771   6.817   9.291
11357WAT     H234314   5.727   6.834   9.135
11358WAT      O34315   6.523   2.830   3.254
11358WAT     H134316   6.608   2.796   3.214
11358WAT     H234317   6.447   2.772   3.222
11359WAT      O34318   0.210   0.454   6.963
11359WAT     H134319   0.251   0.522   6.903
11359WAT     H234320   0.250   0.364   6.944
11360WAT      O34321   5.023   3.757   2.725
11360WAT     H134322   5.063   3.785   2.638
11360WAT     H234323   4.955   3.824   2.754
11361WAT      O34324   9.207   3.300   1.011
11361WAT     H134325   9.270   3.315   0.935
11361WAT     H234326   9.115   3.330   0.984
11362WAT      O34327   6.866   4.235   2.369
11362WAT     H134328   6.870   4.136   2.376
11362WAT     H234329   6.857   4.261   2.273
11363WAT      O34330   9.323   6.789   4.998
11363WAT     H134331   9.363   6.769   4.908
11363WAT     H234332   9.236   6.837   4.986
11364WAT      O34333   4.268   1.245   2.914
11364WAT     H134334   4.237   1.190   2.991
11364WAT     H234335   4.200   1.240   2.841
11365WAT      O34336   1.447   5.859   6.342
11365WAT     H134337   1.432   5.762   6.365
11365WAT     H234338   1.405   5.879   6.254
11366WAT      O34339   8.491   2.636   0.464
11366WAT     H134340   8.485   2.734   0.443
11366WAT     H234341   8.456   2.620   0.556
11367WAT      O34342   3.671   9.383   0.287
11367WAT     H134343   3.729   9.421   0.215
11367WAT     H234344   3.601   9.449   0.313
11368WAT      O34345   4.880   5.382   9.640
11368WAT     H134346   4.953   5.446   9.663
11368WAT     H234347   4.821   5.423   9.571
11369WAT      O34348   2.059   0.694   8.567
11369WAT     H134349   2.008   0.757   8.626
11369WAT     H234350   2.117   0.635   8.624
11370WAT      O34351   3.854   6.126   3.805
11370WAT     H134352   3.846   6.208   3.748
11370WAT     H234353   3.806   6.050   3.762
11371WAT      O34354   1.122   7.308   0.471
11371WAT     H134355   1.090   7.306   0.566
11371WAT     H234356   1.108   7.218   0.429
11372WAT      O34357   9.733   3.298   7.927
11372WAT     H134358   9.687   3.254   7.849
11372WAT     H234359   9.786   3.376   7.894
11373WAT      O34360   0.832   0.006   1.347
11373WAT     H134361   0.814   0.030   1.442
11373WAT     H234362   0.860  -0.090   1.342
11374WAT      O34363   6.916   4.876   1.096
11374WAT     H134364   6.897   4.779   1.113
11374WAT     H234365   6.871   4.905   1.011
11375WAT      O34366   6.417   4.875   6.586
11375WAT     H134367   6.347   4.945   6.568
11375WAT     H234368   6.421   4.811   6.510
11376WAT      O34369   2.980   7.059   7.440
11376WAT     H134370   3.029   7.113   7.372
11376WAT     H234371   3.030   7.060   7.526
11377WAT      O34372   7.958   6.313   8.694
11377WAT     H134373   7.943   6.278   8.602
11377WAT     H234374   7.871   6.335   8.737
11378WAT      O34375   2.841   3.022   1.366
11378WAT     H134376   2.768   2.955   1.377
11378WAT     H234377   2.929   2.977   1.381
11379WAT      O34378   5.521   2.474   1.285
11379WAT     H134379   5.544   2.478   1.188
11379WAT     H234380   5.600   2.501   1.340
11380WAT      O34381   2.748   6.016   7.225
11380WAT     H134382   2.751   5.926   7.268
11380WAT     H234383   2.812   6.019   7.148
11381WAT      O34384   3.229   0.339   9.536
11381WAT     H134385   3.190   0.248   9.527
11381WAT     H234386   3.286   0.361   9.457
11382WAT      O34387   3.909   4.658   2.242
11382WAT     H134388   3.998   4.626   2.212
11382WAT     H234389   3.921   4.728   2.313
11383WAT      O34390   4.786   6.960   2.944
11383WAT     H134391   4.832   6.873   2.927
11383WAT     H234392   4.835   7.034   2.899
11384WAT      O34393   2.013   1.228   1.050
11384WAT     H134394   2.066   1.143   1.059
11384WAT     H234395   2.075   1.304   1.033
11385WAT      O34396   4.543   5.499   3.206
11385WAT     H134397   4.483   5.489   3.285
11385WAT     H234398   4.509   5.572   3.147
11386WAT      O34399   0.625   0.489   9.083
11386WAT     H134400   0.702   0.452   9.032
11386WAT     H234401   0.624   0.450   9.175
11387WAT      O34402   9.206   9.371   1.800
11387WAT     H134403   9.124   9.316   1.787
11387WAT     H234404   9.194   9.430   1.880
11388WAT      O34405   3.010   0.025   8.617
11388WAT     H134406   2.915   0.003   8.637
11388WAT     H234407   3.023   0.028   8.518
11389WAT      O34408   7.542   5.188   1.551
11389WAT     H134409   7.597   5.120   1.600
11389WAT     H234410   7.462   5.142   1.511
11390WAT      O34411   2.721   2.501   9.811
11390WAT     H134412   2.630   2.532   9.784
11390WAT     H234413   2.724   2.484   9.909
11391WAT      O34414   1.973   3.115   4.493
11391WAT     H134415   1.922   3.031   4.511
11391WAT     H234416   2.025   3.141   4.575
11392WAT      O34417   3.151   1.002   7.879
11392WAT     H134418   3.140   1.098   7.907
11392WAT     H234419   3.063   0.963   7.855
11393WAT      O34420   7.588   5.438   7.748
11393WAT     H134421   7.514   5.502   7.726
11393WAT     H234422   7.591   5.365   7.680
11394WAT      O34423   0.323   4.416   0.408
11394WAT     H134424   0.416   4.386   0.427
11394WAT     H234425   0.304   4.404   0.311
11395WAT      O34426   5.883   6.978   9.887
11395WAT     H134427   5.888   7.066   9.933
11395WAT     H234428   5.971   6.930   9.896
11396WAT      O34429   1.881   1.256   4.825
11396WAT     H134430   1.878   1.267   4.726
11396WAT     H234431   1.788   1.262   4.862
11397WAT      O34432   7.675   6.662   6.411
11397WAT     H134433   7.589   6.613   6.430
11397WAT     H234434   7.676   6.748   6.462
11398WAT      O34435   6.383   5.928   3.927
11398WAT     H134436   6.444   5.857   3.963
11398WAT     H234437   6.297   5.887   3.898
11399WAT      O34438   5.236   7.744   2.483
11399WAT     H134439   5.138   7.721   2.480
11399WAT     H234440   5.267   7.768   2.391
11400WAT      O34441   6.017   9.614   4.791
11400WAT     H134442   6.038   9.529   4.743
11400WAT     H234443   6.050   9.692   4.736
11401WAT      O34444   3.138   1.585   3.215
11401WAT     H134445   3.119   1.518   3.143
11401WAT     H234446   3.170   1.538   3.297
11402WAT      O34447   6.110   2.437   2.527
11402WAT     H134448   6.054   2.357   2.547
11402WAT     H234449   6.143   2.477   2.612
11403WAT      O34450   1.756   1.519   1.951
11403WAT     H134451   1.721   1.535   1.858
11403WAT     H234452   1.838   1.574   1.965
11404WAT      O34453   0.233   3.592   3.334
11404WAT     H134454   0.309   3.547   3.381
11404WAT     H234455   0.261   3.617   3.242
11405WAT      O34456   1.038   0.751   7.961
11405WAT     H134457   0.994   0.747   7.871
11405WAT     H234458   1.070   0.845   7.978
11406WAT      O34459   8.830   8.599   5.301
11406WAT     H134460   8.741   8.562   5.326
11406WAT     H234461   8.876   8.535   5.239
11407WAT      O34462   2.016   9.537   4.021
11407WAT     H134463   2.008   9.496   3.930
11407WAT     H234464   2.084   9.487   4.074
11408WAT      O34465   8.356   7.502   6.814
11408WAT     H134466   8.370   7.426   6.877
11408WAT     H234467   8.383   7.474   6.722
11409WAT      O34468   2.243   0.582   0.790
11409WAT     H134469   2.267   0.509   0.853
11409WAT     H234470   2.238   0.669   0.840
11410WAT      O34471   5.663   7.659   1.795
11410WAT     H134472   5.762   7.649   1.782
11410WAT     H234473   5.623   7.699   1.713
11411WAT      O34474   7.521   7.575   0.176
11411WAT     H134475   7.532   7.648   0.109
11411WAT     H234476   7.434   7.585   0.223
11412WAT      O34477   2.131   0.821   7.918
11412WAT     H134478   2.168   0.908   7.950
11412WAT     H234479   2.189   0.783   7.846
11413WAT      O34480   5.072   3.700   4.844
11413WAT     H134481   5.063   3.734   4.751
11413WAT     H234482   5.067   3.600   4.843
11414WAT      O34483   9.615   8.247   7.535
11414WAT     H134484   9.607   8.322   7.470
11414WAT     H234485   9.712   8.230   7.555
11415WAT      O34486   7.601   6.212   5.853
11415WAT     H134487   7.586   6.198   5.951
11415WAT     H234488   7.695   6.241   5.837
11416WAT      O34489   8.877   4.601   6.286
11416WAT     H134490   8.844   4.535   6.353
11416WAT     H234491   8.899   4.554   6.201
11417WAT      O34492   8.649   5.365   6.578
11417WAT     H134493   8.580   5.414   6.630
11417WAT     H234494   8.604   5.304   6.512
11418WAT      O34495   7.847   9.843   0.276
11418WAT     H134496   7.791   9.810   0.352
11418WAT     H234497   7.852   9.771   0.206
11419WAT      O34498   9.046   9.524   1.366
11419WAT     H134499   8.966   9.581   1.388
11419WAT     H234500   9.107   9.522   1.445
11420WAT      O34501   7.528   3.190   0.505
11420WAT     H134502   7.466   3.203   0.427
11420WAT     H234503   7.518   3.097   0.539
11421WAT      O34504   4.268   7.626   3.304
11421WAT     H134505   4.175   7.655   3.330
11421WAT     H234506   4.333   7.658   3.373
11422WAT      O34507   4.139   3.522   5.230
11422WAT     H134508   4.146   3.605   5.176
11422WAT     H234509   4.226   3.505   5.276
11423WAT      O34510   3.838   2.462   3.951
11423WAT     H134511   3.918   2.492   4.003
11423WAT     H234512   3.769   2.534   3.952
11424WAT      O34513   0.522   4.581   6.588
11424WAT     H134514   0.510   4.483   6.606
11424WAT     H234515   0.433   4.625   6.581
11425WAT      O34516   9.460   7.836   5.938
11425WAT     H134517   9.368   7.796   5.939
11425WAT     H234518   9.486   7.863   6.031
11426WAT      O34519   7.823   5.350   9.498
11426WAT     H134520   7.876   5.431   9.475
11426WAT     H234521   7.842   5.324   9.593
11427WAT      O34522   5.221   9.268   5.866
11427WAT     H134523   5.215   9.306   5.959
11427WAT     H234524   5.158   9.192   5.856
11428WAT      O34525   3.362   1.599   1.706
11428WAT     H134526   3.388   1.520   1.763
11428WAT     H234527   3.423   1.604   1.627
11429WAT      O34528   9.862   0.376   4.972
11429WAT     H134529   9.938   0.439   4.957
11429WAT     H234530   9.817   0.356   4.885
11430WAT      O34531   2.043   2.080   9.218
11430WAT     H134532   2.131   2.031   9.220
11430WAT     H234533   2.040   2.139   9.137
11431WAT      O34534   8.139   4.736   7.478
11431WAT     H134535   8.089   4.703   7.398
11431WAT     H234536   8.080   4.795   7.532
11432WAT      O34537   4.920   8.115   0.998
11432WAT     H134538   4.949   8.033   0.948
11432WAT     H234539   4.969   8.195   0.962
11433WAT      O34540   3.391   9.384   6.023
11433WAT     H134541   3.458   9.433   5.968
11433WAT     H234542   3.436   9.312   6.076
11434WAT      O34543   9.088   6.820   0.834
11434WAT     H134544   9.018   6.878   0.791
11434WAT     H234545   9.147   6.781   0.763
11435WAT      O34546   5.558   7.608   7.054
11435WAT     H134547   5.640   7.638   7.004
11435WAT     H234548   5.538   7.513   7.032
11436WAT      O34549   5.216   8.806   9.051
11436WAT     H134550   5.220   8.832   8.954
11436WAT     H234551   5.275   8.727   9.067
11437WAT      O34552   7.758   2.386   1.548
11437WAT     H134553   7.846   2.434   1.550
11437WAT     H234554   7.769   2.298   1.502
11438WAT      O34555   3.996   0.239   1.007
11438WAT     H134556   4.041   0.245   1.096
11438WAT     H234557   3.943   0.322   0.990
11439WAT      O34558   3.967   1.169   9.009
11439WAT     H134559   3.963   1.180   9.108
11439WAT     H234560   3.881   1.201   8.968
11440WAT      O34561   1.409   6.899   3.260
11440WAT     H134562   1.501   6.938   3.268
11440WAT     H234563   1.351   6.935   3.333
11441WAT      O34564   4.261   5.486   6.900
11441WAT     H134565   4.323   5.526   6.832
11441WAT     H234566   4.293   5.395   6.925
11442WAT      O34567   1.871   3.686   8.837
11442WAT     H134568   1.806   3.667   8.910
11442WAT     H234569   1.822   3.696   8.750
11443WAT      O34570   8.581   1.551   8.460
11443WAT     H134571   8.559   1.454   8.466
11443WAT     H234572   8.599   1.587   8.552
11444WAT      O34573   9.418   3.994   1.648
11444WAT     H134574   9.364   3.926   1.698
11444WAT     H234575   9.508   3.955   1.627
11445WAT      O34576   9.043   7.272   4.231
11445WAT     H134577   9.123   7.330   4.244
11445WAT     H234578   9.068   7.193   4.175
11446WAT      O34579   0.747   8.717   9.214
11446WAT     H134580   0.652   8.750   9.210
11446WAT     H234581   0.758   8.659   9.294
11447WAT      O34582   2.654   5.753   6.147
11447WAT     H134583   2.650   5.733   6.049
11447WAT     H234584   2.568   5.793   6.176
11448WAT      O34585   1.768   8.079   9.207
11448WAT     H134586   1.729   7.989   9.222
11448WAT     H234587   1.715   8.147   9.257
11449WAT      O34588   3.107   8.430   1.967
11449WAT     H134589   3.025   8.453   1.915
11449WAT     H234590   3.166   8.511   1.974
11450WAT      O34591   4.568   9.069   7.535
11450WAT     H134592   4.625   9.080   7.616
11450WAT     H234593   4.528   8.977   7.534
11451WAT      O34594   8.455   2.045   5.257
11451WAT     H134595   8.483   2.026   5.351
11451WAT     H234596   8.508   1.989   5.195
11452WAT      O34597   8.350   6.413   9.036
11452WAT     H134598   8.269   6.468   9.058
11452WAT     H234599   8.415   6.417   9.112
11453WAT      O34600   9.541   8.981   1.838
11453WAT     H134601   9.478   8.906   1.817
11453WAT     H234602   9.547   8.993   1.937
11454WAT      O34603   2.648   0.732   4.736
11454WAT     H134604   2.711   0.705   4.809
11454WAT     H234605   2.554   0.707   4.763
11455WAT      O34606   0.148   6.561   1.781
11455WAT     H134607   0.183   6.636   1.724
11455WAT     H234608   0.222   6.525   1.838
11456WAT      O34609   1.614   2.983   4.539
11456WAT     H134610   1.569   3.029   4.615
11456WAT     H234611   1.545   2.940   4.481
11457WAT      O34612   5.044   6.735   0.570
11457WAT     H134613   5.143   6.737   0.586
11457WAT     H234614   4.996   6.747   0.657
11458WAT      O34615   5.094   2.954   8.276
11458WAT     H134616   5.080   3.049   8.250
11458WAT     H234617   5.009   2.903   8.263
11459WAT      O34618   3.052   0.439   5.186
11459WAT     H134619   3.101   0.352   5.192
11459WAT     H234620   2.972   0.429   5.127
11460WAT      O34621   2.591   9.474   2.504
11460WAT     H134622   2.681   9.475   2.460
11460WAT     H234623   2.598   9.512   2.596
11461WAT      O34624   1.690   3.972   9.245
11461WAT     H134625   1.746   4.013   9.317
11461WAT     H234626   1.602   3.944   9.283
11462WAT      O34627   6.340   4.851   0.607
11462WAT     H134628   6.266   4.909   0.575
11462WAT     H234629   6.345   4.856   0.707
11463WAT      O34630   2.895   7.533   2.963
11463WAT     H134631   2.907   7.437   2.990
11463WAT     H234632   2.930   7.547   2.871
11464WAT      O34633   9.775   7.249   2.067
11464WAT     H134634   9.859   7.204   2.098
11464WAT     H234635   9.744   7.205   1.983
11465WAT      O34636   2.899   1.972   6.080
11465WAT     H134637   2.913   1.896   6.145
11465WAT     H234638   2.933   2.057   6.120
11466WAT      O34639   7.169   8.435   4.910
11466WAT     H134640   7.260   8.472   4.890
11466WAT     H234641   7.158   8.424   5.009
11467WAT      O34642   2.296   1.153   9.485
11467WAT     H134643   2.374   1.133   9.545
11467WAT     H234644   2.227   1.205   9.537
11468WAT      O34645   6.181   1.534   6.116
11468WAT     H134646   6.208   1.481   6.035
11468WAT     H234647   6.238   1.507   6.194
11469WAT      O34648   7.145   6.630   6.841
11469WAT     H134649   7.138   6.548   6.897
11469WAT     H234650   7.062   6.685   6.853
11470WAT      O34651   5.426   7.849   1.699
11470WAT     H134652   5.417   7.916   1.773
11470WAT     H234653   5.335   7.814   1.675
11471WAT      O34654   0.017   6.202   6.339
11471WAT     H134655  -0.031   6.225   6.254
11471WAT     H234656   0.022   6.284   6.397
11472WAT      O34657   8.634   7.424   1.639
11472WAT     H134658   8.609   7.495   1.573
11472WAT     H234659   8.644   7.465   1.730
11473WAT      O34660   4.952   5.135   3.477
11473WAT     H134661   5.043   5.167   3.448
11473WAT     H234662   4.948   5.036   3.467
11474WAT      O34663   0.673   3.565   4.947
11474WAT     H134664   0.765   3.547   4.981
11474WAT     H234665   0.607   3.509   4.998
11475WAT      O34666   9.490   4.070   8.631
11475WAT     H134667   9.436   4.013   8.693
11475WAT     H234668   9.475   4.166   8.653
11476WAT      O34669   6.985   7.169   1.690
11476WAT     H134670   7.026   7.172   1.599
11476WAT     H234671   6.902   7.113   1.687
11477WAT      O34672   6.553   9.434   2.652
11477WAT     H134673   6.610   9.428   2.734
11477WAT     H234674   6.499   9.351   2.643
11478WAT      O34675   0.092   9.634   7.616
11478WAT     H134676   0.004   9.673   7.640
11478WAT     H234677   0.110   9.553   7.672
11479WAT      O34678   9.339   8.383   2.354
11479WAT     H134679   9.257   8.418   2.310
11479WAT     H234680   9.315   8.307   2.414
11480WAT      O34681   2.105   8.575   7.493
11480WAT     H134682   2.034   8.549   7.558
11480WAT     H234683   2.077   8.550   7.400
11481WAT      O34684   1.180   1.652   7.166
11481WAT     H134685   1.109   1.695   7.222
11481WAT     H234686   1.139   1.582   7.108
11482WAT      O34687   9.783   6.177   5.765
11482WAT     H134688   9.862   6.134   5.809
11482WAT     H234689   9.798   6.275   5.759
11483WAT      O34690   7.307   0.477   4.998
11483WAT     H134691   7.285   0.506   5.091
11483WAT     H234692   7.264   0.538   4.932
11484WAT      O34693   2.029   5.062   2.480
11484WAT     H134694   2.003   5.068   2.384
11484WAT     H234695   2.122   5.098   2.492
11485WAT      O34696   8.367   3.508   3.424
11485WAT     H134697   8.402   3.580   3.364
11485WAT     H234698   8.433   3.491   3.497
11486WAT      O34699   6.098   3.998   0.902
11486WAT     H134700   6.173   4.038   0.850
11486WAT     H234701   6.011   4.032   0.867
11487WAT      O34702   2.950   9.818   1.800
11487WAT     H134703   2.887   9.773   1.864
11487WAT     H234704   2.930   9.787   1.707
11488WAT      O34705   9.297   0.682   6.694
11488WAT     H134706   9.250   0.603   6.656
11488WAT     H234707   9.374   0.706   6.635
11489WAT      O34708   8.761   8.001   9.814
11489WAT     H134709   8.808   7.924   9.857
11489WAT     H234710   8.705   8.048   9.883
11490WAT      O34711   9.088   8.438   2.253
11490WAT     H134712   9.113   8.531   2.277
11490WAT     H234713   9.013   8.440   2.187
11491WAT      O34714   4.291   0.753   1.944
11491WAT     H134715   4.237   0.669   1.944
11491WAT     H234716   4.336   0.764   2.033
11492WAT      O34717   2.322   8.565   5.235
11492WAT     H134718   2.405   8.539   5.284
11492WAT     H234719   2.282   8.484   5.193
11493WAT      O34720   0.806   4.861   0.022
11493WAT     H134721   0.893   4.836  -0.020
11493WAT     H234722   0.809   4.839   0.120
11494WAT      O34723   0.812   3.645   1.913
11494WAT     H134724   0.855   3.628   1.824
11494WAT     H234725   0.749   3.722   1.906
11495WAT      O34726   6.976   0.978   3.173
11495WAT     H134727   6.885   0.995   3.211
11495WAT     H234728   6.971   0.983   3.073
11496WAT      O34729   6.622   4.661   0.848
11496WAT     H134730   6.702   4.625   0.895
11496WAT     H234731   6.649   4.697   0.758
11497WAT      O34732   7.583   0.277   7.499
11497WAT     H134733   7.487   0.288   7.523
11497WAT     H234734   7.619   0.363   7.464
11498WAT      O34735   9.269   8.695   4.467
11498WAT     H134736   9.173   8.691   4.493
11498WAT     H234737   9.317   8.762   4.524
11499WAT      O34738   8.061   0.006   6.723
11499WAT     H134739   8.009   0.029   6.640
11499WAT     H234740   8.148  -0.035   6.698
11500WAT      O34741   3.768   3.723   2.488
11500WAT     H134742   3.696   3.705   2.555
11500WAT     H234743   3.782   3.822   2.480
11501WAT      O34744   3.833   6.674   4.662
11501WAT     H134745   3.867   6.580   4.667
11501WAT     H234746   3.743   6.680   4.706
11502WAT      O34747   0.548   8.558   5.109
11502WAT     H134748   0.628   8.510   5.146
11502WAT     H234749   0.573   8.652   5.087
11503WAT      O34750   9.185   0.600   0.761
11503WAT     H134751   9.139   0.548   0.833
11503WAT     H234752   9.244   0.538   0.708
11504WAT      O34753   4.732   1.377   8.442
11504WAT     H134754   4.792   1.356   8.519
11504WAT     H234755   4.656   1.312   8.440
11505WAT      O34756   2.207   3.487   3.087
11505WAT     H134757   2.293   3.444   3.060
11505WAT     H234758   2.133   3.450   3.032
11506WAT      O34759   0.492   6.039   5.234
11506WAT     H134760   0.539   5.962   5.190
11506WAT     H234761   0.394   6.030   5.222
11507WAT      O34762   8.507   1.458   4.189
11507WAT     H134763   8.474   1.543   4.148
11507WAT     H234764   8.504   1.465   4.288
11508WAT      O34765   2.893   4.208   9.445
11508WAT     H134766   2.870   4.144   9.372
11508WAT     H234767   2.809   4.248   9.482
11509WAT      O34768   0.157   1.146   0.297
11509WAT     H134769   0.149   1.168   0.394
11509WAT     H234770   0.140   1.229   0.243
11510WAT      O34771   0.715   1.340   9.408
11510WAT     H134772   0.653   1.366   9.334
11510WAT     H234773   0.662   1.307   9.486
11511WAT      O34774   3.496   0.280   5.703
11511WAT     H134775   3.560   0.216   5.745
11511WAT     H234776   3.464   0.243   5.616
11512WAT      O34777   6.535   0.364   1.020
11512WAT     H134778   6.540   0.370   0.920
11512WAT     H234779   6.523   0.268   1.047
11513WAT      O34780   5.099   2.663   0.627
11513WAT     H134781   5.098   2.564   0.617
11513WAT     H234782   5.014   2.693   0.671
11514WAT      O34783   6.483   1.464   5.217
11514WAT     H134784   6.400   1.408   5.209
11514WAT     H234785   6.488   1.528   5.140
11515WAT      O34786   7.293   0.758   0.031
11515WAT     H134787   7.217   0.822   0.042
11515WAT     H234788   7.379   0.806   0.048
11516WAT      O34789   4.966   0.162   0.461
11516WAT     H134790   5.053   0.114   0.461
11516WAT     H234791   4.978   0.255   0.427
11517WAT      O34792   4.948   2.880   8.721
11517WAT     H134793   4.910   2.881   8.813
11517WAT     H234794   4.878   2.908   8.655
11518WAT      O34795   2.525   3.810   8.188
11518WAT     H134796   2.615   3.789   8.226
11518WAT     H234797   2.464   3.732   8.201
11519WAT      O34798   6.016   2.821   8.878
11519WAT     H134799   5.952   2.890   8.913
11519WAT     H234800   5.979   2.781   8.794
11520WAT      O34801   1.464   4.352   6.044
11520WAT     H134802   1.472   4.322   5.949
11520WAT     H234803   1.378   4.318   6.083
11521WAT      O34804   3.302   7.224   6.742
11521WAT     H134805   3.221   7.170   6.717
11521WAT     H234806   3.298   7.313   6.696
11522WAT      O34807   0.125   2.255   0.410
11522WAT     H134808   0.141   2.171   0.358
11522WAT     H234809   0.037   2.250   0.455
11523WAT      O34810   3.963   2.922   7.476
11523WAT     H134811   4.042   2.873   7.440
11523WAT     H234812   3.994   2.987   7.547
11524WAT      O34813   1.786   4.113   6.564
11524WAT     H134814   1.771   4.121   6.662
11524WAT     H234815   1.866   4.055   6.546
11525WAT      O34816   8.770   5.802   6.112
11525WAT     H134817   8.672   5.787   6.114
11525WAT     H234818   8.817   5.717   6.135
11526WAT      O34819   4.048   1.241   5.376
11526WAT     H134820   4.078   1.208   5.466
11526WAT     H234821   4.055   1.168   5.309
11527WAT      O34822   5.750   5.015   0.738
11527WAT     H134823   5.781   5.028   0.644
11527WAT     H234824   5.650   5.011   0.739
11528WAT      O34825   7.797   4.992   2.968
11528WAT     H134826   7.773   4.904   3.009
11528WAT     H234827   7.731   5.015   2.897
11529WAT      O34828   1.892   0.629   2.764
11529WAT     H134829   1.942   0.596   2.683
11529WAT     H234830   1.873   0.727   2.753
11530WAT      O34831   0.545   8.184   5.072
11530WAT     H134832   0.594   8.106   5.032
11530WAT     H234833   0.469   8.210   5.012
11531WAT      O34834   2.033   6.295   3.964
11531WAT     H134835   1.988   6.213   4.000
11531WAT     H234836   2.018   6.301   3.865
11532WAT      O34837   3.320   8.288   5.289
11532WAT     H134838   3.382   8.239   5.228
11532WAT     H234839   3.346   8.385   5.293
11533WAT      O34840   7.742   3.862   2.480
11533WAT     H134841   7.650   3.902   2.481
11533WAT     H234842   7.740   3.774   2.527
11534WAT      O34843   4.579   0.818   1.370
11534WAT     H134844   4.622   0.728   1.361
11534WAT     H234845   4.628   0.871   1.440
11535WAT      O34846   8.075   2.400   5.548
11535WAT     H134847   8.072   2.467   5.622
11535WAT     H234848   8.170   2.373   5.531
11536WAT      O34849   0.965   1.323   8.811
11536WAT     H134850   0.882   1.307   8.864
11536WAT     H234851   1.000   1.415   8.830
11537WAT      O34852   2.799   1.015   1.228
11537WAT     H134853   2.715   0.969   1.197
11537WAT     H234854   2.777   1.106   1.261
11538WAT      O34855   3.004   4.441   0.652
11538WAT     H134856   3.038   4.449   0.558
11538WAT     H234857   2.947   4.520   0.674
11539WAT      O34858   2.886   4.941   5.205
11539WAT     H134859   2.901   4.853   5.251
11539WAT     H234860   2.914   4.934   5.109
11540WAT      O34861   3.490   4.543   9.484
11540WAT     H134862   3.566   4.606   9.469
11540WAT     H234863   3.526   4.451   9.499
11541WAT      O34864   9.628   5.418   1.512
11541WAT     H134865   9.670   5.467   1.435
11541WAT     H234866   9.568   5.347   1.476
11542WAT      O34867   1.402   5.590   1.946
11542WAT     H134868   1.306   5.569   1.927
11542WAT     H234869   1.453   5.505   1.962
11543WAT      O34870   1.749   6.674   3.420
11543WAT     H134871   1.755   6.574   3.427
11543WAT     H234872   1.831   6.715   3.459
11544WAT      O34873   6.580   7.920   4.430
11544WAT     H134874   6.493   7.934   4.477
11544WAT     H234875   6.654   7.913   4.497
11545WAT      O34876   6.058   8.456   8.691
11545WAT     H134877   6.073   8.553   8.672
11545WAT     H234878   5.963   8.442   8.719
11546WAT      O34879   9.640   2.735   4.657
11546WAT     H134880   9.600   2.818   4.617
11546WAT     H234881   9.736   2.751   4.679
11547WAT      O34882   1.515   3.620   2.287
11547WAT     H134883   1.601   3.615   2.337
11547WAT     H234884   1.441   3.584   2.345
11548WAT      O34885   8.966   1.696   7.727
11548WAT     H134886   9.034   1.667   7.794
11548WAT     H234887   9.000   1.676   7.635
11549WAT      O34888   1.525   4.426   6.848
11549WAT     H134889   1.446   4.443   6.790
11549WAT     H234890   1.587   4.362   6.802
11550WAT      O34891   9.489   8.346   6.981
11550WAT     H134892   9.476   8.273   7.049
11550WAT     H234893   9.424   8.333   6.906
11551WAT      O34894   2.107   0.886   0.361
11551WAT     H134895   2.145   0.974   0.390
11551WAT     H234896   2.007   0.892   0.358
11552WAT      O34897   1.120   5.316   7.787
11552WAT     H134898   1.196   5.278   7.840
11552WAT     H234899   1.152   5.394   7.734
11553WAT      O34900   9.559   3.463   9.552
11553WAT     H134901   9.538   3.374   9.513
11553WAT     H234902   9.475   3.516   9.562
11554WAT      O34903   8.288   5.131   2.079
11554WAT     H134904   8.352   5.123   2.155
11554WAT     H234905   8.299   5.052   2.018
11555WAT      O34906   1.857   6.652   7.913
11555WAT     H134907   1.931   6.717   7.896
11555WAT     H234908   1.885   6.586   7.982
11556WAT      O34909   1.404   2.881   9.826
11556WAT     H134910   1.399   2.974   9.791
11556WAT     H234911   1.411   2.817   9.749
11557WAT      O34912   4.785   6.894   9.578
11557WAT     H134913   4.796   6.993   9.571
11557WAT     H234914   4.722   6.873   9.652
11558WAT      O34915   2.731   6.340   1.893
11558WAT     H134916   2.655   6.377   1.948
11558WAT     H234917   2.811   6.399   1.903
11559WAT      O34918   7.990   7.725   5.440
11559WAT     H134919   7.943   7.709   5.354
11559WAT     H234920   7.932   7.696   5.516
11560WAT      O34921   4.494   9.562   9.859
11560WAT     H134922   4.474   9.626   9.933
11560WAT     H234923   4.524   9.475   9.897
11561WAT      O34924   8.558   4.031   6.592
11561WAT     H134925   8.600   3.943   6.614
11561WAT     H234926   8.465   4.035   6.630
11562WAT      O34927   4.242   7.312   0.750
11562WAT     H134928   4.306   7.380   0.717
11562WAT     H234929   4.162   7.357   0.789
11563WAT      O34930   8.448   8.835   9.319
11563WAT     H134931   8.473   8.806   9.411
11563WAT     H234932   8.504   8.786   9.252
11564WAT      O34933   4.083   4.816   3.528
11564WAT     H134934   4.124   4.734   3.489
11564WAT     H234935   4.022   4.858   3.460
11565WAT      O34936   9.206   1.074   2.341
11565WAT     H134937   9.204   0.988   2.290
11565WAT     H234938   9.192   1.055   2.439
11566WAT      O34939   5.327   3.048   0.353
11566WAT     H134940   5.289   2.958   0.375
11566WAT     H234941   5.377   3.084   0.431
11567WAT      O34942   7.868   4.493   5.002
11567WAT     H134943   7.905   4.456   4.917
11567WAT     H234944   7.942   4.519   5.063
11568WAT      O34945   6.869   1.868   7.930
11568WAT     H134946   6.873   1.768   7.932
11568WAT     H234947   6.962   1.905   7.936
11569WAT      O34948   9.624   4.941   7.094
11569WAT     H134949   9.548   4.920   7.155
11569WAT     H234950   9.703   4.969   7.148
11570WAT      O34951   9.564   3.488   1.280
11570WAT     H134952   9.577   3.439   1.366
11570WAT     H234953   9.653   3.509   1.239
11571WAT      O34954   5.239   2.313   1.138
11571WAT     H134955   5.277   2.404   1.154
11571WAT     H234956   5.291   2.245   1.189
11572WAT      O34957   2.280   0.241   1.150
11572WAT     H134958   2.205   0.178   1.129
11572WAT     H234959   2.357   0.189   1.188
11573WAT      O34960   4.172   1.608   8.636
11573WAT     H134961   4.173   1.687   8.696
11573WAT     H234962   4.159   1.525   8.690
11574WAT      O34963   4.972   7.731   5.304
11574WAT     H134964   4.898   7.755   5.367
11574WAT     H234965   4.988   7.806   5.240
11575WAT      O34966   8.808   1.775   1.494
11575WAT     H134967   8.891   1.814   1.455
11575WAT     H234968   8.832   1.701   1.557
11576WAT      O34969   4.556   0.240   4.025
11576WAT     H134970   4.625   0.257   4.096
11576WAT     H234971   4.597   0.249   3.935
11577WAT      O34972   6.637   8.107   4.242
11577WAT     H134973   6.661   8.181   4.305
11577WAT     H234974   6.599   8.031   4.294
11578WAT      O34975   9.287   0.692   1.017
11578WAT     H134976   9.305   0.706   0.920
11578WAT     H234977   9.374   0.691   1.067
11579WAT      O34978   7.870   0.241   7.355
11579WAT     H134979   7.803   0.313   7.336
11579WAT     H234980   7.879   0.182   7.275
11580WAT      O34981   9.783   0.758   8.143
11580WAT     H134982   9.773   0.807   8.056
11580WAT     H234983   9.841   0.678   8.129
11581WAT      O34984   7.638   5.711   7.137
11581WAT     H134985   7.731   5.748   7.142
11581WAT     H234986   7.578   5.765   7.196
11582WAT      O34987   4.717   0.615   2.818
11582WAT     H134988   4.637   0.645   2.766
11582WAT     H234989   4.763   0.694   2.858
11583WAT      O34990   8.518   6.858   7.453
11583WAT     H134991   8.597   6.838   7.511
11583WAT     H234992   8.514   6.957   7.436
11584WAT      O34993   7.267   0.605   8.405
11584WAT     H134994   7.196   0.591   8.473
11584WAT     H234995   7.310   0.518   8.383
11585WAT      O34996   6.557   3.735   8.672
11585WAT     H134997   6.514   3.644   8.679
11585WAT     H234998   6.598   3.745   8.581
11586WAT      O34999   8.215   9.582   4.592
11586WAT     H135000   8.139   9.646   4.582
11586WAT     H235001   8.260   9.569   4.504
11587WAT      O35002   2.947   1.842   1.833
11587WAT     H135003   2.855   1.821   1.801
11587WAT     H235004   3.009   1.768   1.805
11588WAT      O35005   7.529   5.814   5.049
11588WAT     H135006   7.555   5.784   5.141
11588WAT     H235007   7.447   5.871   5.056
11589WAT      O35008   1.588   9.307   7.420
11589WAT     H135009   1.492   9.336   7.421
11589WAT     H235010   1.592   9.207   7.428
11590WAT      O35011   6.498   9.730   0.355
11590WAT     H135012   6.512   9.712   0.453
11590WAT     H235013   6.400   9.732   0.335
11591WAT      O35014   8.646   4.592   4.512
11591WAT     H135015   8.700   4.650   4.572
11591WAT     H235016   8.701   4.564   4.434
11592WAT      O35017   2.279   6.979   1.790
11592WAT     H135018   2.316   6.950   1.701
11592WAT     H235019   2.301   6.910   1.859
11593WAT      O35020   5.342   3.186   5.997
11593WAT     H135021   5.314   3.278   6.021
11593WAT     H235022   5.293   3.157   5.915
11594WAT      O35023   7.412   1.173   3.032
11594WAT     H135024   7.428   1.196   3.128
11594WAT     H235025   7.323   1.206   3.004
11595WAT      O35026   8.153   6.392   8.207
11595WAT     H135027   8.113   6.424   8.293
11595WAT     H235028   8.079   6.369   8.143
11596WAT      O35029   4.025   3.588   0.134
11596WAT     H135030   3.961   3.527   0.181
11596WAT     H235031   3.994   3.682   0.142
11597WAT      O35032   9.178   1.099   3.462
11597WAT     H135033   9.221   1.010   3.479
11597WAT     H235034   9.228   1.147   3.390
11598WAT      O35035   4.739   5.199   1.128
11598WAT     H135036   4.825   5.225   1.085
11598WAT     H235037   4.739   5.226   1.224
11599WAT      O35038   6.124   3.889   5.920
11599WAT     H135039   6.071   3.829   5.861
11599WAT     H235040   6.213   3.848   5.939
11600WAT      O35041   0.172   4.361   6.121
11600WAT     H135042   0.184   4.461   6.121
11600WAT     H235043   0.144   4.331   6.212
11601WAT      O35044   1.124   4.191   0.237
11601WAT     H135045   1.191   4.192   0.163
11601WAT     H235046   1.162   4.236   0.317
11602WAT      O35047   3.003   6.379   0.846
11602WAT     H135048   2.961   6.379   0.937
11602WAT     H235049   3.016   6.284   0.815
11603WAT      O35050   1.859   9.246   1.436
11603WAT     H135051   1.909   9.175   1.487
11603WAT     H235052   1.772   9.264   1.481
11604WAT      O35053   2.392   5.331   7.543
11604WAT     H135054   2.306   5.287   7.514
11604WAT     H235055   2.371   5.417   7.590
11605WAT      O35056   8.450   9.177   2.799
11605WAT     H135057   8.363   9.134   2.777
11605WAT     H235058   8.436   9.275   2.816
11606WAT      O35059   5.606   1.840   4.399
11606WAT     H135060   5.655   1.861   4.315
11606WAT     H235061   5.614   1.916   4.463
11607WAT      O35062   0.341   3.918   6.658
11607WAT     H135063   0.324   3.988   6.728
11607WAT     H235064   0.352   3.961   6.569
11608WAT      O35065   7.086   8.673   8.004
11608WAT     H135066   7.057   8.611   8.077
11608WAT     H235067   7.173   8.641   7.966
11609WAT      O35068   2.226   9.472   3.092
11609WAT     H135069   2.191   9.392   3.043
11609WAT     H235070   2.178   9.554   3.062
11610WAT      O35071   4.060   6.035   4.249
11610WAT     H135072   4.121   6.082   4.185
11610WAT     H235073   4.020   5.955   4.205
11611WAT      O35074   5.233   9.482   7.869
11611WAT     H135075   5.231   9.529   7.780
11611WAT     H235076   5.142   9.483   7.909
11612WAT      O35077   3.735   5.135   0.282
11612WAT     H135078   3.722   5.224   0.239
11612WAT     H235079   3.706   5.063   0.219
11613WAT      O35080   5.881   3.056   3.371
11613WAT     H135081   5.811   2.995   3.333
11613WAT     H235082   5.959   3.001   3.401
11614WAT      O35083   4.237   0.055   9.179
11614WAT     H135084   4.248  -0.043   9.162
11614WAT     H235085   4.319   0.104   9.147
11615WAT      O35086   2.797   8.376   7.683
11615WAT     H135087   2.836   8.467   7.690
11615WAT     H235088   2.860   8.309   7.722
11616WAT      O35089   6.472   9.646   4.937
11616WAT     H135090   6.562   9.682   4.914
11616WAT     H235091   6.466   9.633   5.036
11617WAT      O35092   2.980   9.257   7.673
11617WAT     H135093   2.881   9.250   7.664
11617WAT     H235094   3.003   9.329   7.739
11618WAT      O35095   1.537   9.439   9.031
11618WAT     H135096   1.488   9.525   9.019
11618WAT     H235097   1.486   9.380   9.094
11619WAT      O35098   3.505   1.283   2.742
11619WAT     H135099   3.520   1.326   2.654
11619WAT     H235100   3.472   1.189   2.728
11620WAT      O35101   0.836   4.139   2.879
11620WAT     H135102   0.904   4.210   2.900
11620WAT     H235103   0.834   4.122   2.780
11621WAT      O35104   0.322   8.607   5.636
11621WAT     H135105   0.238   8.661   5.635
11621WAT     H235106   0.370   8.620   5.550
11622WAT      O35107   3.385   8.995   9.469
11622WAT     H135108   3.397   9.036   9.378
11622WAT     H235109   3.467   9.011   9.524
11623WAT      O35110   0.189   6.565   2.744
11623WAT     H135111   0.263   6.538   2.806
11623WAT     H235112   0.145   6.483   2.708
11624WAT      O35113   2.386   3.039   8.833
11624WAT     H135114   2.348   2.970   8.895
11624WAT     H235115   2.439   3.106   8.886
11625WAT      O35116   2.729   6.658   3.287
11625WAT     H135117   2.803   6.722   3.307
11625WAT     H235118   2.680   6.687   3.205
11626WAT      O35119   4.585   6.379   1.317
11626WAT     H135120   4.550   6.302   1.263
11626WAT     H235121   4.524   6.458   1.307
11627WAT      O35122   0.199   5.888   8.142
11627WAT     H135123   0.126   5.881   8.075
11627WAT     H235124   0.283   5.917   8.097
11628WAT      O35125   8.659   9.185   3.981
11628WAT     H135126   8.580   9.149   3.931
11628WAT     H235127   8.664   9.284   3.968
11629WAT      O35128   2.675   3.663   7.274
11629WAT     H135129   2.689   3.615   7.187
11629WAT     H235130   2.640   3.598   7.341
11630WAT      O35131   6.889   1.360   9.057
11630WAT     H135132   6.977   1.405   9.067
11630WAT     H235133   6.817   1.429   9.045
11631WAT      O35134   2.283   0.895   8.224
11631WAT     H135135   2.191   0.883   8.261
11631WAT     H235136   2.304   0.819   8.163
11632WAT      O35137   3.255   0.832   7.560
11632WAT     H135138   3.313   0.882   7.624
11632WAT     H235139   3.180   0.788   7.610
11633WAT      O35140   7.789   1.509   5.966
11633WAT     H135141   7.755   1.600   5.990
11633WAT     H235142   7.747   1.480   5.880
11634WAT      O35143   0.506   4.601   4.972
11634WAT     H135144   0.546   4.686   5.008
11634WAT     H235145   0.579   4.544   4.934
11635WAT      O35146   5.961   7.879   4.353
11635WAT     H135147   5.968   7.833   4.441
11635WAT     H235148   5.865   7.890   4.329
11636WAT      O35149   7.188   7.410   4.566
11636WAT     H135150   7.195   7.311   4.576
11636WAT     H235151   7.276   7.446   4.535
11637WAT      O35152   3.679   0.123   1.195
11637WAT     H135153   3.715   0.194   1.255
11637WAT     H235154   3.651   0.044   1.249
11638WAT      O35155   5.720   0.100   5.048
11638WAT     H135156   5.746   0.118   5.143
11638WAT     H235157   5.654   0.025   5.046
11639WAT      O35158   1.973   1.541   9.673
11639WAT     H135159   1.886   1.546   9.722
11639WAT     H235160   1.978   1.615   9.606
11640WAT      O35161   5.508   4.594   9.508
11640WAT     H135162   5.459   4.514   9.542
11640WAT     H235163   5.462   4.677   9.539
11641WAT      O35164   1.471   0.257   7.822
11641WAT     H135165   1.530   0.328   7.784
11641WAT     H235166   1.419   0.294   7.899
11642WAT      O35167   4.178   0.039   9.464
11642WAT     H135168   4.090   0.080   9.487
11642WAT     H235169   4.201   0.060   9.369
11643WAT      O35170   3.778   7.533   4.917
11643WAT     H135171   3.771   7.632   4.923
11643WAT     H235172   3.715   7.491   4.983
11644WAT      O35173   8.064   2.708   9.795
11644WAT     H135174   8.020   2.678   9.711
11644WAT     H235175   8.110   2.631   9.839
11645WAT      O35176   1.720   4.751   1.141
11645WAT     H135177   1.629   4.774   1.176
11645WAT     H235178   1.757   4.673   1.192
11646WAT      O35179   1.006   2.383   8.248
11646WAT     H135180   0.974   2.295   8.283
11646WAT     H235181   0.928   2.435   8.211
11647WAT      O35182   5.442   0.691   8.212
11647WAT     H135183   5.421   0.594   8.196
11647WAT     H235184   5.522   0.698   8.272
11648WAT      O35185   1.251   6.731   7.585
11648WAT     H135186   1.181   6.662   7.564
11648WAT     H235187   1.311   6.742   7.506
11649WAT      O35188   1.481   7.044   9.023
11649WAT     H135189   1.447   7.085   8.938
11649WAT     H235190   1.574   7.009   9.007
11650WAT      O35191   5.472   2.250   0.890
11650WAT     H135192   5.448   2.263   0.794
11650WAT     H235193   5.430   2.323   0.944
11651WAT      O35194   9.143   6.655   2.402
11651WAT     H135195   9.044   6.664   2.415
11651WAT     H235196   9.168   6.688   2.311
11652WAT      O35197   9.119   1.169   6.005
11652WAT     H135198   9.053   1.145   6.076
11652WAT     H235199   9.198   1.213   6.047
11653WAT      O35200   0.806   2.738   2.146
11653WAT     H135201   0.838   2.807   2.081
11653WAT     H235202   0.706   2.735   2.145
11654WAT      O35203   7.900   2.503   3.608
11654WAT     H135204   7.899   2.508   3.708
11654WAT     H235205   7.856   2.417   3.579
11655WAT      O35206   6.842   6.232   8.738
11655WAT     H135207   6.822   6.329   8.756
11655WAT     H235208   6.757   6.181   8.735
11656WAT      O35209   2.413   1.265   4.797
11656WAT     H135210   2.385   1.283   4.892
11656WAT     H235211   2.511   1.283   4.788
11657WAT      O35212   7.141   3.554   4.470
11657WAT     H135213   7.226   3.526   4.426
11657WAT     H235214   7.084   3.474   4.487
11658WAT      O35215   0.892   0.498   4.145
11658WAT     H135216   0.850   0.580   4.183
11658WAT     H235217   0.954   0.458   4.212
11659WAT      O35218   7.201   6.192   5.636
11659WAT     H135219   7.281   6.238   5.597
11659WAT     H235220   7.229   6.138   5.715
11660WAT      O35221   9.502   9.366   3.409
11660WAT     H135222   9.448   9.393   3.329
11660WAT     H235223   9.547   9.447   3.447
11661WAT      O35224   9.655   4.176   6.322
11661WAT     H135225   9.708   4.133   6.248
11661WAT     H235226   9.712   4.183   6.404
11662WAT      O35227   0.057   5.833   5.531
11662WAT     H135228  -0.003   5.902   5.491
11662WAT     H235229   0.003   5.756   5.565
11663WAT      O35230   6.559   3.579   5.426
11663WAT     H135231   6.465   3.607   5.444
11663WAT     H235232   6.571   3.483   5.453
11664WAT      O35233   7.458   9.524   3.287
11664WAT     H135234   7.374   9.564   3.251
11664WAT     H235235   7.502   9.589   3.350
11665WAT      O35236   5.082   8.208   4.537
11665WAT     H135237   5.145   8.192   4.612
11665WAT     H235238   5.013   8.136   4.535
11666WAT      O35239   9.288   0.597   3.952
11666WAT     H135240   9.298   0.508   3.908
11666WAT     H235241   9.355   0.605   4.025
11667WAT      O35242   5.914   8.304   3.698
11667WAT     H135243   5.964   8.238   3.643
11667WAT     H235244   5.977   8.351   3.760
11668WAT      O35245   6.749   0.339   6.433
11668WAT     H135246   6.653   0.365   6.426
11668WAT     H235247   6.802   0.417   6.466
11669WAT      O35248   5.432   2.277   0.606
11669WAT     H135249   5.519   2.228   0.605
11669WAT     H235250   5.408   2.306   0.513
11670WAT      O35251   2.985   0.864   1.124
11670WAT     H135252   3.069   0.915   1.145
11670WAT     H235253   2.906   0.917   1.155
11671WAT      O35254   5.233   8.693   4.978
11671WAT     H135255   5.279   8.692   4.889
11671WAT     H235256   5.301   8.704   5.050
11672WAT      O35257   7.670   0.964   5.398
11672WAT     H135258   7.729   0.886   5.417
11672WAT     H235259   7.631   0.998   5.484
11673WAT      O35260   4.650   7.272   5.700
11673WAT     H135261   4.612   7.195   5.751
11673WAT     H235262   4.575   7.325   5.660
11674WAT      O35263   3.630   5.321   3.234
11674WAT     H135264   3.704   5.378   3.271
11674WAT     H235265   3.577   5.374   3.168
11675WAT      O35266   9.767   2.749   7.741
11675WAT     H135267   9.751   2.725   7.646
11675WAT     H235268   9.776   2.665   7.796
11676WAT      O35269   2.019   3.030   7.455
11676WAT     H135270   2.079   2.958   7.492
11676WAT     H235271   1.929   2.991   7.436
11677WAT      O35272   1.872   8.376   9.495
11677WAT     H135273   1.905   8.454   9.442
11677WAT     H235274   1.789   8.340   9.452
11678WAT      O35275   2.868   1.636   5.465
11678WAT     H135276   2.829   1.617   5.555
11678WAT     H235277   2.819   1.713   5.423
11679WAT      O35278   2.958   4.371   2.046
11679WAT     H135279   3.057   4.363   2.031
11679WAT     H235280   2.941   4.390   2.143
11680WAT      O35281   7.673   1.901   3.183
11680WAT     H135282   7.652   1.994   3.154
11680WAT     H235283   7.701   1.902   3.279
11681WAT      O35284   4.707   8.623   0.275
11681WAT     H135285   4.804   8.598   0.280
11681WAT     H235286   4.669   8.592   0.188
11682WAT      O35287   2.333   2.701   5.760
11682WAT     H135288   2.272   2.776   5.734
11682WAT     H235289   2.349   2.642   5.681
11683WAT      O35290   5.952   6.803   4.766
11683WAT     H135291   5.929   6.706   4.773
11683WAT     H235292   5.956   6.843   4.858
11684WAT      O35293   7.879   0.782   7.997
11684WAT     H135294   7.814   0.849   8.035
11684WAT     H235295   7.962   0.781   8.053
11685WAT      O35296   5.894   6.545   4.657
11685WAT     H135297   5.905   6.483   4.578
11685WAT     H235298   5.804   6.532   4.697
11686WAT      O35299   0.723   4.469   6.948
11686WAT     H135300   0.726   4.504   6.854
11686WAT     H235301   0.809   4.424   6.970
11687WAT      O35302   5.807   0.618   3.685
11687WAT     H135303   5.795   0.645   3.780
11687WAT     H235304   5.721   0.631   3.635
11688WAT      O35305   9.304   8.852   3.984
11688WAT     H135306   9.312   8.849   3.884
11688WAT     H235307   9.387   8.812   4.025
11689WAT      O35308   0.801   1.215   2.171
11689WAT     H135309   0.790   1.164   2.086
11689WAT     H235310   0.734   1.289   2.175
11690WAT      O35311   7.136   3.162   3.999
11690WAT     H135312   7.061   3.218   3.964
11690WAT     H235313   7.101   3.103   4.072
11691WAT      O35314   3.555   0.328   3.972
11691WAT     H135315   3.645   0.295   4.001
11691WAT     H235316   3.491   0.251   3.966
11692WAT      O35317   5.043   4.433   6.384
11692WAT     H135318   5.062   4.440   6.482
11692WAT     H235319   4.953   4.392   6.370
11693WAT      O35320   7.329   4.996   8.986
11693WAT     H135321   7.255   4.938   9.021
11693WAT     H235322   7.416   4.948   8.996
11694WAT      O35323   5.816   7.558   9.407
11694WAT     H135324   5.735   7.572   9.351
11694WAT     H235325   5.861   7.473   9.381
11695WAT      O35326   3.356   0.309   8.077
11695WAT     H135327   3.398   0.245   8.012
11695WAT     H235328   3.413   0.391   8.084
11696WAT      O35329   2.161   5.372   9.447
11696WAT     H135330   2.117   5.284   9.468
11696WAT     H235331   2.229   5.392   9.518
11697WAT      O35332   8.884   8.581   7.113
11697WAT     H135333   8.829   8.498   7.118
11697WAT     H235334   8.823   8.661   7.112
11698WAT      O35335   4.068   7.642   7.076
11698WAT     H135336   3.978   7.683   7.084
11698WAT     H235337   4.134   7.696   7.129
11699WAT      O35338   7.545   1.181   4.137
11699WAT     H135339   7.544   1.120   4.217
11699WAT     H235340   7.632   1.173   4.090
11700WAT      O35341   7.622   8.331   9.245
11700WAT     H135342   7.664   8.333   9.335
11700WAT     H235343   7.683   8.285   9.180
11701WAT      O35344   1.159   9.089   1.174
11701WAT     H135345   1.132   9.064   1.267
11701WAT     H235346   1.078   9.087   1.115
11702WAT      O35347   8.062   4.401   2.345
11702WAT     H135348   8.158   4.423   2.361
11702WAT     H235349   8.011   4.411   2.431
11703WAT      O35350   6.955   8.565   1.002
11703WAT     H135351   7.040   8.529   1.041
11703WAT     H235352   6.923   8.504   0.930
11704WAT      O35353   4.452   8.486   8.209
11704WAT     H135354   4.507   8.419   8.158
11704WAT     H235355   4.486   8.578   8.190
11705WAT      O35356   8.192   4.621   8.610
11705WAT     H135357   8.235   4.691   8.667
11705WAT     H235358   8.098   4.647   8.591
11706WAT      O35359   1.694   9.787   0.743
11706WAT     H135360   1.766   9.751   0.802
11706WAT     H235361   1.612   9.803   0.798
11707WAT      O35362   0.894   1.185   5.020
11707WAT     H135363   0.916   1.283   5.019
11707WAT     H235364   0.798   1.173   5.044
11708WAT      O35365   2.852   2.043   9.232
11708WAT     H135366   2.874   2.055   9.135
11708WAT     H235367   2.927   2.079   9.288
11709WAT      O35368   6.119   7.956   4.715
11709WAT     H135369   6.202   7.911   4.681
11709WAT     H235370   6.128   7.970   4.814
11710WAT      O35371   6.382   4.626   7.214
11710WAT     H135372   6.342   4.717   7.212
11710WAT     H235373   6.323   4.564   7.266
11711WAT      O35374   8.002   8.840   5.655
11711WAT     H135375   7.990   8.749   5.615
11711WAT     H235376   7.913   8.876   5.683
11712WAT      O35377   3.231   1.109   5.707
11712WAT     H135378   3.159   1.098   5.776
11712WAT     H235379   3.196   1.164   5.631
11713WAT      O35380   6.585   3.485   2.152
11713WAT     H135381   6.573   3.394   2.113
11713WAT     H235382   6.498   3.519   2.186
11714WAT      O35383   3.680   3.477   2.221
11714WAT     H135384   3.607   3.529   2.176
11714WAT     H235385   3.655   3.461   2.316
11715WAT      O35386   3.958   1.413   2.780
11715WAT     H135387   3.981   1.496   2.731
11715WAT     H235388   3.978   1.333   2.723
11716WAT      O35389   2.848   1.557   5.041
11716WAT     H135390   2.912   1.586   4.969
11716WAT     H235391   2.783   1.631   5.059
11717WAT      O35392   5.858   7.573   5.132
11717WAT     H135393   5.768   7.585   5.091
11717WAT     H235394   5.922   7.639   5.093
11718WAT      O35395   1.002   1.933   7.940
11718WAT     H135396   0.997   1.880   7.855
11718WAT     H235397   0.911   1.941   7.980
11719WAT      O35398   8.402   9.070   7.944
11719WAT     H135399   8.411   8.976   7.912
11719WAT     H235400   8.456   9.130   7.885
11720WAT      O35401   8.401   1.448   9.132
11720WAT     H135402   8.366   1.511   9.063
11720WAT     H235403   8.473   1.392   9.092
11721WAT      O35404   1.978   5.079   2.225
11721WAT     H135405   2.022   5.107   2.140
11721WAT     H235406   1.904   5.014   2.205
11722WAT      O35407   5.480   2.850   7.284
11722WAT     H135408   5.482   2.868   7.382
11722WAT     H235409   5.569   2.875   7.244
11723WAT      O35410   4.400   4.686   2.321
11723WAT     H135411   4.478   4.646   2.273
11723WAT     H235412   4.426   4.704   2.416
11724WAT      O35413   3.955   8.204   4.559
11724WAT     H135414   4.021   8.260   4.609
11724WAT     H235415   3.984   8.194   4.464
11725WAT      O35416   1.745   4.037   1.139
11725WAT     H135417   1.708   4.058   1.049
11725WAT     H235418   1.740   3.938   1.155
11726WAT      O35419   6.448   6.327   7.895
11726WAT     H135420   6.376   6.369   7.951
11726WAT     H235421   6.536   6.335   7.943
11727WAT      O35422   5.409   8.104   4.555
11727WAT     H135423   5.488   8.131   4.500
11727WAT     H235424   5.394   8.170   4.628
11728WAT      O35425   2.291   4.553   5.092
11728WAT     H135426   2.297   4.642   5.048
11728WAT     H235427   2.287   4.481   5.022
11729WAT      O35428   6.577   4.105   1.477
11729WAT     H135429   6.630   4.187   1.453
11729WAT     H235430   6.498   4.132   1.532
11730WAT      O35431   9.133   4.302   5.224
11730WAT     H135432   9.145   4.270   5.130
11730WAT     H235433   9.155   4.227   5.287
11731WAT      O35434   7.021   3.090   4.433
11731WAT     H135435   7.041   3.004   4.481
11731WAT     H235436   7.004   3.162   4.499
11732WAT      O35437   2.715   4.851   1.717
11732WAT     H135438   2.793   4.805   1.759
11732WAT     H235439   2.630   4.804   1.743
11733WAT      O35440   8.688   0.703   6.979
11733WAT     H135441   8.713   0.779   6.919
11733WAT     H235442   8.727   0.618   6.943
11734WAT      O35443   4.705   7.233   8.653
11734WAT     H135444   4.707   7.219   8.752
11734WAT     H235445   4.794   7.212   8.614
11735WAT      O35446   9.191   2.665   8.480
11735WAT     H135447   9.288   2.644   8.467
11735WAT     H235448   9.136   2.611   8.417
11736WAT      O35449   4.072   6.557   8.738
11736WAT     H135450   4.125   6.475   8.716
11736WAT     H235451   4.120   6.611   8.807
11737WAT      O35452   2.633   2.091   5.321
11737WAT     H135453   2.620   2.118   5.226
11737WAT     H235454   2.679   2.164   5.371
11738WAT      O35455   1.238   6.635   1.399
11738WAT     H135456   1.209   6.665   1.309
11738WAT     H235457   1.303   6.700   1.437
11739WAT      O35458   2.056   7.626   7.779
11739WAT     H135459   2.010   7.549   7.737
11739WAT     H235460   2.143   7.595   7.818
11740WAT      O35461   7.922   5.685   7.044
11740WAT     H135462   7.893   5.604   7.097
11740WAT     H235463   8.020   5.680   7.028
11741WAT      O35464   0.388   1.846   0.227
11741WAT     H135465   0.379   1.906   0.148
11741WAT     H235466   0.483   1.817   0.238
11742WAT      O35467   1.088   5.759   0.994
11742WAT     H135468   1.014   5.692   0.994
11742WAT     H235469   1.153   5.737   1.066
11743WAT      O35470   3.720   2.155   7.834
11743WAT     H135471   3.682   2.230   7.780
11743WAT     H235472   3.738   2.076   7.774
11744WAT      O35473   7.693   3.092   2.263
11744WAT     H135474   7.708   3.073   2.166
11744WAT     H235475   7.781   3.092   2.310
11745WAT      O35476   4.447   9.513   4.246
11745WAT     H135477   4.422   9.455   4.323
11745WAT     H235478   4.536   9.483   4.209
11746WAT      O35479   3.998   9.794   1.749
11746WAT     H135480   4.053   9.778   1.830
11746WAT     H235481   3.916   9.846   1.774
11747WAT      O35482   7.581   9.165   0.693
11747WAT     H135483   7.634   9.202   0.768
11747WAT     H235484   7.569   9.235   0.622
11748WAT      O35485   0.587   8.289   1.656
11748WAT     H135486   0.491   8.309   1.672
11748WAT     H235487   0.595   8.205   1.601
11749WAT      O35488   6.483   7.608   3.442
11749WAT     H135489   6.392   7.623   3.479
11749WAT     H235490   6.552   7.641   3.507
11750WAT      O35491   9.396   3.103   8.392
11750WAT     H135492   9.353   3.164   8.325
11750WAT     H235493   9.329   3.036   8.425
11751WAT      O35494   0.458   1.069   2.757
11751WAT     H135495   0.526   1.070   2.831
11751WAT     H235496   0.499   1.105   2.674
11752WAT      O35497   6.288   5.039   9.703
11752WAT     H135498   6.220   4.966   9.702
11752WAT     H235499   6.343   5.033   9.787
11753WAT      O35500   3.333   7.502   8.987
11753WAT     H135501   3.347   7.424   9.047
11753WAT     H235502   3.391   7.492   8.906
11754WAT      O35503   4.656   7.343   2.925
11754WAT     H135504   4.704   7.270   2.875
11754WAT     H235505   4.718   7.387   2.989
11755WAT      O35506   8.655   8.637   3.655
11755WAT     H135507   8.723   8.565   3.665
11755WAT     H235508   8.584   8.607   3.591
11756WAT      O35509   0.945   9.127   1.025
11756WAT     H135510   0.847   9.110   1.014
11756WAT     H235511   0.959   9.224   1.045
11757WAT      O35512   7.181   6.572   2.273
11757WAT     H135513   7.268   6.596   2.318
11757WAT     H235514   7.199   6.523   2.188
11758WAT      O35515   4.024   6.935   5.008
11758WAT     H135516   4.056   6.956   4.915
11758WAT     H235517   4.091   6.969   5.075
11759WAT      O35518   1.866   2.041   8.248
11759WAT     H135519   1.840   1.971   8.314
11759WAT     H235520   1.791   2.106   8.238
11760WAT      O35521   1.810   1.507   0.621
11760WAT     H135522   1.758   1.539   0.542
11760WAT     H235523   1.795   1.409   0.633
11761WAT      O35524   2.456   3.628   3.657
11761WAT     H135525   2.449   3.718   3.699
11761WAT     H235526   2.418   3.631   3.564
11762WAT      O35527   2.831   6.381   5.563
11762WAT     H135528   2.799   6.459   5.616
11762WAT     H235529   2.768   6.364   5.487
11763WAT      O35530   4.761   3.772   7.948
11763WAT     H135531   4.715   3.838   7.889
11763WAT     H235532   4.853   3.755   7.914
11764WAT      O35533   3.814   1.854   9.166
11764WAT     H135534   3.717   1.834   9.179
11764WAT     H235535   3.868   1.798   9.229
11765WAT      O35536   4.111   3.051   2.708
11765WAT     H135537   4.038   2.999   2.665
11765WAT     H235538   4.085   3.075   2.801
11766WAT      O35539   9.220   3.751   1.697
11766WAT     H135540   9.278   3.670   1.684
11766WAT     H235541   9.141   3.744   1.636
11767WAT      O35542   5.566   5.956   9.289
11767WAT     H135543   5.639   5.908   9.338
11767WAT     H235544   5.494   5.981   9.353
11768WAT      O35545   6.169   4.371   2.665
11768WAT     H135546   6.255   4.421   2.670
11768WAT     H235547   6.152   4.343   2.570
11769WAT      O35548   0.264   3.058   3.323
11769WAT     H135549   0.291   3.152   3.345
11769WAT     H235550   0.299   3.034   3.232
11770WAT      O35551   6.200   6.048   5.827
11770WAT     H135552   6.130   6.029   5.896
11770WAT     H235553   6.171   6.010   5.739
11771WAT      O35554   3.685   0.503   8.353
11771WAT     H135555   3.679   0.406   8.377
11771WAT     H235556   3.640   0.518   8.266
11772WAT      O35557   6.171   3.830   2.680
11772WAT     H135558   6.163   3.915   2.733
11772WAT     H235559   6.086   3.778   2.689
11773WAT      O35560   2.033   7.275   9.521
11773WAT     H135561   1.970   7.199   9.506
11773WAT     H235562   2.035   7.333   9.440
11774WAT      O35563   3.782   9.205   3.588
11774WAT     H135564   3.773   9.284   3.647
11774WAT     H235565   3.850   9.142   3.626
11775WAT      O35566   9.082   2.528   8.288
11775WAT     H135567   8.990   2.555   8.259
11775WAT     H235568   9.122   2.468   8.219
11776WAT      O35569   9.351   7.764   8.583
11776WAT     H135570   9.252   7.758   8.581
11776WAT     H235571   9.384   7.806   8.499
11777WAT      O35572   8.139   3.204   8.960
11777WAT     H135573   8.070   3.191   9.031
11777WAT     H235574   8.227   3.168   8.991
11778WAT      O35575   6.279   3.012   7.947
11778WAT     H135576   6.302   3.059   7.862
11778WAT     H235577   6.208   2.944   7.929
11779WAT      O35578   2.238   1.400   3.624
11779WAT     H135579   2.322   1.366   3.582
11779WAT     H235580   2.206   1.334   3.692
11780WAT      O35581   1.863   1.218   8.683
11780WAT     H135582   1.773   1.179   8.702
11780WAT     H235583   1.921   1.208   8.764
11781WAT      O35584   3.890   6.484   7.000
11781WAT     H135585   3.840   6.462   7.084
11781WAT     H235586   3.922   6.579   7.004
11782WAT      O35587   8.411   9.134   9.276
11782WAT     H135588   8.398   9.035   9.270
11782WAT     H235589   8.438   9.159   9.369
11783WAT      O35590   7.617   2.397   7.675
11783WAT     H135591   7.544   2.331   7.657
11783WAT     H235592   7.691   2.385   7.608
11784WAT      O35593   7.034   2.606   0.082
11784WAT     H135594   7.115   2.546   0.075
11784WAT     H235595   6.987   2.588   0.168
11785WAT      O35596   4.544   2.811   1.583
11785WAT     H135597   4.452   2.845   1.603
11785WAT     H235598   4.575   2.754   1.659
11786WAT      O35599   3.652   1.855   6.693
11786WAT     H135600   3.624   1.785   6.627
11786WAT     H235601   3.679   1.937   6.643
11787WAT      O35602   1.745   2.625   7.042
11787WAT     H135603   1.672   2.567   7.078
11787WAT     H235604   1.768   2.695   7.110
11788WAT      O35605   5.567   8.132   6.032
11788WAT     H135606   5.534   8.146   6.125
11788WAT     H235607   5.618   8.212   6.002
11789WAT      O35608   3.493   0.397   0.752
11789WAT     H135609   3.443   0.481   0.774
11789WAT     H235610   3.441   0.343   0.686
11790WAT      O35611   0.823   1.350   2.625
11790WAT     H135612   0.879   1.413   2.678
11790WAT     H235613   0.729   1.351   2.660
11791WAT      O35614   1.300   4.082   2.778
11791WAT     H135615   1.242   4.076   2.696
11791WAT     H235616   1.281   4.167   2.826
11792WAT      O35617   5.540   0.739   9.429
11792WAT     H135618   5.562   0.707   9.521
11792WAT     H235619   5.489   0.825   9.435
11793WAT      O35620   3.064   2.268   3.048
11793WAT     H135621   2.983   2.220   3.082
11793WAT     H235622   3.138   2.259   3.114
11794WAT      O35623   9.313   0.172   6.297
11794WAT     H135624   9.386   0.236   6.323
11794WAT     H235625   9.224   0.217   6.308
11795WAT      O35626   6.945   9.510   5.948
11795WAT     H135627   6.902   9.579   6.006
11795WAT     H235628   7.041   9.498   5.975
11796WAT      O35629   1.948   3.553   5.928
11796WAT     H135630   1.938   3.563   5.829
11796WAT     H235631   1.939   3.643   5.972
11797WAT      O35632   4.246   2.800   0.459
11797WAT     H135633   4.324   2.798   0.397
11797WAT     H235634   4.164   2.770   0.411
11798WAT      O35635   4.606   1.761   2.322
11798WAT     H135636   4.616   1.797   2.229
11798WAT     H235637   4.692   1.773   2.371
11799WAT      O35638   2.523   5.395   4.667
11799WAT     H135639   2.444   5.430   4.618
11799WAT     H235640   2.508   5.404   4.766
11800WAT      O35641   5.141   2.380   2.154
11800WAT     H135642   5.100   2.444   2.089
11800WAT     H235643   5.100   2.394   2.244
11801WAT      O35644   2.468   6.049   7.179
11801WAT     H135645   2.428   6.096   7.258
11801WAT     H235646   2.560   6.017   7.203
11802WAT      O35647   7.534   7.491   1.181
11802WAT     H135648   7.500   7.514   1.272
11802WAT     H235649   7.546   7.392   1.173
11803WAT      O35650   0.118   2.482   5.351
11803WAT     H135651   0.117   2.388   5.316
11803WAT     H235652   0.056   2.489   5.429
11804WAT      O35653   5.522   2.738   4.787
11804WAT     H135654   5.451   2.687   4.835
11804WAT     H235655   5.483   2.784   4.707
11805WAT      O35656   6.265   5.428   5.952
11805WAT     H135657   6.280   5.525   5.933
11805WAT     H235658   6.351   5.378   5.939
11806WAT      O35659   9.058   5.711   0.744
11806WAT     H135660   9.056   5.774   0.667
11806WAT     H235661   9.110   5.629   0.718
11807WAT      O35662   5.149   8.042   1.855
11807WAT     H135663   5.069   8.100   1.840
11807WAT     H235664   5.141   7.959   1.800
11808WAT      O35665   1.576   8.138   3.730
11808WAT     H135666   1.658   8.155   3.785
11808WAT     H235667   1.587   8.052   3.680
11809WAT      O35668   7.120   4.756   2.276
11809WAT     H135669   7.142   4.746   2.373
11809WAT     H235670   7.051   4.828   2.265
11810WAT      O35671   4.646   0.542   2.234
11810WAT     H135672   4.585   0.622   2.243
11810WAT     H235673   4.735   0.563   2.275
11811WAT      O35674   3.914   7.185   7.170
11811WAT     H135675   3.944   7.271   7.126
11811WAT     H235676   3.933   7.109   7.108
11812WAT      O35677   2.184   9.426   8.463
11812WAT     H135678   2.194   9.384   8.373
11812WAT     H235679   2.275   9.440   8.503
11813WAT      O35680   2.221   3.222   2.359
11813WAT     H135681   2.168   3.249   2.440
11813WAT     H235682   2.202   3.127   2.337
11814WAT      O35683   9.556   3.226   2.433
11814WAT     H135684   9.555   3.203   2.530
11814WAT     H235685   9.524   3.149   2.379
11815WAT      O35686   0.450   8.683   1.526
11815WAT     H135687   0.446   8.777   1.559
11815WAT     H235688   0.365   8.636   1.548
11816WAT      O35689   3.605   2.606   8.133
11816WAT     H135690   3.516   2.602   8.087
11816WAT     H235691   3.640   2.513   8.146
11817WAT      O35692   2.363   2.221   7.549
11817WAT     H135693   2.400   2.136   7.586
11817WAT     H235694   2.285   2.201   7.490
11818WAT      O35695   9.737   1.492   1.067
11818WAT     H135696   9.657   1.526   1.116
11818WAT     H235697   9.760   1.555   0.993
11819WAT      O35698   2.880   8.381   1.365
11819WAT     H135699   2.966   8.348   1.325
11819WAT     H235700   2.893   8.397   1.463
11820WAT      O35701   2.511   5.687   1.338
11820WAT     H135702   2.595   5.634   1.343
11820WAT     H235703   2.441   5.634   1.291
11821WAT      O35704   3.834   3.155   8.886
11821WAT     H135705   3.746   3.193   8.916
11821WAT     H235706   3.851   3.182   8.791
11822WAT      O35707   3.121   2.732   4.956
11822WAT     H135708   3.148   2.677   5.035
11822WAT     H235709   3.027   2.764   4.968
11823WAT      O35710   0.788   5.450   1.747
11823WAT     H135711   0.873   5.479   1.792
11823WAT     H235712   0.801   5.454   1.648
11824WAT      O35713   3.909   8.446   3.588
11824WAT     H135714   3.890   8.354   3.621
11824WAT     H235715   3.994   8.479   3.628
11825WAT      O35716   6.692   8.541   1.454
11825WAT     H135717   6.772   8.557   1.396
11825WAT     H235718   6.627   8.616   1.443
11826WAT      O35719   4.485   1.108   8.857
11826WAT     H135720   4.549   1.054   8.911
11826WAT     H235721   4.391   1.077   8.876
11827WAT      O35722   1.212   9.627   4.134
11827WAT     H135723   1.229   9.621   4.035
11827WAT     H235724   1.164   9.712   4.154
11828WAT      O35725   9.710   7.926   8.371
11828WAT     H135726   9.704   7.868   8.290
11828WAT     H235727   9.789   7.987   8.363
11829WAT      O35728   9.644   9.150   3.492
11829WAT     H135729   9.578   9.222   3.469
11829WAT     H235730   9.705   9.135   3.414
11830WAT      O35731   9.838   2.516   1.594
11830WAT     H135732   9.819   2.582   1.522
11830WAT     H235733   9.864   2.428   1.553
11831WAT      O35734   8.897   6.721   2.516
11831WAT     H135735   8.903   6.684   2.609
11831WAT     H235736   8.896   6.821   2.519
11832WAT      O35737   6.634   4.636   5.362
11832WAT     H135738   6.585   4.564   5.315
11832WAT     H235739   6.665   4.604   5.451
11833WAT      O35740   2.240   4.296   8.265
11833WAT     H135741   2.250   4.384   8.218
11833WAT     H235742   2.177   4.238   8.213
11834WAT      O35743   1.888   1.096   9.684
11834WAT     H135744   1.971   1.042   9.698
11834WAT     H235745   1.829   1.050   9.618
11835WAT      O35746   9.381   0.319   3.433
11835WAT     H135747   9.457   0.376   3.402
11835WAT     H235748   9.295   0.353   3.394
11836WAT      O35749   6.692   5.498   6.011
11836WAT     H135750   6.653   5.495   6.103
11836WAT     H235751   6.791   5.509   6.017
11837WAT      O35752   3.265   4.545   2.619
11837WAT     H135753   3.229   4.457   2.650
11837WAT     H235754   3.243   4.616   2.686
11838WAT      O35755   3.187   7.033   4.932
11838WAT     H135756   3.211   7.086   5.013
11838WAT     H235757   3.089   7.013   4.932
11839WAT      O35758   5.795   7.026   7.686
11839WAT     H135759   5.738   7.108   7.690
11839WAT     H235760   5.890   7.051   7.704
11840WAT      O35761   6.469   2.919   9.261
11840WAT     H135762   6.412   2.992   9.223
11840WAT     H235763   6.411   2.842   9.288
11841WAT      O35764   6.975   6.344   0.750
11841WAT     H135765   7.032   6.341   0.832
11841WAT     H235766   6.910   6.420   0.758
11842WAT      O35767   3.508   3.556   8.363
11842WAT     H135768   3.487   3.515   8.452
11842WAT     H235769   3.424   3.592   8.322
11843WAT      O35770   8.156   6.755   4.876
11843WAT     H135771   8.236   6.813   4.859
11843WAT     H235772   8.073   6.804   4.848
11844WAT      O35773   4.825   3.991   0.311
11844WAT     H135774   4.745   4.019   0.364
11844WAT     H235775   4.861   3.905   0.348
11845WAT      O35776   6.884   3.920   7.475
11845WAT     H135777   6.833   3.967   7.547
11845WAT     H235778   6.896   3.980   7.397
11846WAT      O35779   1.168   8.035   5.245
11846WAT     H135780   1.116   8.018   5.161
11846WAT     H235781   1.150   8.129   5.276
11847WAT      O35782   7.231   2.472   7.489
11847WAT     H135783   7.192   2.484   7.580
11847WAT     H235784   7.286   2.552   7.465
11848WAT      O35785   2.783   6.427   3.771
11848WAT     H135786   2.718   6.471   3.710
11848WAT     H235787   2.734   6.382   3.846
11849WAT      O35788   8.766   5.701   5.430
11849WAT     H135789   8.843   5.638   5.440
11849WAT     H235790   8.751   5.749   5.516
11850WAT      O35791   3.976   9.306   8.127
11850WAT     H135792   4.003   9.211   8.147
11850WAT     H235793   4.033   9.342   8.053
11851WAT      O35794   5.492   5.380   3.888
11851WAT     H135795   5.445   5.368   3.976
11851WAT     H235796   5.433   5.428   3.824
11852WAT      O35797   4.021   2.461   3.576
11852WAT     H135798   3.993   2.530   3.509
11852WAT     H235799   4.081   2.395   3.533
11853WAT      O35800   9.100   9.273   3.469
11853WAT     H135801   9.103   9.239   3.375
11853WAT     H235802   9.152   9.211   3.528
11854WAT      O35803   2.328   2.496   5.561
11854WAT     H135804   2.354   2.399   5.553
11854WAT     H235805   2.356   2.544   5.478
11855WAT      O35806   2.575   5.244   9.418
11855WAT     H135807   2.495   5.205   9.464
11855WAT     H235808   2.552   5.266   9.323
11856WAT      O35809   6.420   5.448   2.725
11856WAT     H135810   6.488   5.441   2.797
11856WAT     H235811   6.383   5.541   2.722
11857WAT      O35812   8.457   8.875   4.962
11857WAT     H135813   8.360   8.891   4.980
11857WAT     H235814   8.494   8.952   4.910
11858WAT      O35815   0.255   4.720   9.410
11858WAT     H135816   0.319   4.645   9.393
11858WAT     H235817   0.214   4.709   9.500
11859WAT      O35818   3.327   3.685   9.396
11859WAT     H135819   3.360   3.692   9.491
11859WAT     H235820   3.269   3.764   9.376
11860WAT      O35821   1.853   1.984   0.658
11860WAT     H135822   1.825   2.055   0.722
11860WAT     H235823   1.940   1.945   0.687
11861WAT      O35824   3.341   7.851   8.703
11861WAT     H135825   3.310   7.772   8.649
11861WAT     H235826   3.432   7.878   8.672
11862WAT      O35827   3.494   6.056   3.031
11862WAT     H135828   3.457   6.149   3.039
11862WAT     H235829   3.585   6.053   3.072
11863WAT      O35830   5.252   4.488   4.131
11863WAT     H135831   5.273   4.399   4.169
11863WAT     H235832   5.185   4.535   4.188
11864WAT      O35833   0.199   6.844   6.430
11864WAT     H135834   0.225   6.816   6.337
11864WAT     H235835   0.265   6.910   6.465
11865WAT      O35836   2.560   3.195   4.521
11865WAT     H135837   2.512   3.222   4.605
11865WAT     H235838   2.647   3.243   4.515
11866WAT      O35839   0.220   5.971   4.532
11866WAT     H135840   0.165   5.890   4.553
11866WAT     H235841   0.303   5.943   4.484
11867WAT      O35842   0.168   8.386   3.348
11867WAT     H135843   0.201   8.480   3.361
11867WAT     H235844   0.092   8.369   3.411
11868WAT      O35845   2.481   3.056   2.130
11868WAT     H135846   2.565   3.039   2.182
11868WAT     H235847   2.497   3.127   2.063
11869WAT      O35848   4.449   4.473   3.729
11869WAT     H135849   4.475   4.565   3.700
11869WAT     H235850   4.481   4.458   3.823
11870WAT      O35851   6.729   1.150   4.260
11870WAT     H135852   6.724   1.062   4.306
11870WAT     H235853   6.709   1.223   4.325
11871WAT      O35854   5.568   7.172   2.371
11871WAT     H135855   5.595   7.248   2.312
11871WAT     H235856   5.484   7.197   2.420
11872WAT      O35857   7.996   8.327   3.661
11872WAT     H135858   8.056   8.292   3.589
11872WAT     H235859   8.007   8.272   3.744
11873WAT      O35860   2.895   4.505   8.128
11873WAT     H135861   2.985   4.505   8.172
11873WAT     H235862   2.863   4.599   8.117
11874WAT      O35863   5.512   3.556   8.116
11874WAT     H135864   5.526   3.629   8.049
11874WAT     H235865   5.585   3.560   8.184
11875WAT      O35866   6.543   0.762   5.271
11875WAT     H135867   6.520   0.664   5.272
11875WAT     H235868   6.467   0.813   5.232
11876WAT      O35869   1.775   4.572   5.242
11876WAT     H135870   1.764   4.519   5.158
11876WAT     H235871   1.816   4.514   5.312
11877WAT      O35872   1.912   9.772   5.148
11877WAT     H135873   1.989   9.835   5.141
11877WAT     H235874   1.829   9.817   5.116
11878WAT      O35875   2.182   7.229   7.378
11878WAT     H135876   2.099   7.190   7.417
11878WAT     H235877   2.251   7.157   7.369
11879WAT      O35878   5.493   2.199   1.265
11879WAT     H135879   5.480   2.293   1.297
11879WAT     H235880   5.590   2.184   1.244
11880WAT      O35881   9.548   2.622   0.546
11880WAT     H135882   9.455   2.650   0.571
11880WAT     H235883   9.546   2.580   0.455
11881WAT      O35884   0.019   3.435   4.888
11881WAT     H135885  -0.043   3.406   4.815
11881WAT     H235886  -0.028   3.427   4.976
11882WAT      O35887   1.961   2.103   4.185
11882WAT     H135888   2.042   2.151   4.219
11882WAT     H235889   1.890   2.170   4.162
11883WAT      O35890   7.664   8.313   2.430
11883WAT     H135891   7.607   8.351   2.503
11883WAT     H235892   7.706   8.229   2.461
11884WAT      O35893   4.823   5.759   5.623
11884WAT     H135894   4.730   5.721   5.623
11884WAT     H235895   4.866   5.743   5.535
11885WAT      O35896   1.073   7.065   2.353
11885WAT     H135897   1.155   7.112   2.320
11885WAT     H235898   1.089   6.966   2.353
11886WAT      O35899   2.136   6.146   7.111
11886WAT     H135900   2.071   6.072   7.131
11886WAT     H235901   2.208   6.147   7.180
11887WAT      O35902   7.947   8.875   7.894
11887WAT     H135903   7.932   8.834   7.984
11887WAT     H235904   7.967   8.972   7.905
11888WAT      O35905   0.105   7.522   4.315
11888WAT     H135906   0.138   7.557   4.402
11888WAT     H235907   0.032   7.581   4.281
11889WAT      O35908   2.577   3.488   4.239
11889WAT     H135909   2.632   3.571   4.246
11889WAT     H235910   2.481   3.510   4.258
11890WAT      O35911   0.917   0.153   4.982
11890WAT     H135912   0.870   0.110   4.905
11890WAT     H235913   0.988   0.214   4.948
11891WAT      O35914   2.486   3.488   9.644
11891WAT     H135915   2.448   3.428   9.573
11891WAT     H235916   2.417   3.503   9.715
11892WAT      O35917   7.314   3.732   1.350
11892WAT     H135918   7.222   3.725   1.389
11892WAT     H235919   7.308   3.749   1.252
11893WAT      O35920   7.044   7.195   1.359
11893WAT     H135921   7.087   7.269   1.411
11893WAT     H235922   6.946   7.211   1.353
11894WAT      O35923   8.865   3.194   1.103
11894WAT     H135924   8.869   3.172   1.200
11894WAT     H235925   8.842   3.111   1.051
11895WAT      O35926   7.843   1.895   2.194
11895WAT     H135927   7.789   1.958   2.138
11895WAT     H235928   7.934   1.886   2.155
11896WAT      O35929   5.691   0.312   3.035
11896WAT     H135930   5.674   0.304   2.937
11896WAT     H235931   5.786   0.285   3.054
11897WAT      O35932   2.346   0.061   7.597
11897WAT     H135933   2.362   0.156   7.569
11897WAT     H235934   2.364   0.000   7.519
11898WAT      O35935   0.486   6.849   2.773
11898WAT     H135936   0.503   6.787   2.697
11898WAT     H235937   0.549   6.828   2.848
11899WAT      O35938   2.670   3.781   4.518
11899WAT     H135939   2.583   3.735   4.498
11899WAT     H235940   2.727   3.721   4.574
11900WAT      O35941   3.914   5.612   3.701
11900WAT     H135942   3.884   5.541   3.764
11900WAT     H235943   3.840   5.635   3.638
11901WAT      O35944   1.047   9.794   2.274
11901WAT     H135945   1.012   9.739   2.198
11901WAT     H235946   1.015   9.755   2.360
11902WAT      O35947   3.445   5.881   0.503
11902WAT     H135948   3.390   5.823   0.563
11902WAT     H235949   3.540   5.851   0.507
11903WAT      O35950   9.553   1.887   8.327
11903WAT     H135951   9.470   1.870   8.274
11903WAT     H235952   9.528   1.905   8.422
11904WAT      O35953   3.158   2.582   7.909
11904WAT     H135954   3.086   2.547   7.969
11904WAT     H235955   3.162   2.527   7.826
11905WAT      O35956   4.244   6.634   0.199
11905WAT     H135957   4.280   6.617   0.291
11905WAT     H235958   4.150   6.668   0.205
11906WAT      O35959   7.175   5.854   8.081
11906WAT     H135960   7.166   5.766   8.128
11906WAT     H235961   7.157   5.842   7.984
11907WAT      O35962   2.258   0.422   3.097
11907WAT     H135963   2.325   0.475   3.147
11907WAT     H235964   2.171   0.421   3.147
11908WAT      O35965   7.388   4.897   7.123
11908WAT     H135966   7.400   4.845   7.207
11908WAT     H235967   7.338   4.981   7.142
11909WAT      O35968   7.627   0.615   7.971
11909WAT     H135969   7.641   0.577   8.062
11909WAT     H235970   7.599   0.542   7.908
11910WAT      O35971   5.901   6.681   6.745
11910WAT     H135972   5.989   6.635   6.731
11910WAT     H235973   5.912   6.779   6.730
11911WAT      O35974   2.566   8.300   7.809
11911WAT     H135975   2.482   8.322   7.760
11911WAT     H235976   2.644   8.307   7.746
11912WAT      O35977   1.436   7.260   5.496
11912WAT     H135978   1.525   7.273   5.539
11912WAT     H235979   1.431   7.317   5.413
11913WAT      O35980   9.300   4.363   6.901
11913WAT     H135981   9.362   4.393   6.828
11913WAT     H235982   9.340   4.382   6.990
11914WAT      O35983   8.411   9.600   5.121
11914WAT     H135984   8.447   9.560   5.036
11914WAT     H235985   8.469   9.677   5.148
11915WAT      O35986   9.091   6.358   6.250
11915WAT     H135987   9.186   6.327   6.247
11915WAT     H235988   9.080   6.428   6.322
11916WAT      O35989   0.460   3.005   4.750
11916WAT     H135990   0.482   2.983   4.845
11916WAT     H235991   0.412   2.928   4.708
11917WAT      O35992   0.468   8.727   2.409
11917WAT     H135993   0.563   8.721   2.376
11917WAT     H235994   0.421   8.801   2.361
11918WAT      O35995   9.828   4.125   8.638
11918WAT     H135996   9.729   4.118   8.645
11918WAT     H235997   9.852   4.212   8.595
11919WAT      O35998   8.553   3.321   9.274
11919WAT     H135999   8.466   3.304   9.228
11919WAT     H236000   8.566   3.420   9.283
11920WAT      O36001   8.819   7.971   4.020
11920WAT     H136002   8.747   8.010   4.078
11920WAT     H236003   8.832   7.875   4.042
11921WAT      O36004   2.860   5.809   6.363
11921WAT     H136005   2.940   5.750   6.356
11921WAT     H236006   2.799   5.791   6.285
11922WAT      O36007   2.609   1.813   1.853
11922WAT     H136008   2.574   1.780   1.765
11922WAT     H236009   2.610   1.738   1.918
11923WAT      O36010   6.794   2.795   8.867
11923WAT     H136011   6.712   2.852   8.854
11923WAT     H236012   6.871   2.837   8.820
11924WAT      O36013   0.197   8.658   7.012
11924WAT     H136014   0.104   8.668   7.047
11924WAT     H236015   0.201   8.582   6.948
11925WAT      O36016   8.854   4.638   5.503
11925WAT     H136017   8.781   4.690   5.460
11925WAT     H236018   8.853   4.544   5.469
11926WAT      O36019   3.651   0.054   5.781
11926WAT     H136020   3.633  -0.028   5.727
11926WAT     H236021   3.694   0.028   5.868
11927WAT      O36022   6.822   2.364   1.032
11927WAT     H136023   6.789   2.366   0.938
11927WAT     H236024   6.746   2.343   1.094
11928WAT      O36025   5.824   6.355   8.655
11928WAT     H136026   5.895   6.314   8.597
11928WAT     H236027   5.856   6.358   8.749
11929WAT      O36028   3.855   6.325   5.374
11929WAT     H136029   3.774   6.303   5.321
11929WAT     H236030   3.894   6.241   5.412
11930WAT      O36031   1.668   7.295   2.209
11930WAT     H136032   1.755   7.273   2.254
11930WAT     H236033   1.627   7.375   2.253
11931WAT      O36034   6.165   6.790   3.086
11931WAT     H136035   6.080   6.840   3.102
11931WAT     H236036   6.241   6.840   3.127
11932WAT      O36037   0.498   5.840   0.665
11932WAT     H136038   0.476   5.917   0.725
11932WAT     H236039   0.475   5.864   0.571
11933WAT      O36040   1.143   6.420   2.212
11933WAT     H136041   1.189   6.503   2.183
11933WAT     H236042   1.054   6.443   2.251
11934WAT      O36043   8.385   1.674   5.724
11934WAT     H136044   8.427   1.600   5.672
11934WAT     H236045   8.392   1.655   5.821
11935WAT      O36046   6.505   1.226   7.535
11935WAT     H136047   6.600   1.202   7.516
11935WAT     H236048   6.445   1.154   7.501
11936WAT      O36049   3.086   1.587   8.110
11936WAT     H136050   3.001   1.588   8.058
11936WAT     H236051   3.085   1.512   8.176
11937WAT      O36052   0.999   2.828   7.087
11937WAT     H136053   0.933   2.900   7.105
11937WAT     H236054   0.976   2.747   7.140
11938WAT      O36055   0.410   9.787   8.799
11938WAT     H136056   0.428   9.884   8.809
11938WAT     H236057   0.341   9.759   8.866
11939WAT      O36058   9.434   0.701   2.334
11939WAT     H136059   9.514   0.748   2.371
11939WAT     H236060   9.434   0.606   2.365
11940WAT      O36061   5.203   2.800   6.159
11940WAT     H136062   5.107   2.796   6.190
11940WAT     H236063   5.246   2.882   6.195
11941WAT      O36064   3.972   2.094   5.864
11941WAT     H136065   4.059   2.134   5.833
11941WAT     H236066   3.927   2.157   5.927
11942WAT      O36067   5.741   5.378   4.941
11942WAT     H136068   5.760   5.471   4.971
11942WAT     H236069   5.671   5.338   4.999
11943WAT      O36070   8.849   4.509   8.657
11943WAT     H136071   8.893   4.529   8.744
11943WAT     H236072   8.902   4.547   8.582
11944WAT      O36073   1.704   5.166   4.731
11944WAT     H136074   1.668   5.163   4.824
11944WAT     H236075   1.759   5.085   4.713
11945WAT      O36076   7.694   4.682   6.124
11945WAT     H136077   7.622   4.614   6.139
11945WAT     H236078   7.671   4.767   6.171
11946WAT      O36079   7.009   9.383   4.736
11946WAT     H136080   6.953   9.450   4.787
11946WAT     H236081   7.022   9.415   4.642
11947WAT      O36082   1.217   0.890   3.248
11947WAT     H136083   1.243   0.796   3.274
11947WAT     H236084   1.270   0.919   3.169
11948WAT      O36085   3.039   8.955   2.049
11948WAT     H136086   3.037   8.965   2.148
11948WAT     H236087   3.133   8.938   2.019
11949WAT      O36088   4.596   2.298   1.830
11949WAT     H136089   4.694   2.314   1.842
11949WAT     H236090   4.579   2.262   1.738
11950WAT      O36091   7.054   6.303   3.801
11950WAT     H136092   7.108   6.387   3.809
11950WAT     H236093   6.958   6.325   3.789
11951WAT      O36094   4.905   0.504   4.828
11951WAT     H136095   4.822   0.519   4.775
11951WAT     H236096   4.889   0.432   4.896
11952WAT      O36097   8.406   0.691   0.167
11952WAT     H136098   8.434   0.633   0.091
11952WAT     H236099   8.318   0.660   0.203
11953WAT      O36100   9.796   6.331   0.163
11953WAT     H136101   9.886   6.313   0.123
11953WAT     H236102   9.798   6.313   0.261
11954WAT      O36103   9.535   0.398   2.120
11954WAT     H136104   9.579   0.486   2.101
11954WAT     H236105   9.535   0.381   2.218
11955WAT      O36106   6.830   1.812   3.370
11955WAT     H136107   6.825   1.830   3.272
11955WAT     H236108   6.869   1.891   3.417
11956WAT      O36109   6.311   4.546   1.571
11956WAT     H136110   6.308   4.591   1.660
11956WAT     H236111   6.233   4.577   1.516
11957WAT      O36112   0.963   6.251   7.200
11957WAT     H136113   0.893   6.191   7.162
11957WAT     H236114   1.008   6.207   7.277
11958WAT      O36115   9.405   1.061   3.285
11958WAT     H136116   9.503   1.078   3.289
11958WAT     H236117   9.381   0.991   3.353
11959WAT      O36118   0.624   5.954   5.481
11959WAT     H136119   0.577   5.981   5.398
11959WAT     H236120   0.597   5.861   5.506
11960WAT      O36121   1.422   2.976   2.916
11960WAT     H136122   1.464   3.035   2.847
11960WAT     H236123   1.420   2.882   2.882
11961WAT      O36124   4.893   3.329   2.165
11961WAT     H136125   4.871   3.415   2.210
11961WAT     H236126   4.893   3.255   2.233
11962WAT      O36127   3.606   2.378   8.622
11962WAT     H136128   3.657   2.349   8.541
11962WAT     H236129   3.644   2.334   8.703
11963WAT      O36130   0.810   4.590   3.040
11963WAT     H136131   0.836   4.675   2.993
11963WAT     H236132   0.764   4.612   3.126
11964WAT      O36133   3.735   8.961   9.318
11964WAT     H136134   3.803   9.033   9.337
11964WAT     H236135   3.711   8.915   9.403
11965WAT      O36136   5.990   8.597   6.130
11965WAT     H136137   5.894   8.623   6.140
11965WAT     H236138   6.038   8.666   6.076
11966WAT      O36139   5.020   4.461   0.833
11966WAT     H136140   4.925   4.466   0.864
11966WAT     H236141   5.033   4.379   0.778
11967WAT      O36142   8.155   9.117   6.978
11967WAT     H136143   8.241   9.066   6.973
11967WAT     H236144   8.173   9.214   6.957
11968WAT      O36145   6.967   7.138   3.670
11968WAT     H136146   7.002   7.045   3.680
11968WAT     H236147   6.961   7.181   3.760
11969WAT      O36148   1.266   0.091   6.386
11969WAT     H136149   1.229   0.063   6.298
11969WAT     H236150   1.366   0.094   6.380
11970WAT      O36151   5.467   3.659   3.935
11970WAT     H136152   5.508   3.750   3.944
11970WAT     H236153   5.462   3.615   4.024
11971WAT      O36154   9.672   1.387   3.277
11971WAT     H136155   9.728   1.455   3.229
11971WAT     H236156   9.662   1.414   3.373
11972WAT      O36157   6.147   7.263   8.470
11972WAT     H136158   6.144   7.345   8.528
11972WAT     H236159   6.133   7.288   8.375
11973WAT      O36160   9.196   4.067   9.444
11973WAT     H136161   9.133   4.133   9.485
11973WAT     H236162   9.285   4.074   9.490
11974WAT      O36163   1.698   2.364   0.551
11974WAT     H136164   1.660   2.362   0.459
11974WAT     H236165   1.628   2.396   0.615
11975WAT      O36166   8.498   8.403   3.304
11975WAT     H136167   8.477   8.438   3.396
11975WAT     H236168   8.589   8.362   3.305
11976WAT      O36169   1.156   0.506   0.768
11976WAT     H136170   1.199   0.510   0.678
11976WAT     H236171   1.089   0.580   0.776
11977WAT      O36172   0.564   0.752   1.329
11977WAT     H136173   0.542   0.847   1.351
11977WAT     H236174   0.626   0.715   1.399
11978WAT      O36175   6.537   1.791   2.581
11978WAT     H136176   6.630   1.795   2.618
11978WAT     H236177   6.507   1.882   2.555
11979WAT      O36178   6.595   5.987   0.007
11979WAT     H136179   6.561   5.896   0.031
11979WAT     H236180   6.529   6.033  -0.052
11980WAT      O36181   0.734   6.579   3.381
11980WAT     H136182   0.824   6.555   3.416
11980WAT     H236183   0.665   6.559   3.451
11981WAT      O36184   6.913   9.104   2.885
11981WAT     H136185   6.923   9.009   2.913
11981WAT     H236186   6.844   9.149   2.942
11982WAT      O36187   0.386   6.317   8.649
11982WAT     H136188   0.340   6.280   8.569
11982WAT     H236189   0.483   6.291   8.648
11983WAT      O36190   5.571   7.684   4.742
11983WAT     H136191   5.510   7.763   4.750
11983WAT     H236192   5.623   7.690   4.657
11984WAT      O36193   1.249   7.912   6.129
11984WAT     H136194   1.183   7.879   6.061
11984WAT     H236195   1.202   7.928   6.216
11985WAT      O36196   9.654   8.851   0.751
11985WAT     H136197   9.638   8.940   0.710
11985WAT     H236198   9.753   8.833   0.754
11986WAT      O36199   9.307   8.614   0.381
11986WAT     H136200   9.368   8.582   0.453
11986WAT     H236201   9.331   8.707   0.355
11987WAT      O36202   0.629   6.099   9.790
11987WAT     H136203   0.669   6.096   9.881
11987WAT     H236204   0.701   6.111   9.722
11988WAT      O36205   0.313   4.326   7.373
11988WAT     H136206   0.321   4.233   7.339
11988WAT     H236207   0.226   4.336   7.422
11989WAT      O36208   8.965   4.957   5.033
11989WAT     H136209   8.950   4.891   5.107
11989WAT     H236210   8.956   4.909   4.945
11990WAT      O36211   5.902   4.360   1.419
11990WAT     H136212   5.921   4.429   1.349
11990WAT     H236213   5.872   4.275   1.375
11991WAT      O36214   9.252   1.181   6.830
11991WAT     H136215   9.260   1.098   6.774
11991WAT     H236216   9.204   1.158   6.915
11992WAT      O36217   2.934   4.364   7.578
11992WAT     H136218   3.015   4.308   7.561
11992WAT     H236219   2.932   4.390   7.675
11993WAT      O36220   2.744   3.607   9.058
11993WAT     H136221   2.804   3.596   8.979
11993WAT     H236222   2.691   3.524   9.072
11994WAT      O36223   5.897   1.645   9.770
11994WAT     H136224   5.875   1.679   9.861
11994WAT     H236225   5.813   1.633   9.717
11995WAT      O36226   3.606   5.038   6.923
11995WAT     H136227   3.568   5.122   6.884
11995WAT     H236228   3.619   4.971   6.849
11996WAT      O36229   6.854   2.509   5.469
11996WAT     H136230   6.840   2.578   5.398
11996WAT     H236231   6.941   2.526   5.515
11997WAT      O36232   7.031   4.148   0.663
11997WAT     H136233   7.081   4.067   0.695
11997WAT     H236234   7.066   4.229   0.709
11998WAT      O36235   2.517   0.771   2.366
11998WAT     H136236   2.562   0.717   2.438
11998WAT     H236237   2.535   0.728   2.277
11999WAT      O36238   6.370   6.375   7.057
11999WAT     H136239   6.283   6.396   7.012
11999WAT     H236240   6.361   6.290   7.109
12000WAT      O36241   4.361   4.190   8.062
12000WAT     H136242   4.425   4.115   8.078
12000WAT     H236243   4.341   4.196   7.964
12001WAT      O36244   2.223   2.438   1.036
12001WAT     H136245   2.191   2.454   1.130
12001WAT     H236246   2.151   2.395   0.983
12002WAT      O36247   9.685   7.055   8.223
12002WAT     H136248   9.731   6.992   8.286
12002WAT     H236249   9.724   7.147   8.234
12003WAT      O36250   0.079   4.558   7.208
12003WAT     H136251   0.021   4.634   7.238
12003WAT     H236252   0.166   4.594   7.173
12004WAT      O36253   9.195   9.668   9.838
12004WAT     H136254   9.110   9.621   9.860
12004WAT     H236255   9.257   9.663   9.917
12005WAT      O36256   7.057   1.689   8.881
12005WAT     H136257   7.018   1.737   8.960
12005WAT     H236258   6.995   1.698   8.803
12006WAT      O36259   6.454   0.453   6.402
12006WAT     H136260   6.510   0.514   6.459
12006WAT     H236261   6.374   0.424   6.454
12007WAT      O36262   9.678   4.882   1.723
12007WAT     H136263   9.581   4.879   1.699
12007WAT     H236264   9.723   4.797   1.695
12008WAT      O36265   6.498   9.079   9.155
12008WAT     H136266   6.571   9.015   9.129
12008WAT     H236267   6.537   9.151   9.213
12009WAT      O36268   1.942   2.971   6.401
12009WAT     H136269   1.979   3.063   6.415
12009WAT     H236270   1.868   2.955   6.467
12010WAT      O36271   3.969   6.085   5.497
12010WAT     H136272   3.956   6.020   5.422
12010WAT     H236273   3.951   6.038   5.584
12011WAT      O36274   7.112   7.884   8.311
12011WAT     H136275   7.096   7.963   8.253
12011WAT     H236276   7.027   7.833   8.324
12012WAT      O36277   1.934   4.729   9.431
12012WAT     H136278   1.851   4.776   9.402
12012WAT     H236279   1.938   4.640   9.386
12013WAT      O36280   4.603   4.618   7.513
12013WAT     H136281   4.538   4.694   7.518
12013WAT     H236282   4.597   4.575   7.423
12014WAT      O36283   6.986   3.105   6.176
12014WAT     H136284   6.929   3.100   6.257
12014WAT     H236285   7.074   3.146   6.199
12015WAT      O36286   7.957   8.120   3.900
12015WAT     H136287   8.033   8.062   3.929
12015WAT     H236288   7.872   8.088   3.942
12016WAT      O36289   2.898   5.072   2.116
12016WAT     H136290   2.959   5.006   2.071
12016WAT     H236291   2.824   5.022   2.162
12017WAT      O36292   5.857   3.815   4.695
12017WAT     H136293   5.888   3.885   4.760
12017WAT     H236294   5.758   3.821   4.686
12018WAT      O36295   9.622   8.530   2.625
12018WAT     H136296   9.705   8.585   2.631
12018WAT     H236297   9.580   8.522   2.715
12019WAT      O36298   4.964   0.730   4.192
12019WAT     H136299   4.989   0.647   4.242
12019WAT     H236300   5.038   0.755   4.130
12020WAT      O36301   3.099   3.572   3.358
12020WAT     H136302   3.086   3.662   3.317
12020WAT     H236303   3.064   3.502   3.297
12021WAT      O36304   2.027   4.665   8.785
12021WAT     H136305   2.118   4.655   8.744
12021WAT     H236306   2.005   4.582   8.836
12022WAT      O36307   2.024   8.875   6.533
12022WAT     H136308   2.032   8.946   6.463
12022WAT     H236309   1.971   8.798   6.495
12023WAT      O36310   0.126   7.373   6.284
12023WAT     H136311   0.109   7.278   6.307
12023WAT     H236312   0.095   7.392   6.191
12024WAT      O36313   4.976   4.368   7.027
12024WAT     H136314   4.944   4.339   7.118
12024WAT     H236315   5.044   4.304   6.993
12025WAT      O36316   6.439   9.450   4.752
12025WAT     H136317   6.533   9.452   4.718
12025WAT     H236318   6.424   9.529   4.812
12026WAT      O36319   3.902   4.841   7.821
12026WAT     H136320   3.967   4.917   7.824
12026WAT     H236321   3.844   4.843   7.903
12027WAT      O36322   4.232   6.072   0.734
12027WAT     H136323   4.183   6.116   0.658
12027WAT     H236324   4.316   6.123   0.752
12028WAT      O36325   7.534   0.895   0.075
12028WAT     H136326   7.585   0.982   0.076
12028WAT     H236327   7.593   0.823   0.040
12029WAT      O36328   7.834   4.825   4.407
12029WAT     H136329   7.821   4.922   4.429
12029WAT     H236330   7.746   4.777   4.414
12030WAT      O36331   2.473   2.646   9.491
12030WAT     H136332   2.388   2.698   9.495
12030WAT     H236333   2.466   2.575   9.421
12031WAT      O36334   6.207   5.463   6.801
12031WAT     H136335   6.269   5.424   6.733
12031WAT     H236336   6.207   5.406   6.883
12032WAT      O36337   5.579   4.343   8.304
12032WAT     H136338   5.669   4.315   8.339
12032WAT     H236339   5.525   4.262   8.282
12033WAT      O36340   5.635   7.575   4.990
12033WAT     H136341   5.641   7.483   4.950
12033WAT     H236342   5.627   7.642   4.916
12034WAT      O36343   1.742   9.466   1.915
12034WAT     H136344   1.833   9.427   1.927
12034WAT     H236345   1.733   9.500   1.821
12035WAT      O36346   4.646   8.901   4.934
12035WAT     H136347   4.729   8.941   4.894
12035WAT     H236348   4.596   8.972   4.984
12036WAT      O36349   3.995   7.811   2.274
12036WAT     H136350   4.082   7.818   2.225
12036WAT     H236351   3.976   7.715   2.295
12037WAT      O36352   7.239   9.601   6.812
12037WAT     H136353   7.149   9.591   6.769
12037WAT     H236354   7.234   9.671   6.883
12038WAT      O36355   4.239   4.423   9.362
12038WAT     H136356   4.311   4.379   9.309
12038WAT     H236357   4.164   4.359   9.377
12039WAT      O36358   8.942   7.293   5.546
12039WAT     H136359   9.028   7.242   5.556
12039WAT     H236360   8.945   7.346   5.461
12040WAT      O36361   0.550   7.949   2.453
12040WAT     H136362   0.606   7.897   2.388
12040WAT     H236363   0.454   7.940   2.429
12041WAT      O36364   3.903   0.661   6.158
12041WAT     H136365   3.803   0.661   6.148
12041WAT     H236366   3.927   0.704   6.245
12042WAT      O36367   2.059   1.265   5.166
12042WAT     H136368   1.961   1.277   5.182
12042WAT     H236369   2.079   1.283   5.070
12043WAT      O36370   9.807   4.484   1.442
12043WAT     H136371   9.720   4.532   1.431
12043WAT     H236372   9.848   4.468   1.353
12044WAT      O36373   6.075   2.979   4.486
12044WAT     H136374   6.121   2.936   4.409
12044WAT     H236375   6.000   2.920   4.516
12045WAT      O36376   4.522   1.496   5.458
12045WAT     H136377   4.565   1.409   5.434
12045WAT     H236378   4.438   1.508   5.406
12046WAT      O36379   5.418   1.599   4.006
12046WAT     H136380   5.320   1.607   4.023
12046WAT     H236381   5.458   1.690   3.997
12047WAT      O36382   6.144   0.316   7.685
12047WAT     H136383   6.123   0.243   7.749
12047WAT     H236384   6.175   0.277   7.598
12048WAT      O36385   5.764   3.914   2.041
12048WAT     H136386   5.703   3.933   2.118
12048WAT     H236387   5.718   3.855   1.975
12049WAT      O36388   7.880   6.072   6.142
12049WAT     H136389   7.833   5.992   6.178
12049WAT     H236390   7.958   6.094   6.200
12050WAT      O36391   4.135   2.458   8.512
12050WAT     H136392   4.123   2.373   8.563
12050WAT     H236393   4.211   2.510   8.551
12051WAT      O36394   8.668   1.148   6.752
12051WAT     H136395   8.735   1.207   6.708
12051WAT     H236396   8.582   1.149   6.700
12052WAT      O36397   3.480   6.689   0.387
12052WAT     H136398   3.421   6.637   0.449
12052WAT     H236399   3.574   6.655   0.396
12053WAT      O36400   4.725   2.691   2.921
12053WAT     H136401   4.744   2.767   2.861
12053WAT     H236402   4.776   2.701   3.006
12054WAT      O36403   9.334   2.274   1.113
12054WAT     H136404   9.373   2.190   1.075
12054WAT     H236405   9.347   2.276   1.212
12055WAT      O36406   4.978   0.984   7.696
12055WAT     H136407   4.990   0.943   7.606
12055WAT     H236408   4.998   0.916   7.766
12056WAT      O36409   1.894   8.007   0.475
12056WAT     H136410   1.985   8.009   0.515
12056WAT     H236411   1.896   8.052   0.386
12057WAT      O36412   2.399   1.382   0.176
12057WAT     H136413   2.477   1.320   0.181
12057WAT     H236414   2.315   1.329   0.164
12058WAT      O36415   0.006   0.152   9.789
12058WAT     H136416   0.048   0.066   9.817
12058WAT     H236417   0.014   0.219   9.862
12059WAT      O36418   2.065   9.649   1.702
12059WAT     H136419   2.059   9.746   1.679
12059WAT     H236420   2.105   9.640   1.794
12060WAT      O36421   4.950   8.449   3.583
12060WAT     H136422   5.018   8.442   3.510
12060WAT     H236423   4.895   8.532   3.570
12061WAT      O36424   8.557   3.537   8.928
12061WAT     H136425   8.509   3.450   8.941
12061WAT     H236426   8.616   3.530   8.848
12062WAT      O36427   4.135   3.645   6.611
12062WAT     H136428   4.145   3.741   6.585
12062WAT     H236429   4.141   3.637   6.711
12063WAT      O36430   2.407   4.919   7.358
12063WAT     H136431   2.390   4.930   7.456
12063WAT     H236432   2.455   4.833   7.342
12064WAT      O36433   9.602   0.519   7.855
12064WAT     H136434   9.650   0.607   7.844
12064WAT     H236435   9.559   0.494   7.768
12065WAT      O36436   7.947   6.403   0.792
12065WAT     H136437   7.990   6.397   0.882
12065WAT     H236438   8.018   6.406   0.721
12066WAT      O36439   0.995   8.962   2.666
12066WAT     H136440   1.026   9.007   2.581
12066WAT     H236441   0.919   9.013   2.704
12067WAT      O36442   9.300   4.594   0.871
12067WAT     H136443   9.307   4.501   0.835
12067WAT     H236444   9.362   4.604   0.949
12068WAT      O36445   2.590   1.883   1.042
12068WAT     H136446   2.495   1.913   1.050
12068WAT     H236447   2.604   1.840   0.953
12069WAT      O36448   1.862   0.687   9.754
12069WAT     H136449   1.931   0.646   9.814
12069WAT     H236450   1.781   0.709   9.807
12070WAT      O36451   6.977   4.714   6.422
12070WAT     H136452   7.008   4.808   6.431
12070WAT     H236453   6.904   4.709   6.355
12071WAT      O36454   5.626   1.181   0.964
12071WAT     H136455   5.611   1.087   0.935
12071WAT     H236456   5.574   1.243   0.905
12072WAT      O36457   8.895   8.515   5.560
12072WAT     H136458   8.879   8.416   5.561
12072WAT     H236459   8.907   8.546   5.466
12073WAT      O36460   1.241   6.494   5.391
12073WAT     H136461   1.261   6.396   5.391
12073WAT     H236462   1.207   6.521   5.481
12074WAT      O36463   7.870   7.373   8.694
12074WAT     H136464   7.828   7.292   8.655
12074WAT     H236465   7.919   7.423   8.623
12075WAT      O36466   6.837   5.528   0.512
12075WAT     H136467   6.849   5.573   0.423
12075WAT     H236468   6.912   5.463   0.526
12076WAT      O36469   4.573   5.663   3.886
12076WAT     H136470   4.566   5.675   3.787
12076WAT     H236471   4.669   5.649   3.912
12077WAT      O36472   4.482   5.253   7.463
12077WAT     H136473   4.507   5.277   7.369
12077WAT     H236474   4.514   5.161   7.484
12078WAT      O36475   0.816   0.960   7.987
12078WAT     H136476   0.810   0.912   7.899
12078WAT     H236477   0.843   0.895   8.058
12079WAT      O36478   6.857   0.961   9.041
12079WAT     H136479   6.885   1.028   8.973
12079WAT     H236480   6.921   0.962   9.118
12080WAT      O36481   6.834   9.764   9.758
12080WAT     H136482   6.831   9.860   9.732
12080WAT     H236483   6.754   9.741   9.814
12081WAT      O36484   5.191   2.540   2.821
12081WAT     H136485   5.117   2.473   2.815
12081WAT     H236486   5.266   2.501   2.875
12082WAT      O36487   9.122   3.151   2.339
12082WAT     H136488   9.179   3.194   2.409
12082WAT     H236489   9.156   3.175   2.248
12083WAT      O36490   7.276   2.094   3.295
12083WAT     H136491   7.219   2.013   3.282
12083WAT     H236492   7.218   2.172   3.319
12084WAT      O36493   0.018   4.980   7.188
12084WAT     H136494   0.098   4.985   7.129
12084WAT     H236495   0.039   5.020   7.277
12085WAT      O36496   4.087   7.147   5.931
12085WAT     H136497   3.992   7.133   5.903
12085WAT     H236498   4.117   7.239   5.906
12086WAT      O36499   4.855   7.077   8.001
12086WAT     H136500   4.819   7.156   8.050
12086WAT     H236501   4.927   7.106   7.939
12087WAT      O36502   4.639   4.178   1.636
12087WAT     H136503   4.665   4.221   1.550
12087WAT     H236504   4.709   4.197   1.705
12088WAT      O36505   7.654   1.805   4.607
12088WAT     H136506   7.631   1.755   4.691
12088WAT     H236507   7.696   1.742   4.542
12089WAT      O36508   6.632   6.341   2.837
12089WAT     H136509   6.581   6.262   2.802
12089WAT     H236510   6.582   6.425   2.816
12090WAT      O36511   2.086   3.857   6.824
12090WAT     H136512   1.995   3.830   6.792
12090WAT     H236513   2.123   3.927   6.763
12091WAT      O36514   1.822   6.209   4.803
12091WAT     H136515   1.858   6.248   4.888
12091WAT     H236516   1.824   6.109   4.807
12092WAT      O36517   3.300   4.889   6.884
12092WAT     H136518   3.297   4.882   6.785
12092WAT     H236519   3.338   4.978   6.910
12093WAT      O36520   2.489   5.306   4.948
12093WAT     H136521   2.561   5.321   5.015
12093WAT     H236522   2.512   5.227   4.891
12094WAT      O36523   5.801   4.225   1.839
12094WAT     H136524   5.820   4.179   1.926
12094WAT     H236525   5.873   4.204   1.774
12095WAT      O36526   8.790   0.168   3.683
12095WAT     H136527   8.694   0.156   3.709
12095WAT     H236528   8.849   0.140   3.758
12096WAT      O36529   1.835   7.298   0.617
12096WAT     H136530   1.792   7.381   0.581
12096WAT     H236531   1.922   7.321   0.661
12097WAT      O36532   6.538   3.870   1.934
12097WAT     H136533   6.512   3.943   1.997
12097WAT     H236534   6.627   3.833   1.960
12098WAT      O36535   0.855   1.324   6.828
12098WAT     H136536   0.824   1.267   6.905
12098WAT     H236537   0.784   1.327   6.758
12099WAT      O36538   4.682   0.971   7.667
12099WAT     H136539   4.774   0.966   7.705
12099WAT     H236540   4.643   0.880   7.660
12100WAT      O36541   2.276   9.576   4.324
12100WAT     H136542   2.263   9.524   4.240
12100WAT     H236543   2.211   9.545   4.393
12101WAT      O36544   8.217   2.331   1.568
12101WAT     H136545   8.204   2.243   1.521
12101WAT     H236546   8.300   2.375   1.534
12102WAT      O36547   8.073   7.357   1.945
12102WAT     H136548   8.169   7.335   1.924
12102WAT     H236549   8.065   7.455   1.964
12103WAT      O36550   9.124   9.590   5.700
12103WAT     H136551   9.136   9.527   5.777
12103WAT     H236552   9.027   9.603   5.683
12104WAT      O36553   1.903   9.774   2.834
12104WAT     H136554   1.905   9.729   2.745
12104WAT     H236555   1.816   9.756   2.879
12105WAT      O36556   2.737   8.785   6.517
12105WAT     H136557   2.752   8.806   6.614
12105WAT     H236558   2.690   8.861   6.473
12106WAT      O36559   9.752   5.571   3.481
12106WAT     H136560   9.843   5.536   3.500
12106WAT     H236561   9.694   5.498   3.445
12107WAT      O36562   2.041   8.281   3.160
12107WAT     H136563   2.085   8.247   3.077
12107WAT     H236564   1.998   8.369   3.141
12108WAT      O36565   9.199   1.684   6.945
12108WAT     H136566   9.118   1.636   6.979
12108WAT     H236567   9.190   1.781   6.965
12109WAT      O36568   1.660   3.259   5.507
12109WAT     H136569   1.635   3.170   5.544
12109WAT     H236570   1.672   3.324   5.582
12110WAT      O36571   0.373   7.645   2.148
12110WAT     H136572   0.367   7.637   2.048
12110WAT     H236573   0.447   7.708   2.172
12111WAT      O36574   5.506   1.567   8.991
12111WAT     H136575   5.484   1.551   9.087
12111WAT     H236576   5.441   1.632   8.952
12112WAT      O36577   9.079   3.065   8.936
12112WAT     H136578   9.162   3.111   8.905
12112WAT     H236579   9.104   2.993   9.000
12113WAT      O36580   1.688   0.366   4.255
12113WAT     H136581   1.654   0.284   4.210
12113WAT     H236582   1.663   0.446   4.201
12114WAT      O36583   0.802   2.402   9.602
12114WAT     H136584   0.807   2.342   9.682
12114WAT     H236585   0.875   2.470   9.606
12115WAT      O36586   1.747   8.785   5.817
12115WAT     H136587   1.672   8.764   5.754
12115WAT     H236588   1.780   8.701   5.859
12116WAT      O36589   1.043   0.851   9.760
12116WAT     H136590   1.050   0.903   9.675
12116WAT     H236591   0.967   0.886   9.814
12117WAT      O36592   1.101   8.063   7.292
12117WAT     H136593   1.113   8.072   7.391
12117WAT     H236594   1.086   8.154   7.252
12118WAT      O36595   7.757   3.279   1.869
12118WAT     H136596   7.836   3.339   1.885
12118WAT     H236597   7.759   3.245   1.775
12119WAT      O36598   0.601   4.095   2.986
12119WAT     H136599   0.545   4.014   2.968
12119WAT     H236600   0.680   4.095   2.924
12120WAT      O36601   5.561   4.858   3.214
12120WAT     H136602   5.509   4.779   3.182
12120WAT     H236603   5.656   4.831   3.229
12121WAT      O36604   0.217   9.264   8.379
12121WAT     H136605   0.271   9.348   8.375
12121WAT     H236606   0.136   9.279   8.436
12122WAT      O36607   5.288   5.448   8.710
12122WAT     H136608   5.316   5.458   8.614
12122WAT     H236609   5.307   5.355   8.741
12123WAT      O36610   5.679   6.506   3.999
12123WAT     H136611   5.755   6.449   4.029
12123WAT     H236612   5.710   6.601   3.991
12124WAT      O36613   3.437   6.425   6.634
12124WAT     H136614   3.415   6.372   6.553
12124WAT     H236615   3.522   6.391   6.674
12125WAT      O36616   9.703   4.337   5.572
12125WAT     H136617   9.699   4.436   5.588
12125WAT     H236618   9.759   4.319   5.491
12126WAT      O36619   8.878   9.360   6.966
12126WAT     H136620   8.812   9.390   7.035
12126WAT     H236621   8.884   9.430   6.894
12127WAT      O36622   5.007   7.606   3.518
12127WAT     H136623   5.103   7.618   3.493
12127WAT     H236624   4.991   7.650   3.607
12128WAT      O36625   2.634   8.907   4.295
12128WAT     H136626   2.586   8.844   4.357
12128WAT     H236627   2.593   8.902   4.204
12129WAT      O36628   4.630   9.738   8.074
12129WAT     H136629   4.542   9.776   8.044
12129WAT     H236630   4.674   9.801   8.137
12130WAT      O36631   1.474   7.035   2.559
12130WAT     H136632   1.549   6.998   2.505
12130WAT     H236633   1.418   6.961   2.595
12131WAT      O36634   1.760   1.945   2.284
12131WAT     H136635   1.745   2.037   2.319
12131WAT     H236636   1.826   1.948   2.209
12132WAT      O36637   2.177   2.324   7.266
12132WAT     H136638   2.107   2.309   7.336
12132WAT     H236639   2.159   2.409   7.217
12133WAT      O36640   5.808   0.886   9.842
12133WAT     H136641   5.848   0.795   9.834
12133WAT     H236642   5.841   0.930   9.926
12134WAT      O36643   9.623   1.262   6.124
12134WAT     H136644   9.635   1.165   6.103
12134WAT     H236645   9.664   1.318   6.052
12135WAT      O36646   5.051   8.615   6.979
12135WAT     H136647   5.064   8.637   7.076
12135WAT     H236648   5.063   8.517   6.965
12136WAT      O36649   2.849   7.160   5.850
12136WAT     H136650   2.847   7.192   5.755
12136WAT     H236651   2.760   7.121   5.874
12137WAT      O36652   8.232   6.595   1.165
12137WAT     H136653   8.166   6.618   1.093
12137WAT     H236654   8.294   6.672   1.180
12138WAT      O36655   3.835   1.678   7.335
12138WAT     H136656   3.750   1.674   7.283
12138WAT     H236657   3.908   1.632   7.283
12139WAT      O36658   7.958   5.452   0.286
12139WAT     H136659   8.022   5.507   0.339
12139WAT     H236660   7.965   5.477   0.190
12140WAT      O36661   6.217   8.747   2.798
12140WAT     H136662   6.218   8.762   2.699
12140WAT     H236663   6.182   8.829   2.843
12141WAT      O36664   1.462   0.520   0.843
12141WAT     H136665   1.364   0.526   0.863
12141WAT     H236666   1.491   0.425   0.848
12142WAT      O36667   3.692   1.160   5.738
12142WAT     H136668   3.752   1.160   5.818
12142WAT     H236669   3.683   1.067   5.703
12143WAT      O36670   4.976   4.552   9.838
12143WAT     H136671   4.937   4.467   9.874
12143WAT     H236672   4.911   4.627   9.853
12144WAT      O36673   7.481   0.034   4.135
12144WAT     H136674   7.440  -0.049   4.171
12144WAT     H236675   7.482   0.104   4.206
12145WAT      O36676   3.517   1.505   5.513
12145WAT     H136677   3.423   1.504   5.549
12145WAT     H236678   3.522   1.569   5.437
12146WAT      O36679   6.554   4.400   4.691
12146WAT     H136680   6.466   4.357   4.711
12146WAT     H236681   6.564   4.411   4.592
12147WAT      O36682   7.309   7.458   3.241
12147WAT     H136683   7.392   7.404   3.248
12147WAT     H236684   7.239   7.423   3.303
12148WAT      O36685   0.565   1.925   7.011
12148WAT     H136686   0.503   2.002   7.027
12148WAT     H236687   0.529   1.868   6.937
12149WAT      O36688   5.783   9.611   3.342
12149WAT     H136689   5.787   9.557   3.258
12149WAT     H236690   5.702   9.585   3.394
12150WAT      O36691   2.881   7.791   8.598
12150WAT     H136692   2.893   7.694   8.620
12150WAT     H236693   2.853   7.841   8.680
12151WAT      O36694   4.230   5.781   7.484
12151WAT     H136695   4.223   5.709   7.554
12151WAT     H236696   4.141   5.793   7.440
12152WAT      O36697   1.681   6.958   3.275
12152WAT     H136698   1.709   7.006   3.192
12152WAT     H236699   1.757   6.901   3.307
12153WAT      O36700   2.196   8.778   0.989
12153WAT     H136701   2.136   8.699   1.006
12153WAT     H236702   2.142   8.852   0.949
12154WAT      O36703   8.364   6.137   6.901
12154WAT     H136704   8.295   6.125   6.972
12154WAT     H236705   8.382   6.234   6.888
12155WAT      O36706   1.616   0.796   5.835
12155WAT     H136707   1.686   0.763   5.898
12155WAT     H236708   1.630   0.893   5.817
12156WAT      O36709   7.941   0.128   5.951
12156WAT     H136710   8.035   0.103   5.976
12156WAT     H236711   7.930   0.121   5.852
12157WAT      O36712   6.331   2.715   5.651
12157WAT     H136713   6.382   2.748   5.572
12157WAT     H236714   6.366   2.758   5.734
12158WAT      O36715   9.096   5.787   1.594
12158WAT     H136716   9.196   5.792   1.602
12158WAT     H236717   9.068   5.829   1.507
12159WAT      O36718   7.312   4.179   7.975
12159WAT     H136719   7.254   4.098   7.971
12159WAT     H236720   7.403   4.156   7.940
12160WAT      O36721   7.202   5.936   7.029
12160WAT     H136722   7.197   5.941   7.129
12160WAT     H236723   7.228   5.843   7.003
12161WAT      O36724   1.345   2.901   0.201
12161WAT     H136725   1.268   2.965   0.196
12161WAT     H236726   1.376   2.880   0.109
12162WAT      O36727   2.353   7.786   1.385
12162WAT     H136728   2.321   7.850   1.315
12162WAT     H236729   2.429   7.827   1.435
12163WAT      O36730   5.931   5.802   5.942
12163WAT     H136731   5.934   5.717   5.995
12163WAT     H236732   5.972   5.787   5.852
12164WAT      O36733   5.423   7.825   7.636
12164WAT     H136734   5.354   7.757   7.659
12164WAT     H236735   5.476   7.848   7.718
12165WAT      O36736   2.283   0.320   9.838
12165WAT     H136737   2.275   0.295   9.935
12165WAT     H236738   2.269   0.239   9.782
12166WAT      O36739   2.079   9.476   5.720
12166WAT     H136740   2.140   9.516   5.788
12166WAT     H236741   2.101   9.514   5.630
12167WAT      O36742   8.783   2.221   4.391
12167WAT     H136743   8.703   2.275   4.416
12167WAT     H236744   8.782   2.203   4.293
12168WAT      O36745   9.814   2.997   1.723
12168WAT     H136746   9.891   2.955   1.675
12168WAT     H236747   9.807   2.958   1.815
12169WAT      O36748   7.503   2.378   7.141
12169WAT     H136749   7.545   2.431   7.068
12169WAT     H236750   7.494   2.283   7.113
12170WAT      O36751   2.961   3.130   2.426
12170WAT     H136752   2.933   3.166   2.515
12170WAT     H236753   2.907   3.173   2.354
12171WAT      O36754   0.639   4.202   7.175
12171WAT     H136755   0.554   4.249   7.152
12171WAT     H236756   0.709   4.225   7.107
12172WAT      O36757   3.675   7.965   4.322
12172WAT     H136758   3.587   7.919   4.336
12172WAT     H236759   3.747   7.912   4.367
12173WAT      O36760   8.470   7.553   0.895
12173WAT     H136761   8.375   7.572   0.869
12173WAT     H236762   8.471   7.506   0.984
12174WAT      O36763   0.794   7.098   5.187
12174WAT     H136764   0.793   7.016   5.130
12174WAT     H236765   0.851   7.081   5.268
12175WAT      O36766   0.791   0.201   6.587
12175WAT     H136767   0.777   0.266   6.662
12175WAT     H236768   0.828   0.249   6.508
12176WAT      O36769   7.009   5.528   6.787
12176WAT     H136770   6.960   5.479   6.859
12176WAT     H236771   7.039   5.463   6.717
12177WAT      O36772   1.035   1.230   3.769
12177WAT     H136773   1.021   1.329   3.765
12177WAT     H236774   0.954   1.184   3.732
12178WAT      O36775   3.870   8.965   0.310
12178WAT     H136776   3.809   8.893   0.277
12178WAT     H236777   3.912   9.011   0.232
12179WAT      O36778   2.926   5.790   0.804
12179WAT     H136779   2.915   5.882   0.841
12179WAT     H236780   2.893   5.787   0.710
12180WAT      O36781   3.979   6.910   8.498
12180WAT     H136782   4.047   6.865   8.557
12180WAT     H236783   3.987   6.874   8.405
12181WAT      O36784   6.227   1.329   5.251
12181WAT     H136785   6.213   1.232   5.272
12181WAT     H236786   6.252   1.378   5.334
12182WAT      O36787   1.153   0.093   6.641
12182WAT     H136788   1.144   0.189   6.669
12182WAT     H236789   1.191   0.089   6.549
12183WAT      O36790   4.902   9.542   2.784
12183WAT     H136791   4.940   9.481   2.714
12183WAT     H236792   4.819   9.584   2.749
12184WAT      O36793   7.422   1.784   6.435
12184WAT     H136794   7.505   1.837   6.415
12184WAT     H236795   7.431   1.740   6.524
12185WAT      O36796   0.015   6.858   1.552
12185WAT     H136797  -0.021   6.940   1.596
12185WAT     H236798  -0.043   6.832   1.475
12186WAT      O36799   9.855   6.593   6.192
12186WAT     H136800   9.811   6.676   6.156
12186WAT     H236801   9.914   6.554   6.121
12187WAT      O36802   0.723   6.085   6.454
12187WAT     H136803   0.810   6.119   6.419
12187WAT     H236804   0.678   6.157   6.507
12188WAT      O36805   3.091   3.725   0.503
12188WAT     H136806   3.172   3.768   0.543
12188WAT     H236807   3.064   3.647   0.559
12189WAT      O36808   1.055   0.762   0.787
12189WAT     H136809   0.960   0.782   0.812
12189WAT     H236810   1.114   0.838   0.814
12190WAT      O36811   2.455   0.498   3.263
12190WAT     H136812   2.514   0.442   3.321
12190WAT     H236813   2.432   0.583   3.311
12191WAT      O36814   7.762   1.615   6.879
12191WAT     H136815   7.797   1.632   6.787
12191WAT     H236816   7.675   1.566   6.873
12192WAT      O36817   7.606   0.249   9.269
12192WAT     H136818   7.594   0.330   9.327
12192WAT     H236819   7.691   0.257   9.217
12193WAT      O36820   3.874   9.713   9.451
12193WAT     H136821   3.883   9.778   9.376
12193WAT     H236822   3.888   9.620   9.417
12194WAT      O36823   7.914   3.690   5.864
12194WAT     H136824   7.985   3.703   5.933
12194WAT     H236825   7.942   3.732   5.778
12195WAT      O36826   6.983   1.385   6.434
12195WAT     H136827   7.024   1.301   6.398
12195WAT     H236828   7.029   1.464   6.395
12196WAT      O36829   6.970   2.925   4.788
12196WAT     H136830   6.927   2.836   4.808
12196WAT     H236831   7.006   2.964   4.872
12197WAT      O36832   4.387   9.412   7.731
12197WAT     H136833   4.444   9.443   7.655
12197WAT     H236834   4.401   9.314   7.745
12198WAT      O36835   8.283   3.201   5.746
12198WAT     H136836   8.184   3.209   5.758
12198WAT     H236837   8.328   3.197   5.835
12199WAT      O36838   1.109   6.128   0.109
12199WAT     H136839   1.147   6.043   0.074
12199WAT     H236840   1.043   6.108   0.182
12200WAT      O36841   9.436   0.710   4.692
12200WAT     H136842   9.442   0.774   4.615
12200WAT     H236843   9.346   0.720   4.735
12201WAT      O36844   6.917   4.314   9.781
12201WAT     H136845   7.005   4.360   9.787
12201WAT     H236846   6.898   4.290   9.685
12202WAT      O36847   2.848   9.632   6.344
12202WAT     H136848   2.780   9.634   6.271
12202WAT     H236849   2.866   9.725   6.376
12203WAT      O36850   0.440   3.494   1.611
12203WAT     H136851   0.429   3.472   1.514
12203WAT     H236852   0.389   3.577   1.632
12204WAT      O36853   4.399   7.233   6.056
12204WAT     H136854   4.323   7.256   6.117
12204WAT     H236855   4.420   7.135   6.065
12205WAT      O36856   0.221   6.096   1.945
12205WAT     H136857   0.190   6.104   2.040
12205WAT     H236858   0.230   5.999   1.920
12206WAT      O36859   4.183   8.504   8.988
12206WAT     H136860   4.160   8.444   8.911
12206WAT     H236861   4.280   8.491   9.012
12207WAT      O36862   3.887   7.745   1.470
12207WAT     H136863   3.961   7.678   1.468
12207WAT     H236864   3.867   7.770   1.565
12208WAT      O36865   8.760   0.211   5.502
12208WAT     H136866   8.773   0.307   5.526
12208WAT     H236867   8.701   0.167   5.570
12209WAT      O36868   6.912   4.273   3.446
12209WAT     H136869   6.907   4.228   3.535
12209WAT     H236870   6.946   4.208   3.378
12210WAT      O36871   6.508   8.259   4.561
12210WAT     H136872   6.480   8.203   4.639
12210WAT     H236873   6.533   8.350   4.592
12211WAT      O36874   8.392   8.463   2.362
12211WAT     H136875   8.300   8.474   2.400
12211WAT     H236876   8.386   8.428   2.269
12212WAT      O36877   7.195   5.977   5.014
12212WAT     H136878   7.265   6.021   4.957
12212WAT     H236879   7.106   6.018   4.995
12213WAT      O36880   2.861   9.756   0.965
12213WAT     H136881   2.853   9.810   0.881
12213WAT     H236882   2.920   9.677   0.948
12214WAT      O36883   6.543   8.279   5.132
12214WAT     H136884   6.467   8.326   5.177
12214WAT     H236885   6.514   8.188   5.105
12215WAT      O36886   8.891   8.864   9.141
12215WAT     H136887   8.819   8.920   9.180
12215WAT     H236888   8.905   8.888   9.045
12216WAT      O36889   8.890   6.637   5.985
12216WAT     H136890   8.986   6.645   6.014
12216WAT     H236891   8.864   6.719   5.934
12217WAT      O36892   3.340   6.622   9.891
12217WAT     H136893   3.341   6.686   9.967
12217WAT     H236894   3.386   6.662   9.812
12218WAT      O36895   3.302   5.824   4.736
12218WAT     H136896   3.213   5.815   4.692
12218WAT     H236897   3.300   5.898   4.803
12219WAT      O36898   5.838   7.482   2.873
12219WAT     H136899   5.931   7.447   2.881
12219WAT     H236900   5.836   7.579   2.896
12220WAT      O36901   8.079   0.177   2.403
12220WAT     H136902   8.070   0.227   2.317
12220WAT     H236903   8.000   0.116   2.414
12221WAT      O36904   7.473   0.063   7.045
12221WAT     H136905   7.540  -0.004   7.012
12221WAT     H236906   7.437   0.033   7.133
12222WAT      O36907   2.118   7.157   3.889
12222WAT     H136908   2.025   7.147   3.854
12222WAT     H236909   2.130   7.099   3.970
12223WAT      O36910   8.838   8.215   0.690
12223WAT     H136911   8.907   8.216   0.617
12223WAT     H236912   8.839   8.127   0.736
12224WAT      O36913   4.148   5.631   9.048
12224WAT     H136914   4.119   5.612   8.955
12224WAT     H236915   4.071   5.615   9.111
12225WAT      O36916   6.145   1.090   8.426
12225WAT     H136917   6.048   1.097   8.401
12225WAT     H236918   6.164   0.998   8.460
12226WAT      O36919   3.352   0.370   1.269
12226WAT     H136920   3.436   0.316   1.257
12226WAT     H236921   3.327   0.412   1.183
12227WAT      O36922   0.889   3.525   5.291
12227WAT     H136923   0.918   3.620   5.306
12227WAT     H236924   0.793   3.515   5.317
12228WAT      O36925   9.607   2.226   7.220
12228WAT     H136926   9.516   2.251   7.253
12228WAT     H236927   9.618   2.126   7.225
12229WAT      O36928   6.582   0.504   7.650
12229WAT     H136929   6.608   0.423   7.597
12229WAT     H236930   6.498   0.485   7.700
12230WAT      O36931   3.895   3.528   7.167
12230WAT     H136932   3.858   3.474   7.242
12230WAT     H236933   3.823   3.588   7.130
12231WAT      O36934   9.299   8.197   0.576
12231WAT     H136935   9.304   8.236   0.668
12231WAT     H236936   9.213   8.225   0.533
12232WAT      O36937   7.626   8.565   7.147
12232WAT     H136938   7.678   8.501   7.090
12232WAT     H236939   7.678   8.650   7.158
12233WAT      O36940   5.806   2.294   5.757
12233WAT     H136941   5.805   2.332   5.665
12233WAT     H236942   5.876   2.223   5.763
12234WAT      O36943   7.798   0.532   2.496
12234WAT     H136944   7.813   0.483   2.582
12234WAT     H236945   7.706   0.572   2.496
12235WAT      O36946   4.064   4.746   5.746
12235WAT     H136947   3.975   4.706   5.770
12235WAT     H236948   4.090   4.717   5.654
12236WAT      O36949   5.379   1.320   1.459
12236WAT     H136950   5.371   1.301   1.361
12236WAT     H236951   5.457   1.380   1.475
12237WAT      O36952   4.472   1.373   7.792
12237WAT     H136953   4.379   1.407   7.803
12237WAT     H236954   4.472   1.294   7.731
12238WAT      O36955   9.181   3.048   4.743
12238WAT     H136956   9.226   2.987   4.679
12238WAT     H236957   9.250   3.102   4.792
12239WAT      O36958   5.614   3.737   7.871
12239WAT     H136959   5.594   3.675   7.796
12239WAT     H236960   5.705   3.777   7.858
12240WAT      O36961   5.200   1.532   7.414
12240WAT     H136962   5.136   1.456   7.422
12240WAT     H236963   5.177   1.587   7.333
12241WAT      O36964   8.280   3.703   4.466
12241WAT     H136965   8.208   3.773   4.469
12241WAT     H236966   8.247   3.619   4.509
12242WAT      O36967   4.477   5.437   2.736
12242WAT     H136968   4.569   5.467   2.760
12242WAT     H236969   4.475   5.338   2.728
12243WAT      O36970   1.695   2.571   6.154
12243WAT     H136971   1.746   2.499   6.202
12243WAT     H236972   1.647   2.531   6.076
12244WAT      O36973   8.067   5.826   5.120
12244WAT     H136974   8.080   5.792   5.027
12244WAT     H236975   8.108   5.916   5.129
12245WAT      O36976   7.973   1.528   4.621
12245WAT     H136977   7.924   1.470   4.687
12245WAT     H236978   8.009   1.608   4.667
12246WAT      O36979   2.670   0.080   9.340
12246WAT     H136980   2.768   0.067   9.349
12246WAT     H236981   2.627  -0.007   9.313
12247WAT      O36982   4.653   0.427   7.152
12247WAT     H136983   4.644   0.329   7.140
12247WAT     H236984   4.575   0.474   7.110
12248WAT      O36985   0.280   6.920   3.491
12248WAT     H136986   0.217   6.956   3.422
12248WAT     H236987   0.250   6.830   3.521
12249WAT      O36988   5.769   2.784   4.858
12249WAT     H136989   5.762   2.850   4.933
12249WAT     H236990   5.679   2.745   4.839
12250WAT      O36991   1.829   1.188   7.550
12250WAT     H136992   1.771   1.199   7.631
12250WAT     H236993   1.822   1.270   7.492
12251WAT      O36994   7.362   8.220   8.262
12251WAT     H136995   7.331   8.163   8.338
12251WAT     H236996   7.462   8.217   8.257
12252WAT      O36997   2.935   6.176   7.714
12252WAT     H136998   2.928   6.223   7.802
12252WAT     H236999   2.943   6.244   7.641
12253WAT      O37000   2.051   6.745   8.234
12253WAT     H137001   2.025   6.650   8.219
12253WAT     H237002   1.973   6.805   8.215
12254WAT      O37003   4.888   2.491   9.850
12254WAT     H137004   4.956   2.443   9.906
12254WAT     H237005   4.800   2.488   9.896
12255WAT      O37006   4.188   4.831   1.785
12255WAT     H137007   4.164   4.888   1.864
12255WAT     H237008   4.138   4.745   1.790
12256WAT      O37009   7.256   8.770   3.602
12256WAT     H137010   7.202   8.686   3.590
12256WAT     H237011   7.209   8.846   3.556
12257WAT      O37012   1.371   1.167   0.526
12257WAT     H137013   1.413   1.199   0.441
12257WAT     H237014   1.348   1.070   0.518
12258WAT      O37015   5.745   9.604   4.802
12258WAT     H137016   5.684   9.559   4.868
12258WAT     H237017   5.836   9.565   4.810
12259WAT      O37018   7.536   6.208   0.253
12259WAT     H137019   7.515   6.302   0.277
12259WAT     H237020   7.544   6.153   0.336
12260WAT      O37021   1.063   7.879   5.946
12260WAT     H137022   1.113   7.832   5.873
12260WAT     H237023   0.965   7.872   5.929
12261WAT      O37024   0.678   8.467   3.012
12261WAT     H137025   0.675   8.552   2.958
12261WAT     H237026   0.618   8.476   3.091
12262WAT      O37027   6.834   8.133   4.775
12262WAT     H137028   6.922   8.175   4.753
12262WAT     H237029   6.766   8.204   4.790
12263WAT      O37030   4.006   0.264   3.206
12263WAT     H137031   3.947   0.287   3.283
12263WAT     H237032   3.954   0.269   3.121
12264WAT      O37033   4.835   9.312   7.959
12264WAT     H137034   4.889   9.229   7.972
12264WAT     H237035   4.775   9.325   8.039
12265WAT      O37036   7.178   5.452   2.192
12265WAT     H137037   7.084   5.420   2.177
12265WAT     H237038   7.242   5.377   2.177
12266WAT      O37039   7.330   0.291   8.344
12266WAT     H137040   7.256   0.249   8.291
12266WAT     H237041   7.418   0.258   8.309
12267WAT      O37042   2.880   2.146   7.899
12267WAT     H137043   2.927   2.104   7.977
12267WAT     H237044   2.930   2.124   7.814
12268WAT      O37045   5.424   6.610   4.097
12268WAT     H137046   5.388   6.534   4.152
12268WAT     H237047   5.498   6.575   4.039
12269WAT      O37048   0.481   2.580   4.794
12269WAT     H137049   0.570   2.591   4.838
12269WAT     H237050   0.425   2.517   4.847
12270WAT      O37051   6.522   8.850   6.613
12270WAT     H137052   6.498   8.904   6.694
12270WAT     H237053   6.621   8.848   6.602
12271WAT      O37054   1.402   7.891   5.245
12271WAT     H137055   1.412   7.848   5.155
12271WAT     H237056   1.318   7.947   5.246
12272WAT      O37057   4.357   2.912   2.160
12272WAT     H137058   4.327   2.842   2.096
12272WAT     H237059   4.423   2.972   2.115
12273WAT      O37060   3.977   4.972   4.841
12273WAT     H137061   4.057   4.980   4.782
12273WAT     H237062   3.908   5.038   4.813
12274WAT      O37063   3.781   3.957   5.818
12274WAT     H137064   3.809   4.008   5.900
12274WAT     H237065   3.819   4.000   5.737
12275WAT      O37066   8.804   2.330   6.145
12275WAT     H137067   8.720   2.374   6.178
12275WAT     H237068   8.823   2.249   6.199
12276WAT      O37069   3.515   2.547   8.867
12276WAT     H137070   3.509   2.520   8.771
12276WAT     H237071   3.538   2.467   8.923
12277WAT      O37072   7.397   0.749   2.902
12277WAT     H137073   7.465   0.822   2.915
12277WAT     H237074   7.307   0.790   2.887
12278WAT      O37075   3.770   9.599   3.495
12278WAT     H137076   3.827   9.534   3.445
12278WAT     H237077   3.677   9.598   3.458
12279WAT      O37078   9.123   0.542   3.453
12279WAT     H137079   9.122   0.529   3.354
12279WAT     H237080   9.049   0.605   3.479
12280WAT      O37081   2.237   4.824   2.131
12280WAT     H137082   2.166   4.753   2.138
12280WAT     H237083   2.197   4.913   2.155
12281WAT      O37084   5.745   5.902   9.513
12281WAT     H137085   5.660   5.872   9.557
12281WAT     H237086   5.818   5.837   9.533
12282WAT      O37087   2.010   6.736   0.323
12282WAT     H137088   2.002   6.799   0.401
12282WAT     H237089   2.096   6.686   0.330
12283WAT      O37090   7.271   2.156   9.549
12283WAT     H137091   7.226   2.242   9.573
12283WAT     H237092   7.350   2.142   9.609
12284WAT      O37093   8.804   6.332   2.681
12284WAT     H137094   8.735   6.265   2.706
12284WAT     H237095   8.878   6.331   2.749
12285WAT      O37096   8.026   5.957   3.569
12285WAT     H137097   8.059   6.024   3.636
12285WAT     H237098   8.047   5.989   3.477
12286WAT      O37099   3.534   6.079   5.967
12286WAT     H137100   3.515   6.105   5.872
12286WAT     H237101   3.550   5.980   5.972
12287WAT      O37102   3.324   8.823   8.185
12287WAT     H137103   3.345   8.908   8.234
12287WAT     H237104   3.346   8.835   8.088
12288WAT      O37105   4.566   1.624   0.652
12288WAT     H137106   4.654   1.671   0.652
12288WAT     H237107   4.539   1.603   0.559
12289WAT      O37108   9.484   9.521   9.476
12289WAT     H137109   9.398   9.469   9.479
12289WAT     H237110   9.552   9.471   9.423
12290WAT      O37111   9.425   8.870   3.745
12290WAT     H137112   9.467   8.779   3.752
12290WAT     H237113   9.442   8.907   3.654
12291WAT      O37114   3.430   5.824   0.245
12291WAT     H137115   3.483   5.890   0.192
12291WAT     H237116   3.427   5.853   0.341
12292WAT      O37117   8.429   2.327   5.254
12292WAT     H137118   8.436   2.243   5.200
12292WAT     H237119   8.520   2.356   5.283
12293WAT      O37120   9.637   3.775   7.180
12293WAT     H137121   9.613   3.689   7.134
12293WAT     H237122   9.716   3.816   7.135
12294WAT      O37123   8.808   8.859   1.671
12294WAT     H137124   8.897   8.843   1.628
12294WAT     H237125   8.777   8.951   1.650
12295WAT      O37126   0.663   7.682   7.614
12295WAT     H137127   0.607   7.608   7.576
12295WAT     H237128   0.756   7.648   7.627
12296WAT      O37129   1.373   7.843   1.900
12296WAT     H137130   1.324   7.864   1.815
12296WAT     H237131   1.429   7.762   1.886
12297WAT      O37132   8.477   6.061   4.174
12297WAT     H137133   8.387   6.081   4.134
12297WAT     H237134   8.465   6.016   4.262
12298WAT      O37135   2.357   4.587   9.309
12298WAT     H137136   2.422   4.653   9.272
12298WAT     H237137   2.324   4.618   9.398
12299WAT      O37138   9.628   4.431   6.199
12299WAT     H137139   9.618   4.415   6.101
12299WAT     H237140   9.631   4.343   6.246
12300WAT      O37141   3.076   2.716   9.195
12300WAT     H137142   3.113   2.624   9.183
12300WAT     H237143   3.151   2.781   9.202
12301WAT      O37144   8.234   1.098   1.050
12301WAT     H137145   8.212   1.044   0.968
12301WAT     H237146   8.164   1.167   1.063
12302WAT      O37147   9.456   7.961   0.906
12302WAT     H137148   9.476   8.012   0.822
12302WAT     H237149   9.390   7.888   0.886
12303WAT      O37150   1.269   4.851   7.598
12303WAT     H137151   1.303   4.923   7.658
12303WAT     H237152   1.253   4.768   7.651
12304WAT      O37153   5.306   1.758   1.388
12304WAT     H137154   5.310   1.730   1.484
12304WAT     H237155   5.211   1.753   1.356
12305WAT      O37156   5.893   5.831   7.504
12305WAT     H137157   5.964   5.901   7.498
12305WAT     H237158   5.898   5.772   7.424
12306WAT      O37159   0.463   0.108   9.551
12306WAT     H137160   0.559   0.083   9.564
12306WAT     H237161   0.427   0.145   9.636
12307WAT      O37162   8.487   6.576   2.373
12307WAT     H137163   8.520   6.669   2.390
12307WAT     H237164   8.549   6.510   2.415
12308WAT      O37165   4.998   1.914   1.610
12308WAT     H137166   5.048   1.895   1.694
12308WAT     H237167   4.950   1.831   1.580
12309WAT      O37168   8.691   8.542   8.275
12309WAT     H137169   8.602   8.506   8.246
12309WAT     H237170   8.676   8.611   8.346
12310WAT      O37171   0.881   0.134   0.573
12310WAT     H137172   0.976   0.138   0.542
12310WAT     H237173   0.871   0.060   0.640
12311WAT      O37174   8.678   2.393   4.008
12311WAT     H137175   8.694   2.329   4.083
12311WAT     H237176   8.748   2.380   3.938
12312WAT      O37177   1.215   0.245   9.430
12312WAT     H137178   1.212   0.201   9.340
12312WAT     H237179   1.277   0.324   9.426
12313WAT      O37180   9.433   5.715   9.223
12313WAT     H137181   9.346   5.677   9.195
12313WAT     H237182   9.422   5.764   9.309
12314WAT      O37183   0.328   1.736   9.473
12314WAT     H137184   0.289   1.689   9.394
12314WAT     H237185   0.410   1.686   9.504
12315WAT      O37186   3.716   0.699   3.463
12315WAT     H137187   3.688   0.724   3.370
12315WAT     H237188   3.785   0.764   3.495
12316WAT      O37189   3.153   4.450   1.498
12316WAT     H137190   3.172   4.514   1.424
12316WAT     H237191   3.217   4.373   1.493
12317WAT      O37192   8.000   8.077   4.299
12317WAT     H137193   8.002   7.978   4.285
12317WAT     H237194   7.935   8.099   4.372
12318WAT      O37195   2.283   7.651   3.092
12318WAT     H137196   2.254   7.744   3.113
12318WAT     H237197   2.383   7.650   3.078
12319WAT      O37198   8.140   5.788   6.647
12319WAT     H137199   8.232   5.819   6.675
12319WAT     H237200   8.072   5.855   6.679
12320WAT      O37201   7.054   1.978   7.617
12320WAT     H137202   7.006   2.038   7.553
12320WAT     H237203   7.062   2.024   7.705
12321WAT      O37204   7.239   8.735   5.823
12321WAT     H137205   7.222   8.739   5.725
12321WAT     H237206   7.244   8.828   5.860
12322WAT      O37207   4.177   7.514   9.741
12322WAT     H137208   4.148   7.547   9.651
12322WAT     H237209   4.270   7.477   9.734
12323WAT      O37210   0.289   6.584   9.271
12323WAT     H137211   0.214   6.643   9.300
12323WAT     H237212   0.376   6.633   9.281
12324WAT      O37213   7.479   1.297   1.925
12324WAT     H137214   7.450   1.205   1.900
12324WAT     H237215   7.558   1.324   1.870
12325WAT      O37216   9.752   8.162   6.311
12325WAT     H137217   9.762   8.248   6.261
12325WAT     H237218   9.799   8.169   6.399
12326WAT      O37219   7.959   3.746   5.568
12326WAT     H137220   7.910   3.667   5.531
12326WAT     H237221   8.043   3.761   5.516
12327WAT      O37222   6.051   7.523   5.486
12327WAT     H137223   6.140   7.564   5.503
12327WAT     H237224   5.988   7.593   5.453
12328WAT      O37225   4.903   0.961   3.476
12328WAT     H137226   4.861   1.002   3.558
12328WAT     H237227   4.950   0.877   3.501
12329WAT      O37228   0.269   1.584   0.222
12329WAT     H137229   0.331   1.661   0.235
12329WAT     H237230   0.313   1.499   0.249
12330WAT      O37231   7.998   1.209   8.633
12330WAT     H137232   8.092   1.182   8.611
12330WAT     H237233   7.942   1.127   8.648
12331WAT      O37234   8.844   5.079   4.650
12331WAT     H137235   8.768   5.085   4.716
12331WAT     H237236   8.822   5.134   4.570
12332WAT      O37237   4.450   7.844   5.916
12332WAT     H137238   4.372   7.781   5.912
12332WAT     H237239   4.455   7.896   5.831
12333WAT      O37240   5.148   6.694   2.577
12333WAT     H137241   5.156   6.784   2.535
12333WAT     H237242   5.078   6.640   2.530
12334WAT      O37243   3.031   6.049   5.176
12334WAT     H137244   3.022   5.963   5.125
12334WAT     H237245   3.128   6.064   5.197
12335WAT      O37246   5.549   3.990   6.273
12335WAT     H137247   5.538   3.913   6.210
12335WAT     H237248   5.614   4.055   6.233
12336WAT      O37249   2.839   8.224   1.895
12336WAT     H137250   2.839   8.280   1.978
12336WAT     H237251   2.754   8.239   1.845
12337WAT      O37252   4.659   2.402   8.960
12337WAT     H137253   4.630   2.494   8.985
12337WAT     H237254   4.736   2.407   8.896
12338WAT      O37255   6.336   6.128   7.243
12338WAT     H137256   6.400   6.089   7.178
12338WAT     H237257   6.345   6.082   7.331
12339WAT      O37258   8.299   7.434   2.905
12339WAT     H137259   8.218   7.438   2.846
12339WAT     H237260   8.271   7.406   2.997
12340WAT      O37261   8.977   2.376   9.235
12340WAT     H137262   9.015   2.465   9.210
12340WAT     H237263   8.885   2.388   9.273
12341WAT      O37264   3.917   0.675   1.562
12341WAT     H137265   3.975   0.689   1.482
12341WAT     H237266   3.828   0.642   1.533
12342WAT      O37267   1.371   1.496   0.541
12342WAT     H137268   1.427   1.423   0.502
12342WAT     H237269   1.404   1.518   0.633
12343WAT      O37270   1.020   3.020   5.017
12343WAT     H137271   0.961   3.094   4.985
12343WAT     H237272   1.017   3.016   5.117
12344WAT      O37273   9.039   2.939   9.365
12344WAT     H137274   9.088   2.974   9.446
12344WAT     H237275   9.060   2.842   9.353
12345WAT      O37276   0.434   1.313   6.827
12345WAT     H137277   0.433   1.412   6.840
12345WAT     H237278   0.411   1.292   6.732
12346WAT      O37279   8.902   0.764   5.373
12346WAT     H137280   8.994   0.770   5.413
12346WAT     H237281   8.848   0.844   5.400
12347WAT      O37282   8.736   4.481   6.473
12347WAT     H137283   8.703   4.418   6.544
12347WAT     H237284   8.661   4.540   6.444
12348WAT      O37285   2.207   3.755   7.879
12348WAT     H137286   2.170   3.667   7.848
12348WAT     H237287   2.295   3.741   7.923
12349WAT      O37288   3.273   3.157   6.471
12349WAT     H137289   3.312   3.164   6.379
12349WAT     H237290   3.345   3.169   6.539
12350WAT      O37291   5.090   8.732   7.574
12350WAT     H137292   5.185   8.711   7.555
12350WAT     H237293   5.057   8.670   7.646
12351WAT      O37294   5.841   9.734   9.464
12351WAT     H137295   5.819   9.660   9.400
12351WAT     H237296   5.814   9.822   9.424
12352WAT      O37297   9.488   7.813   9.082
12352WAT     H137298   9.479   7.816   8.982
12352WAT     H237299   9.397   7.817   9.124
12353WAT      O37300   6.459   9.154   2.063
12353WAT     H137301   6.467   9.066   2.018
12353WAT     H237302   6.530   9.216   2.030
12354WAT      O37303   5.496   1.930   1.289
12354WAT     H137304   5.493   2.029   1.276
12354WAT     H237305   5.411   1.899   1.333
12355WAT      O37306   3.946   0.737   6.950
12355WAT     H137307   4.027   0.771   6.999
12355WAT     H237308   3.896   0.815   6.912
12356WAT      O37309   7.273   5.784   8.582
12356WAT     H137310   7.196   5.838   8.613
12356WAT     H237311   7.274   5.696   8.629
12357WAT      O37312   8.601   8.335   4.966
12357WAT     H137313   8.666   8.410   4.962
12357WAT     H237314   8.635   8.258   4.911
12358WAT      O37315   2.568   4.690   8.014
12358WAT     H137316   2.561   4.629   8.093
12358WAT     H237317   2.524   4.777   8.035
12359WAT      O37318   4.818   2.351   4.317
12359WAT     H137319   4.803   2.253   4.304
12359WAT     H237320   4.914   2.368   4.336
12360WAT      O37321   6.341   2.603   3.179
12360WAT     H137322   6.249   2.606   3.220
12360WAT     H237323   6.339   2.548   3.096
12361WAT      O37324   4.339   2.574   7.950
12361WAT     H137325   4.243   2.584   7.974
12361WAT     H237326   4.352   2.596   7.853
12362WAT      O37327   6.970   5.322   8.515
12362WAT     H137328   7.001   5.345   8.607
12362WAT     H237329   7.031   5.254   8.475
12363WAT      O37330   9.122   9.224   6.549
12363WAT     H137331   9.057   9.234   6.625
12363WAT     H237332   9.211   9.196   6.585
12364WAT      O37333   3.192   3.488   8.624
12364WAT     H137334   3.284   3.464   8.657
12364WAT     H237335   3.181   3.587   8.626
12365WAT      O37336   3.503   6.431   5.659
12365WAT     H137337   3.443   6.404   5.584
12365WAT     H237338   3.454   6.493   5.720
12366WAT      O37339   8.495   4.008   7.205
12366WAT     H137340   8.591   4.025   7.226
12366WAT     H237341   8.486   3.979   7.110
12367WAT      O37342   3.918   0.380   9.382
12367WAT     H137343   3.913   0.280   9.375
12367WAT     H237344   4.000   0.412   9.334
12368WAT      O37345   4.475   8.882   3.940
12368WAT     H137346   4.558   8.855   3.989
12368WAT     H237347   4.401   8.895   4.006
12369WAT      O37348   2.029   5.535   0.481
12369WAT     H137349   2.057   5.455   0.535
12369WAT     H237350   1.978   5.599   0.539
12370WAT      O37351   6.320   2.621   8.396
12370WAT     H137352   6.389   2.570   8.343
12370WAT     H237353   6.290   2.700   8.344
12371WAT      O37354   2.450   2.937   3.222
12371WAT     H137355   2.526   2.902   3.277
12371WAT     H237356   2.425   2.869   3.153
12372WAT      O37357   4.047   8.258   5.266
12372WAT     H137358   4.143   8.285   5.279
12372WAT     H237359   4.026   8.182   5.328
12373WAT      O37360   3.648   1.396   3.143
12373WAT     H137361   3.694   1.389   3.055
12373WAT     H237362   3.698   1.342   3.211
12374WAT      O37363   6.648   8.148   2.138
12374WAT     H137364   6.647   8.118   2.043
12374WAT     H237365   6.688   8.077   2.195
12375WAT      O37366   3.642   4.427   7.668
12375WAT     H137367   3.575   4.496   7.641
12375WAT     H237368   3.728   4.473   7.692
12376WAT      O37369   0.906   4.793   8.695
12376WAT     H137370   0.842   4.849   8.748
12376WAT     H237371   0.961   4.852   8.636
12377WAT      O37372   5.775   2.547   0.928
12377WAT     H137373   5.819   2.623   0.977
12377WAT     H237374   5.809   2.460   0.964
12378WAT      O37375   0.906   6.770   7.401
12378WAT     H137376   0.922   6.799   7.307
12378WAT     H237377   0.939   6.841   7.464
12379WAT      O37378   1.706   7.892   5.019
12379WAT     H137379   1.804   7.869   5.020
12379WAT     H237380   1.662   7.853   5.100
12380WAT      O37381   9.107   4.177   7.709
12380WAT     H137382   9.055   4.247   7.660
12380WAT     H237383   9.043   4.112   7.751
12381WAT      O37384   8.620   9.787   0.731
12381WAT     H137385   8.521   9.771   0.725
12381WAT     H237386   8.639   9.884   0.714
12382WAT      O37387   8.016   9.403   8.529
12382WAT     H137388   7.942   9.356   8.480
12382WAT     H237389   8.017   9.500   8.504
12383WAT      O37390   2.694   8.569   4.623
12383WAT     H137391   2.601   8.532   4.631
12383WAT     H237392   2.723   8.568   4.528
12384WAT      O37393   0.021   9.619   7.168
12384WAT     H137394   0.008   9.640   7.071
12384WAT     H237395  -0.010   9.696   7.223
12385WAT      O37396   3.778   8.743   2.857
12385WAT     H137397   3.870   8.782   2.865
12385WAT     H237398   3.773   8.658   2.909
12386WAT      O37399   9.489   9.709   1.334
12386WAT     H137400   9.455   9.617   1.315
12386WAT     H237401   9.431   9.776   1.287
12387WAT      O37402   4.226   9.332   4.112
12387WAT     H137403   4.130   9.354   4.129
12387WAT     H237404   4.284   9.401   4.155
12388WAT      O37405   8.191   9.453   0.226
12388WAT     H137406   8.225   9.378   0.283
12388WAT     H237407   8.179   9.535   0.283
12389WAT      O37408   0.085   9.098   6.706
12389WAT     H137409   0.141   9.050   6.774
12389WAT     H237410   0.122   9.190   6.692
12390WAT      O37411   3.645   3.352   6.994
12390WAT     H137412   3.649   3.264   7.042
12390WAT     H237413   3.704   3.348   6.914
12391WAT      O37414   9.530   2.908   8.672
12391WAT     H137415   9.442   2.955   8.662
12391WAT     H237416   9.533   2.829   8.610
12392WAT      O37417   1.217   1.755   2.249
12392WAT     H137418   1.219   1.787   2.344
12392WAT     H237419   1.302   1.707   2.228
12393WAT      O37420   3.072   3.201   5.363
12393WAT     H137421   3.042   3.191   5.458
12393WAT     H237422   3.090   3.298   5.344
12394WAT      O37423   6.142   4.588   4.684
12394WAT     H137424   6.235   4.617   4.663
12394WAT     H237425   6.143   4.495   4.719
12395WAT      O37426   3.797   2.534   7.207
12395WAT     H137427   3.729   2.598   7.172
12395WAT     H237428   3.822   2.468   7.135
12396WAT      O37429   0.067   2.309   1.435
12396WAT     H137430   0.142   2.269   1.382
12396WAT     H237431  -0.020   2.283   1.394
12397WAT      O37432   7.451   2.579   4.018
12397WAT     H137433   7.521   2.608   3.952
12397WAT     H237434   7.488   2.590   4.111
12398WAT      O37435   3.809   9.059   2.000
12398WAT     H137436   3.785   8.998   1.924
12398WAT     H237437   3.787   9.014   2.086
12399WAT      O37438   5.336   8.805   5.861
12399WAT     H137439   5.424   8.758   5.850
12399WAT     H237440   5.349   8.903   5.849
12400WAT      O37441   7.458   5.694   8.120
12400WAT     H137442   7.366   5.675   8.155
12400WAT     H237443   7.452   5.752   8.039
12401WAT      O37444   3.231   9.266   4.351
12401WAT     H137445   3.146   9.290   4.305
12401WAT     H237446   3.252   9.334   4.421
12402WAT      O37447   0.126   3.267   6.923
12402WAT     H137448   0.198   3.256   6.992
12402WAT     H237449   0.163   3.318   6.845
12403WAT      O37450   6.926   0.495   1.011
12403WAT     H137451   6.843   0.441   0.993
12403WAT     H237452   6.913   0.548   1.095
12404WAT      O37453   5.943   6.601   9.068
12404WAT     H137454   6.011   6.646   9.126
12404WAT     H237455   5.864   6.574   9.124
12405WAT      O37456   3.276   2.094   1.038
12405WAT     H137457   3.364   2.099   0.990
12405WAT     H237458   3.223   2.177   1.019
12406WAT      O37459   9.491   6.335   0.787
12406WAT     H137460   9.567   6.272   0.803
12406WAT     H237461   9.413   6.284   0.751
12407WAT      O37462   2.408   5.353   0.449
12407WAT     H137463   2.382   5.341   0.544
12407WAT     H237464   2.337   5.403   0.400
12408WAT      O37465   1.708   5.592   4.551
12408WAT     H137466   1.709   5.595   4.651
12408WAT     H237467   1.737   5.501   4.520
12409WAT      O37468   3.548   7.038   7.953
12409WAT     H137469   3.510   7.045   7.861
12409WAT     H237470   3.478   7.001   8.015
12410WAT      O37471   7.549   0.989   4.321
12410WAT     H137472   7.453   0.974   4.345
12410WAT     H237473   7.596   0.901   4.317
12411WAT      O37474   0.964   8.081   4.451
12411WAT     H137475   0.961   8.075   4.351
12411WAT     H237476   0.874   8.059   4.489
12412WAT      O37477   9.024   0.532   8.994
12412WAT     H137478   9.003   0.458   8.930
12412WAT     H237479   8.941   0.582   9.015
12413WAT      O37480   3.370   8.873   1.621
12413WAT     H137481   3.373   8.777   1.593
12413WAT     H237482   3.334   8.879   1.714
12414WAT      O37483   1.812   6.578   9.579
12414WAT     H137484   1.722   6.537   9.561
12414WAT     H237485   1.844   6.624   9.496
12415WAT      O37486   5.164   6.514   0.374
12415WAT     H137487   5.229   6.539   0.445
12415WAT     H237488   5.074   6.551   0.396
12416WAT      O37489   4.428   7.977   6.958
12416WAT     H137490   4.419   7.890   7.007
12416WAT     H237491   4.415   8.053   7.022
12417WAT      O37492   5.938   9.047   4.746
12417WAT     H137493   5.894   9.109   4.810
12417WAT     H237494   6.034   9.033   4.773
12418WAT      O37495   3.878   1.863   0.134
12418WAT     H137496   3.851   1.774   0.098
12418WAT     H237497   3.832   1.879   0.221
12419WAT      O37498   1.195   3.664   0.792
12419WAT     H137499   1.270   3.633   0.735
12419WAT     H237500   1.112   3.671   0.737
12420WAT      O37501   5.206   0.306   6.071
12420WAT     H137502   5.165   0.396   6.055
12420WAT     H237503   5.267   0.283   5.996
12421WAT      O37504   5.009   1.767   7.919
12421WAT     H137505   5.038   1.775   7.824
12421WAT     H237506   4.939   1.835   7.939
12422WAT      O37507   4.638   1.030   1.584
12422WAT     H137508   4.542   1.004   1.575
12422WAT     H237509   4.655   1.115   1.534
12423WAT      O37510   1.249   5.221   6.424
12423WAT     H137511   1.249   5.242   6.326
12423WAT     H237512   1.154   5.214   6.456
12424WAT      O37513   7.578   1.197   6.313
12424WAT     H137514   7.567   1.121   6.248
12424WAT     H237515   7.521   1.181   6.393
12425WAT      O37516   3.264   7.662   5.870
12425WAT     H137517   3.346   7.608   5.852
12425WAT     H237518   3.191   7.603   5.903
12426WAT      O37519   3.794   2.035   8.919
12426WAT     H137520   3.831   2.081   9.000
12426WAT     H237521   3.807   1.936   8.929
12427WAT      O37522   3.999   6.932   4.097
12427WAT     H137523   3.994   6.894   4.005
12427WAT     H237524   3.989   6.859   4.164
12428WAT      O37525   2.630   2.662   3.864
12428WAT     H137526   2.534   2.638   3.875
12428WAT     H237527   2.640   2.725   3.786
12429WAT      O37528   8.315   3.898   0.233
12429WAT     H137529   8.271   3.956   0.301
12429WAT     H237530   8.345   3.813   0.276
12430WAT      O37531   8.373   8.621   6.239
12430WAT     H137532   8.396   8.556   6.311
12430WAT     H237533   8.333   8.703   6.280
12431WAT      O37534   7.252   3.433   6.555
12431WAT     H137535   7.300   3.346   6.566
12431WAT     H237536   7.168   3.432   6.609
12432WAT      O37537   4.850   1.665   1.499
12432WAT     H137538   4.781   1.697   1.434
12432WAT     H237539   4.899   1.588   1.460
12433WAT      O37540   0.037   5.099   2.766
12433WAT     H137541   0.003   5.156   2.691
12433WAT     H237542  -0.041   5.058   2.814
12434WAT      O37543   6.331   1.094   2.697
12434WAT     H137544   6.274   1.154   2.641
12434WAT     H237545   6.422   1.086   2.657
12435WAT      O37546   3.127   6.406   4.368
12435WAT     H137547   3.054   6.364   4.423
12435WAT     H237548   3.097   6.414   4.273
12436WAT      O37549   6.425   8.718   8.729
12436WAT     H137550   6.433   8.718   8.829
12436WAT     H237551   6.515   8.731   8.688
12437WAT      O37552   6.860   3.167   2.087
12437WAT     H137553   6.764   3.191   2.104
12437WAT     H237554   6.891   3.104   2.158
12438WAT      O37555   1.317   5.112   8.094
12438WAT     H137556   1.351   5.020   8.111
12438WAT     H237557   1.377   5.159   8.029
12439WAT      O37558   6.382   3.090   8.463
12439WAT     H137559   6.414   3.139   8.544
12439WAT     H237560   6.461   3.066   8.406
12440WAT      O37561   6.033   7.896   3.826
12440WAT     H137562   5.989   7.980   3.794
12440WAT     H237563   6.122   7.887   3.782
12441WAT      O37564   0.913   4.868   9.427
12441WAT     H137565   0.877   4.781   9.393
12441WAT     H237566   0.913   4.935   9.353
12442WAT      O37567   8.444   0.922   7.125
12442WAT     H137568   8.433   0.875   7.038
12442WAT     H237569   8.357   0.962   7.153
12443WAT      O37570   2.074   0.040   1.159
12443WAT     H137571   2.031  -0.041   1.118
12443WAT     H237572   2.011   0.117   1.152
12444WAT      O37573   9.500   4.364   4.629
12444WAT     H137574   9.595   4.373   4.659
12444WAT     H237575   9.439   4.378   4.707
12445WAT      O37576   1.716   2.289   2.646
12445WAT     H137577   1.718   2.381   2.685
12445WAT     H237578   1.621   2.259   2.636
12446WAT      O37579   7.011   7.360   5.430
12446WAT     H137580   6.934   7.297   5.424
12446WAT     H237581   7.054   7.353   5.521
12447WAT      O37582   4.660   9.232   9.789
12447WAT     H137583   4.736   9.168   9.802
12447WAT     H237584   4.682   9.296   9.716
12448WAT      O37585   2.656   0.167   4.352
12448WAT     H137586   2.587   0.177   4.280
12448WAT     H237587   2.740   0.212   4.322
12449WAT      O37588   2.779   5.622   6.969
12449WAT     H137589   2.781   5.663   6.877
12449WAT     H237590   2.685   5.594   6.990
12450WAT      O37591   4.962   6.033   5.940
12450WAT     H137592   4.960   6.126   5.974
12450WAT     H237593   4.921   6.030   5.849
12451WAT      O37594   9.247   7.945   1.534
12451WAT     H137595   9.336   7.942   1.581
12451WAT     H237596   9.204   7.855   1.538
12452WAT      O37597   8.130   9.197   2.310
12452WAT     H137598   8.165   9.118   2.260
12452WAT     H237599   8.042   9.224   2.272
12453WAT      O37600   4.320   9.391   2.088
12453WAT     H137601   4.397   9.354   2.036
12453WAT     H237602   4.266   9.317   2.126
12454WAT      O37603   9.512   5.265   0.232
12454WAT     H137604   9.449   5.267   0.310
12454WAT     H237605   9.472   5.213   0.157
12455WAT      O37606   3.532   4.177   0.475
12455WAT     H137607   3.578   4.111   0.416
12455WAT     H237608   3.528   4.142   0.568
12456WAT      O37609   3.719   7.242   2.916
12456WAT     H137610   3.655   7.310   2.951
12456WAT     H237611   3.786   7.286   2.857
12457WAT      O37612   3.569   0.287   8.592
12457WAT     H137613   3.555   0.200   8.639
12457WAT     H237614   3.616   0.271   8.505
12458WAT      O37615   4.683   1.909   3.488
12458WAT     H137616   4.719   2.001   3.502
12458WAT     H237617   4.741   1.843   3.536
12459WAT      O37618   3.002   2.609   2.883
12459WAT     H137619   3.066   2.547   2.838
12459WAT     H237620   2.984   2.688   2.824
12460WAT      O37621   2.203   4.448   5.326
12460WAT     H137622   2.237   4.490   5.241
12460WAT     H237623   2.275   4.452   5.395
12461WAT      O37624   4.538   2.806   8.670
12461WAT     H137625   4.588   2.792   8.585
12461WAT     H237626   4.580   2.882   8.721
12462WAT      O37627   1.432   2.666   7.622
12462WAT     H137628   1.341   2.629   7.640
12462WAT     H237629   1.457   2.729   7.696
12463WAT      O37630   2.023   3.134   2.007
12463WAT     H137631   2.040   3.213   2.065
12463WAT     H237632   2.101   3.071   2.011
12464WAT      O37633   2.059   5.593   7.146
12464WAT     H137634   2.012   5.658   7.087
12464WAT     H237635   1.993   5.526   7.181
12465WAT      O37636   7.773   5.238   3.158
12465WAT     H137637   7.682   5.280   3.150
12465WAT     H237638   7.772   5.149   3.113
12466WAT      O37639   5.865   1.785   7.666
12466WAT     H137640   5.923   1.781   7.747
12466WAT     H237641   5.798   1.711   7.668
12467WAT      O37642   2.610   6.106   0.686
12467WAT     H137643   2.642   6.019   0.648
12467WAT     H237644   2.685   6.172   0.684
12468WAT      O37645   1.830   1.616   4.952
12468WAT     H137646   1.757   1.621   4.883
12468WAT     H237647   1.912   1.660   4.916
12469WAT      O37648   4.871   5.001   9.178
12469WAT     H137649   4.852   5.089   9.133
12469WAT     H237650   4.794   4.975   9.235
12470WAT      O37651   3.161   7.201   7.258
12470WAT     H137652   3.255   7.234   7.250
12470WAT     H237653   3.116   7.206   7.169
12471WAT      O37654   0.463   8.699   0.539
12471WAT     H137655   0.420   8.789   0.548
12471WAT     H237656   0.410   8.643   0.475
12472WAT      O37657   4.108   4.037   5.930
12472WAT     H137658   4.077   4.006   5.841
12472WAT     H237659   4.029   4.055   5.989
12473WAT      O37660   5.836   3.923   3.866
12473WAT     H137661   5.843   3.824   3.878
12473WAT     H237662   5.905   3.954   3.800
12474WAT      O37663   7.200   5.332   1.879
12474WAT     H137664   7.221   5.371   1.790
12474WAT     H237665   7.260   5.373   1.948
12475WAT      O37666   4.168   7.179   8.333
12475WAT     H137667   4.178   7.175   8.432
12475WAT     H237668   4.074   7.205   8.310
12476WAT      O37669   7.646   0.701   7.534
12476WAT     H137670   7.670   0.610   7.500
12476WAT     H237671   7.548   0.705   7.552
12477WAT      O37672   5.868   1.523   8.136
12477WAT     H137673   5.878   1.559   8.229
12477WAT     H237674   5.836   1.429   8.139
12478WAT      O37675   4.110   9.547   4.610
12478WAT     H137676   4.125   9.504   4.700
12478WAT     H237677   4.119   9.646   4.619
12479WAT      O37678   8.196   4.953   2.354
12479WAT     H137679   8.185   4.887   2.280
12479WAT     H237680   8.270   5.016   2.331
12480WAT      O37681   7.155   8.980   1.738
12480WAT     H137682   7.175   8.908   1.672
12480WAT     H237683   7.188   8.953   1.829
12481WAT      O37684   2.688   8.455   2.685
12481WAT     H137685   2.690   8.532   2.749
12481WAT     H237686   2.750   8.473   2.609
12482WAT      O37687   9.207   0.323   9.352
12482WAT     H137688   9.203   0.401   9.291
12482WAT     H237689   9.202   0.354   9.447
12483WAT      O37690   0.402   5.590   0.603
12483WAT     H137691   0.459   5.672   0.595
12483WAT     H237692   0.439   5.518   0.544
12484WAT      O37693   8.279   4.432   5.051
12484WAT     H137694   8.357   4.488   5.077
12484WAT     H237695   8.196   4.470   5.091
12485WAT      O37696   5.609   3.782   6.613
12485WAT     H137697   5.544   3.720   6.568
12485WAT     H237698   5.590   3.876   6.584
12486WAT      O37699   8.266   5.149   4.929
12486WAT     H137700   8.222   5.066   4.894
12486WAT     H237701   8.338   5.177   4.866
12487WAT      O37702   3.914   8.213   0.927
12487WAT     H137703   4.012   8.219   0.904
12487WAT     H237704   3.862   8.187   0.846
12488WAT      O37705   9.350   6.992   6.404
12488WAT     H137706   9.283   7.066   6.404
12488WAT     H237707   9.302   6.905   6.417
12489WAT      O37708   0.237   1.140   9.785
12489WAT     H137709   0.253   1.041   9.776
12489WAT     H237710   0.243   1.183   9.695
12490WAT      O37711   8.973   7.441   3.603
12490WAT     H137712   9.011   7.476   3.688
12490WAT     H237713   8.968   7.341   3.607
12491WAT      O37714   8.481   7.233   2.103
12491WAT     H137715   8.493   7.142   2.143
12491WAT     H237716   8.468   7.300   2.176
12492WAT      O37717   4.023   1.179   6.965
12492WAT     H137718   4.044   1.106   6.899
12492WAT     H237719   4.018   1.266   6.918
12493WAT      O37720   3.199   5.631   6.978
12493WAT     H137721   3.118   5.639   7.037
12493WAT     H237722   3.205   5.710   6.918
12494WAT      O37723   9.079   4.296   0.334
12494WAT     H137724   9.148   4.241   0.287
12494WAT     H237725   9.074   4.386   0.293
12495WAT      O37726   7.343   9.679   9.203
12495WAT     H137727   7.281   9.743   9.248
12495WAT     H237728   7.430   9.675   9.252
12496WAT      O37729   6.945   1.445   2.496
12496WAT     H137730   6.945   1.545   2.500
12496WAT     H237731   6.936   1.416   2.400
12497WAT      O37732   4.142   2.113   9.358
12497WAT     H137733   4.109   2.019   9.369
12497WAT     H237734   4.084   2.175   9.411
12498WAT      O37735   8.284   3.753   1.542
12498WAT     H137736   8.198   3.712   1.513
12498WAT     H237737   8.346   3.761   1.464
12499WAT      O37738   5.859   2.172   2.600
12499WAT     H137739   5.828   2.085   2.639
12499WAT     H237740   5.803   2.195   2.520
12500WAT      O37741   9.688   4.834   5.861
12500WAT     H137742   9.743   4.769   5.913
12500WAT     H237743   9.744   4.873   5.787
12501WAT      O37744   8.920   0.144   4.056
12501WAT     H137745   8.930   0.058   4.006
12501WAT     H237746   8.873   0.127   4.142
12502WAT      O37747   8.513   6.395   9.244
12502WAT     H137748   8.612   6.408   9.233
12502WAT     H237749   8.495   6.354   9.333
12503WAT      O37750   2.379   4.521   7.849
12503WAT     H137751   2.432   4.540   7.767
12503WAT     H237752   2.356   4.608   7.894
12504WAT      O37753   7.829   8.518   5.936
12504WAT     H137754   7.773   8.583   5.886
12504WAT     H237755   7.851   8.555   6.027
12505WAT      O37756   8.732   8.549   4.052
12505WAT     H137757   8.641   8.580   4.079
12505WAT     H237758   8.779   8.624   4.004
12506WAT      O37759   3.882   2.731   9.075
12506WAT     H137760   3.951   2.802   9.064
12506WAT     H237761   3.791   2.773   9.080
12507WAT      O37762   8.088   6.105   3.328
12507WAT     H137763   8.103   6.204   3.333
12507WAT     H237764   8.159   6.063   3.271
12508WAT      O37765   3.179   3.210   8.889
12508WAT     H137766   3.083   3.226   8.911
12508WAT     H237767   3.186   3.160   8.803
12509WAT      O37768   0.791   8.971   2.413
12509WAT     H137769   0.758   9.065   2.424
12509WAT     H237770   0.888   8.967   2.441
12510WAT      O37771   2.388  -0.003   3.169
12510WAT     H137772   2.305   0.043   3.138
12510WAT     H237773   2.431   0.051   3.242
12511WAT      O37774   4.024   4.322   6.739
12511WAT     H137775   4.053   4.407   6.696
12511WAT     H237776   3.953   4.279   6.683
12512WAT      O37777   2.221   2.313   7.824
12512WAT     H137778   2.249   2.283   7.915
12512WAT     H237779   2.225   2.235   7.761
12513WAT      O37780   3.817   3.009   1.827
12513WAT     H137781   3.761   3.090   1.842
12513WAT     H237782   3.818   2.953   1.909
12514WAT      O37783   5.677   4.039   3.476
12514WAT     H137784   5.615   3.987   3.535
12514WAT     H237785   5.642   4.132   3.465
12515WAT      O37786   3.927   1.025   2.264
12515WAT     H137787   3.985   0.957   2.309
12515WAT     H237788   3.860   0.979   2.206
12516WAT      O37789   5.172   7.364   6.031
12516WAT     H137790   5.140   7.282   5.983
12516WAT     H237791   5.218   7.338   6.116
12517WAT      O37792   6.404   0.961   7.456
12517WAT     H137793   6.333   0.941   7.388
12517WAT     H237794   6.384   0.910   7.540
12518WAT      O37795   7.587   0.505   0.523
12518WAT     H137796   7.602   0.424   0.466
12518WAT     H237797   7.574   0.477   0.618
12519WAT      O37798   6.300   1.833   0.263
12519WAT     H137799   6.356   1.877   0.334
12519WAT     H237800   6.223   1.892   0.240
12520WAT      O37801   8.811   9.005   7.310
12520WAT     H137802   8.847   8.965   7.394
12520WAT     H237803   8.842   9.100   7.303
12521WAT      O37804   1.754   2.934   7.487
12521WAT     H137805   1.776   2.914   7.583
12521WAT     H237806   1.655   2.948   7.478
12522WAT      O37807   3.764   1.429   4.027
12522WAT     H137808   3.780   1.339   3.987
12522WAT     H237809   3.779   1.500   3.957
12523WAT      O37810   6.703   5.084   1.143
12523WAT     H137811   6.736   5.117   1.232
12523WAT     H237812   6.766   5.015   1.109
12524WAT      O37813   0.313   9.276   8.739
12524WAT     H137814   0.406   9.248   8.714
12524WAT     H237815   0.314   9.370   8.772
12525WAT      O37816   0.799   0.857   0.818
12525WAT     H137817   0.832   0.951   0.811
12525WAT     H237818   0.751   0.844   0.904
12526WAT      O37819   1.943   7.836   4.252
12526WAT     H137820   2.024   7.865   4.200
12526WAT     H237821   1.970   7.805   4.343
12527WAT      O37822   6.132   5.631   7.320
12527WAT     H137823   6.043   5.660   7.285
12527WAT     H237824   6.204   5.687   7.280
12528WAT      O37825   0.627   7.297   5.271
12528WAT     H137826   0.698   7.231   5.246
12528WAT     H237827   0.660   7.356   5.344
12529WAT      O37828   6.412   6.384   2.359
12529WAT     H137829   6.394   6.317   2.287
12529WAT     H237830   6.474   6.344   2.426
12530WAT      O37831   1.397   0.853   8.023
12530WAT     H137832   1.306   0.880   8.054
12530WAT     H237833   1.417   0.897   7.935
12531WAT      O37834   0.187   1.459   8.193
12531WAT     H137835   0.271   1.504   8.164
12531WAT     H237836   0.178   1.468   8.292
12532WAT      O37837   5.245   8.559   9.888
12532WAT     H137838   5.254   8.650   9.848
12532WAT     H237839   5.333   8.529   9.925
12533WAT      O37840   8.186   2.626   1.313
12533WAT     H137841   8.223   2.715   1.341
12533WAT     H237842   8.109   2.602   1.372
12534WAT      O37843   7.616   4.581   2.811
12534WAT     H137844   7.604   4.567   2.909
12534WAT     H237845   7.527   4.599   2.768
12535WAT      O37846   6.595   1.073   2.587
12535WAT     H137847   6.656   1.136   2.635
12535WAT     H237848   6.630   1.056   2.494
12536WAT      O37849   5.235   3.600   0.084
12536WAT     H137850   5.245   3.688   0.037
12536WAT     H237851   5.162   3.548   0.040
12537WAT      O37852   5.949   7.738   0.309
12537WAT     H137853   5.896   7.681   0.372
12537WAT     H237854   5.914   7.831   0.310
12538WAT      O37855   3.691   0.825   2.631
12538WAT     H137856   3.614   0.779   2.676
12538WAT     H237857   3.715   0.907   2.683
12539WAT      O37858   3.170   5.821   8.731
12539WAT     H137859   3.171   5.741   8.671
12539WAT     H237860   3.264   5.850   8.749
12540WAT      O37861   2.904   9.699   8.200
12540WAT     H137862   2.895   9.747   8.112
12540WAT     H237863   2.989   9.647   8.201
12541WAT      O37864   4.308   8.167   5.820
12541WAT     H137865   4.285   8.253   5.865
12541WAT     H237866   4.407   8.158   5.812
12542WAT      O37867   5.133   2.312   0.877
12542WAT     H137868   5.155   2.409   0.890
12542WAT     H237869   5.132   2.266   0.966
12543WAT      O37870   5.284   1.402   9.145
12543WAT     H137871   5.352   1.455   9.196
12543WAT     H237872   5.192   1.424   9.179
12544WAT      O37873   2.825   6.515   9.441
12544WAT     H137874   2.811   6.570   9.358
12544WAT     H237875   2.757   6.441   9.443
12545WAT      O37876   4.139   1.779   6.061
12545WAT     H137877   4.190   1.765   5.977
12545WAT     H237878   4.082   1.699   6.080
12546WAT      O37879   1.180   1.208   5.367
12546WAT     H137880   1.126   1.277   5.417
12546WAT     H237881   1.276   1.219   5.391
12547WAT      O37882   5.165   6.914   8.209
12547WAT     H137883   5.067   6.933   8.208
12547WAT     H237884   5.187   6.853   8.133
12548WAT      O37885   5.395   8.349   6.483
12548WAT     H137886   5.408   8.316   6.577
12548WAT     H237887   5.445   8.434   6.470
12549WAT      O37888   7.536   3.523   2.365
12549WAT     H137889   7.562   3.465   2.288
12549WAT     H237890   7.486   3.603   2.331
12550WAT      O37891   4.069   7.859   5.924
12550WAT     H137892   4.082   7.779   5.865
12550WAT     H237893   4.055   7.828   6.018
12551WAT      O37894   4.085   7.993   8.365
12551WAT     H137895   4.042   7.906   8.340
12551WAT     H237896   4.168   7.976   8.417
12552WAT      O37897   9.742   2.694   3.429
12552WAT     H137898   9.646   2.715   3.444
12552WAT     H237899   9.795   2.779   3.429
12553WAT      O37900   0.785   6.213   8.545
12553WAT     H137901   0.793   6.311   8.561
12553WAT     H237902   0.779   6.196   8.446
12554WAT      O37903   8.044   9.257   3.532
12554WAT     H137904   8.057   9.304   3.619
12554WAT     H237905   7.969   9.191   3.540
12555WAT      O37906   9.628   0.656   5.020
12555WAT     H137907   9.681   0.624   5.098
12555WAT     H237908   9.596   0.749   5.037
12556WAT      O37909   5.661   4.705   0.856
12556WAT     H137910   5.682   4.780   0.919
12556WAT     H237911   5.594   4.737   0.788
12557WAT      O37912   1.837   5.870   3.563
12557WAT     H137913   1.894   5.884   3.644
12557WAT     H237914   1.862   5.784   3.518
12558WAT      O37915   8.375   4.682   5.439
12558WAT     H137916   8.390   4.694   5.538
12558WAT     H237917   8.289   4.725   5.413
12559WAT      O37918   0.717   7.993   1.168
12559WAT     H137919   0.781   7.958   1.098
12559WAT     H237920   0.675   7.916   1.215
12560WAT      O37921   1.443   8.749   9.047
12560WAT     H137922   1.410   8.830   9.096
12560WAT     H237923   1.471   8.679   9.113
12561WAT      O37924   9.645   7.423   6.264
12561WAT     H137925   9.668   7.459   6.173
12561WAT     H237926   9.623   7.326   6.257
12562WAT      O37927   0.987   1.068   5.566
12562WAT     H137928   1.048   1.110   5.500
12562WAT     H237929   1.040   1.025   5.639
12563WAT      O37930   1.484   5.779   6.715
12563WAT     H137931   1.540   5.851   6.672
12563WAT     H237932   1.490   5.696   6.660
12564WAT      O37933   2.571   8.764   2.236
12564WAT     H137934   2.563   8.753   2.137
12564WAT     H237935   2.647   8.825   2.257
12565WAT      O37936   5.385   0.421   8.206
12565WAT     H137937   5.386   0.385   8.299
12565WAT     H237938   5.304   0.388   8.158
12566WAT      O37939   3.609   2.546   7.856
12566WAT     H137940   3.671   2.611   7.899
12566WAT     H237941   3.522   2.543   7.907
12567WAT      O37942   4.590   7.194   9.741
12567WAT     H137943   4.576   7.151   9.830
12567WAT     H237944   4.503   7.205   9.695
12568WAT      O37945   8.320   2.092   2.371
12568WAT     H137946   8.240   2.068   2.317
12568WAT     H237947   8.392   2.126   2.311
12569WAT      O37948   8.764   8.547   4.934
12569WAT     H137949   8.707   8.560   4.853
12569WAT     H237950   8.855   8.586   4.918
12570WAT      O37951   4.999   6.249   0.059
12570WAT     H137952   4.949   6.230  -0.026
12570WAT     H237953   4.997   6.347   0.077
12571WAT      O37954   3.272   3.943   0.908
12571WAT     H137955   3.217   4.012   0.863
12571WAT     H237956   3.217   3.861   0.924
12572WAT      O37957   2.482   1.229   2.395
12572WAT     H137958   2.544   1.233   2.473
12572WAT     H237959   2.390   1.255   2.424
12573WAT      O37960   7.870   8.116   6.450
12573WAT     H137961   7.903   8.210   6.452
12573WAT     H237962   7.775   8.114   6.416
12574WAT      O37963   2.323   7.936   2.939
12574WAT     H137964   2.294   7.902   3.028
12574WAT     H237965   2.356   8.029   2.948
12575WAT      O37966   7.033   0.996   5.769
12575WAT     H137967   7.112   0.940   5.792
12575WAT     H237968   7.062   1.075   5.714
12576WAT      O37969   7.742   2.676   6.170
12576WAT     H137970   7.656   2.712   6.134
12576WAT     H237971   7.738   2.577   6.171
12577WAT      O37972   2.727   2.175   0.466
12577WAT     H137973   2.794   2.242   0.500
12577WAT     H237974   2.675   2.215   0.391
12578WAT      O37975   8.218   9.675   0.378
12578WAT     H137976   8.204   9.770   0.351
12578WAT     H237977   8.165   9.656   0.461
12579WAT      O37978   6.984   4.570   7.540
12579WAT     H137979   6.893   4.606   7.519
12579WAT     H237980   7.048   4.598   7.469
12580WAT      O37981   7.594   3.440   3.516
12580WAT     H137982   7.684   3.398   3.504
12580WAT     H237983   7.579   3.508   3.444
12581WAT      O37984   1.182   0.944   3.761
12581WAT     H137985   1.087   0.963   3.784
12581WAT     H237986   1.197   0.960   3.664
12582WAT      O37987   6.178   2.563   2.766
12582WAT     H137988   6.128   2.627   2.824
12582WAT     H237989   6.258   2.528   2.815
12583WAT      O37990   8.471   5.937   2.701
12583WAT     H137991   8.400   5.909   2.765
12583WAT     H237992   8.436   5.931   2.607
12584WAT      O37993   3.453   3.785   7.419
12584WAT     H137994   3.497   3.829   7.497
12584WAT     H237995   3.472   3.687   7.421
12585WAT      O37996   6.487   5.713   7.050
12585WAT     H137997   6.425   5.724   6.972
12585WAT     H237998   6.525   5.621   7.051
12586WAT      O37999   3.813   0.664   4.890
12586WAT     H138000   3.801   0.566   4.907
12586WAT     H238001   3.775   0.687   4.800
12587WAT      O38002   8.246   5.763   4.215
12587WAT     H138003   8.313   5.800   4.280
12587WAT     H238004   8.286   5.764   4.123
12588WAT      O38005   3.723   0.432   9.785
12588WAT     H138006   3.635   0.467   9.753
12588WAT     H238007   3.728   0.333   9.766
12589WAT      O38008   4.434   6.111   5.553
12589WAT     H138009   4.353   6.168   5.569
12589WAT     H238010   4.407   6.015   5.557
12590WAT      O38011   2.187   6.842   2.623
12590WAT     H138012   2.113   6.786   2.660
12590WAT     H238013   2.175   6.937   2.652
12591WAT      O38014   7.945   3.285   3.765
12591WAT     H138015   7.856   3.308   3.804
12591WAT     H238016   8.015   3.289   3.836
12592WAT      O38017   3.049   8.564   6.898
12592WAT     H138018   2.989   8.486   6.880
12592WAT     H238019   3.061   8.617   6.815
12593WAT      O38020   9.782   0.005   5.212
12593WAT     H138021   9.840  -0.004   5.131
12593WAT     H238022   9.837  -0.015   5.294
12594WAT      O38023   9.843   3.985   2.265
12594WAT     H138024   9.856   4.032   2.178
12594WAT     H238025   9.751   4.004   2.300
12595WAT      O38026   6.739   2.083   7.765
12595WAT     H138027   6.655   2.102   7.816
12595WAT     H238028   6.792   2.013   7.813
12596WAT      O38029   8.617   7.036   7.184
12596WAT     H138030   8.631   7.120   7.131
12596WAT     H238031   8.563   6.972   7.131
12597WAT      O38032   0.538   6.633   2.588
12597WAT     H138033   0.598   6.563   2.628
12597WAT     H238034   0.482   6.592   2.517
12598WAT      O38035   2.509   1.842   7.127
12598WAT     H138036   2.506   1.934   7.087
12598WAT     H238037   2.437   1.834   7.197
12599WAT      O38038   5.612   3.106   4.481
12599WAT     H138039   5.693   3.100   4.540
12599WAT     H238040   5.530   3.105   4.538
12600WAT      O38041   8.028   5.116   4.279
12600WAT     H138042   8.001   5.045   4.213
12600WAT     H238043   7.946   5.167   4.307
12601WAT      O38044   5.234   4.877   3.643
12601WAT     H138045   5.273   4.791   3.674
12601WAT     H238046   5.216   4.872   3.545
12602WAT      O38047   4.348   1.818   8.244
12602WAT     H138048   4.426   1.792   8.186
12602WAT     H238049   4.325   1.742   8.304
12603WAT      O38050   3.096   9.307   2.966
12603WAT     H138051   3.098   9.326   3.064
12603WAT     H238052   3.127   9.214   2.949
12604WAT      O38053   5.414   0.416   0.280
12604WAT     H138054   5.489   0.352   0.265
12604WAT     H238055   5.405   0.435   0.377
12605WAT      O38056   3.578   5.859   1.650
12605WAT     H138057   3.509   5.920   1.612
12605WAT     H238058   3.559   5.843   1.747
12606WAT      O38059   0.200   3.418   7.959
12606WAT     H138060   0.227   3.513   7.947
12606WAT     H238061   0.103   3.407   7.937
12607WAT      O38062   0.596   1.677   2.645
12607WAT     H138063   0.658   1.697   2.570
12607WAT     H238064   0.520   1.621   2.611
12608WAT      O38065   5.230   4.677   1.254
12608WAT     H138066   5.305   4.637   1.200
12608WAT     H238067   5.253   4.771   1.278
12609WAT      O38068   3.123   3.985   5.556
12609WAT     H138069   3.089   4.079   5.551
12609WAT     H238070   3.140   3.961   5.652
12610WAT      O38071   9.694   3.154   5.922
12610WAT     H138072   9.660   3.084   5.860
12610WAT     H238073   9.626   3.172   5.993
12611WAT      O38074   1.350   4.630   1.254
12611WAT     H138075   1.377   4.679   1.170
12611WAT     H238076   1.404   4.546   1.262
12612WAT      O38077   4.587   1.993   4.938
12612WAT     H138078   4.632   2.081   4.925
12612WAT     H238079   4.621   1.950   5.022
12613WAT      O38080   6.021   1.058   6.650
12613WAT     H138081   6.017   1.034   6.553
12613WAT     H238082   6.089   1.001   6.695
12614WAT      O38083   2.121   4.665   5.497
12614WAT     H138084   2.049   4.733   5.482
12614WAT     H238085   2.108   4.589   5.434
12615WAT      O38086   6.578   3.750   7.237
12615WAT     H138087   6.619   3.701   7.313
12615WAT     H238088   6.505   3.810   7.270
12616WAT      O38089   7.511   3.806   8.667
12616WAT     H138090   7.506   3.844   8.759
12616WAT     H238091   7.580   3.856   8.614
12617WAT      O38092   4.085   0.144   9.775
12617WAT     H138093   4.029   0.066   9.746
12617WAT     H238094   4.145   0.171   9.700
12618WAT      O38095   1.337   0.060   0.082
12618WAT     H138096   1.315   0.094  -0.009
12618WAT     H238097   1.344  -0.040   0.080
12619WAT      O38098   1.102   7.231   5.928
12619WAT     H138099   1.075   7.151   5.874
12619WAT     H238100   1.200   7.246   5.919
12620WAT      O38101   3.728   2.306   2.624
12620WAT     H138102   3.766   2.396   2.602
12620WAT     H238103   3.776   2.235   2.571
12621WAT      O38104   2.241   4.240   3.456
12621WAT     H138105   2.165   4.289   3.498
12621WAT     H238106   2.247   4.264   3.359
12622WAT      O38107   9.167   5.899   8.072
12622WAT     H138108   9.070   5.882   8.085
12622WAT     H238109   9.183   5.938   7.981
12623WAT      O38110   2.523   6.707   8.942
12623WAT     H138111   2.505   6.687   9.038
12623WAT     H238112   2.607   6.660   8.914
12624WAT      O38113   2.110   4.114   4.357
12624WAT     H138114   2.035   4.107   4.292
12624WAT     H238115   2.109   4.204   4.400
12625WAT      O38116   9.478   1.445   0.791
12625WAT     H138117   9.576   1.447   0.773
12625WAT     H238118   9.430   1.502   0.724
12626WAT      O38119   3.309   0.386   8.555
12626WAT     H138120   3.231   0.350   8.606
12626WAT     H238121   3.386   0.324   8.562
12627WAT      O38122   3.385   3.115   1.587
12627WAT     H138123   3.468   3.062   1.572
12627WAT     H238124   3.320   3.097   1.512
12628WAT      O38125   4.392   9.602   1.381
12628WAT     H138126   4.406   9.560   1.471
12628WAT     H238127   4.395   9.702   1.391
12629WAT      O38128   7.259   1.113   0.069
12629WAT     H138129   7.216   1.037   0.020
12629WAT     H238130   7.326   1.158   0.010
12630WAT      O38131   5.249   3.922   2.959
12630WAT     H138132   5.252   3.844   2.896
12630WAT     H238133   5.330   3.921   3.018
12631WAT      O38134   1.621   4.333   4.806
12631WAT     H138135   1.554   4.296   4.741
12631WAT     H238136   1.713   4.326   4.766
12632WAT      O38137   2.719   3.706   5.221
12632WAT     H138138   2.776   3.752   5.289
12632WAT     H238139   2.687   3.619   5.258
12633WAT      O38140   5.311   0.434   7.438
12633WAT     H138141   5.272   0.342   7.439
12633WAT     H238142   5.238   0.502   7.431
12634WAT      O38143   6.926   5.908   4.910
12634WAT     H138144   6.925   5.887   5.007
12634WAT     H238145   6.938   5.824   4.857
12635WAT      O38146   3.143   3.729   0.233
12635WAT     H138147   3.111   3.729   0.328
12635WAT     H238148   3.243   3.732   0.232
12636WAT      O38149   1.255   9.668   7.373
12636WAT     H138150   1.191   9.604   7.330
12636WAT     H238151   1.345   9.626   7.380
12637WAT      O38152   1.552   5.710   5.331
12637WAT     H138153   1.518   5.714   5.237
12637WAT     H238154   1.586   5.617   5.350
12638WAT      O38155   4.906   3.944   9.806
12638WAT     H138156   4.847   3.887   9.864
12638WAT     H238157   4.995   3.954   9.851
12639WAT      O38158   8.537   3.636   7.084
12639WAT     H138159   8.500   3.559   7.136
12639WAT     H238160   8.593   3.601   7.009
12640WAT      O38161   4.688   4.505   3.348
12640WAT     H138162   4.614   4.572   3.347
12640WAT     H238163   4.745   4.516   3.267
12641WAT      O38164   7.441   3.464   4.017
12641WAT     H138165   7.533   3.497   4.034
12641WAT     H238166   7.432   3.435   3.922
12642WAT      O38167   7.799   6.945   7.359
12642WAT     H138168   7.836   6.880   7.425
12642WAT     H238169   7.705   6.920   7.335
12643WAT      O38170   3.257   2.753   7.371
12643WAT     H138171   3.323   2.775   7.443
12643WAT     H238172   3.189   2.689   7.406
12644WAT      O38173   7.332   8.109   3.328
12644WAT     H138174   7.260   8.054   3.285
12644WAT     H238175   7.416   8.099   3.275
12645WAT      O38176   6.739   9.533   6.514
12645WAT     H138177   6.680   9.511   6.592
12645WAT     H238178   6.682   9.553   6.434
12646WAT      O38179   7.926   1.953   5.268
12646WAT     H138180   7.992   1.880   5.289
12646WAT     H238181   7.957   2.039   5.310
12647WAT      O38182   7.886   6.767   9.510
12647WAT     H138183   7.792   6.800   9.502
12647WAT     H238184   7.925   6.797   9.598
12648WAT      O38185   3.478   8.844   9.863
12648WAT     H138186   3.494   8.756   9.818
12648WAT     H238187   3.474   8.917   9.794
12649WAT      O38188   2.735   4.267   6.460
12649WAT     H138189   2.719   4.243   6.555
12649WAT     H238190   2.702   4.360   6.443
12650WAT      O38191   5.615   9.637   4.575
12650WAT     H138192   5.523   9.619   4.611
12650WAT     H238193   5.683   9.609   4.643
12651WAT      O38194   5.434   0.632   8.585
12651WAT     H138195   5.420   0.728   8.610
12651WAT     H238196   5.362   0.602   8.522
12652WAT      O38197   6.718   6.911   3.856
12652WAT     H138198   6.691   6.990   3.912
12652WAT     H238199   6.747   6.836   3.915
12653WAT      O38200   1.946   5.158   9.470
12653WAT     H138201   1.891   5.240   9.489
12653WAT     H238202   1.886   5.086   9.435
12654WAT      O38203   9.531   1.953   0.650
12654WAT     H138204   9.534   1.969   0.551
12654WAT     H238205   9.610   1.898   0.677
12655WAT      O38206   4.276   0.434   0.976
12655WAT     H138207   4.214   0.404   1.048
12655WAT     H238208   4.238   0.516   0.931
12656WAT      O38209   0.869   2.380   1.550
12656WAT     H138210   0.910   2.321   1.619
12656WAT     H238211   0.825   2.458   1.595
12657WAT      O38212   9.321   0.611   8.678
12657WAT     H138213   9.263   0.561   8.613
12657WAT     H238214   9.343   0.551   8.755
12658WAT      O38215   2.814   6.690   4.316
12658WAT     H138216   2.788   6.616   4.253
12658WAT     H238217   2.776   6.670   4.407
12659WAT      O38218   1.524   6.036   9.006
12659WAT     H138219   1.518   6.131   9.039
12659WAT     H238220   1.602   5.991   9.049
12660WAT      O38221   1.665   0.760   6.652
12660WAT     H138222   1.613   0.837   6.617
12660WAT     H238223   1.662   0.759   6.752
12661WAT      O38224   4.946   8.419   9.105
12661WAT     H138225   4.922   8.500   9.158
12661WAT     H238226   4.865   8.361   9.094
12662WAT      O38227   5.262   9.681   4.601
12662WAT     H138228   5.178   9.697   4.653
12662WAT     H238229   5.298   9.591   4.625
12663WAT      O38230   7.322   7.987   5.781
12663WAT     H138231   7.326   7.919   5.854
12663WAT     H238232   7.398   8.051   5.790
12664WAT      O38233   7.260   3.690   6.475
12664WAT     H138234   7.260   3.592   6.492
12664WAT     H238235   7.169   3.719   6.447
12665WAT      O38236   1.249   6.216   5.390
12665WAT     H138237   1.347   6.196   5.389
12665WAT     H238238   1.209   6.181   5.475
12666WAT      O38239   1.325   2.393   5.182
12666WAT     H138240   1.312   2.296   5.164
12666WAT     H238241   1.264   2.446   5.123
12667WAT      O38242   5.351   2.777   5.664
12667WAT     H138243   5.375   2.848   5.598
12667WAT     H238244   5.318   2.696   5.614
12668WAT      O38245   4.123   2.822   6.346
12668WAT     H138246   4.137   2.921   6.347
12668WAT     H238247   4.128   2.788   6.252
12669WAT      O38248   2.167   6.408   6.675
12669WAT     H138249   2.188   6.324   6.724
12669WAT     H238250   2.150   6.388   6.579
12670WAT      O38251   1.049   4.264   8.511
12670WAT     H138252   1.049   4.290   8.608
12670WAT     H238253   1.093   4.175   8.500
12671WAT      O38254   6.136   7.111   8.979
12671WAT     H138255   6.052   7.075   8.938
12671WAT     H238256   6.216   7.076   8.930
12672WAT      O38257   3.360   4.682   8.738
12672WAT     H138258   3.381   4.692   8.836
12672WAT     H238259   3.367   4.585   8.713
12673WAT      O38260   5.748   4.260   6.552
12673WAT     H138261   5.845   4.255   6.531
12673WAT     H238262   5.700   4.302   6.474
12674WAT      O38263   9.813   9.151   9.808
12674WAT     H138264   9.742   9.141   9.878
12674WAT     H238265   9.835   9.248   9.796
12675WAT      O38266   6.757   6.233   3.797
12675WAT     H138267   6.665   6.200   3.776
12675WAT     H238268   6.771   6.231   3.896
12676WAT      O38269   8.405   1.357   7.295
12676WAT     H138270   8.463   1.438   7.306
12676WAT     H238271   8.373   1.327   7.385
12677WAT      O38272   4.731   5.102   1.699
12677WAT     H138273   4.737   5.053   1.786
12677WAT     H238274   4.682   5.188   1.713
12678WAT      O38275   4.867   3.677   1.187
12678WAT     H138276   4.952   3.730   1.193
12678WAT     H238277   4.807   3.702   1.263
12679WAT      O38278   8.796   3.663   4.741
12679WAT     H138279   8.718   3.726   4.746
12679WAT     H238280   8.881   3.715   4.753
12680WAT      O38281   0.710   1.129   2.972
12680WAT     H138282   0.788   1.190   2.976
12680WAT     H238283   0.666   1.124   3.061
12681WAT      O38284   2.053   5.006   9.862
12681WAT     H138285   2.032   5.104   9.860
12681WAT     H238286   2.119   4.988   9.936
12682WAT      O38287   3.762   2.442   5.791
12682WAT     H138288   3.746   2.405   5.883
12682WAT     H238289   3.858   2.470   5.783
12683WAT      O38290   4.305   7.177   2.282
12683WAT     H138291   4.378   7.214   2.339
12683WAT     H238292   4.220   7.226   2.301
12684WAT      O38293   5.938   6.575   8.201
12684WAT     H138294   5.896   6.562   8.291
12684WAT     H238295   6.035   6.595   8.212
12685WAT      O38296   7.825   8.464   8.946
12685WAT     H138297   7.733   8.448   8.909
12685WAT     H238298   7.851   8.386   9.004
12686WAT      O38299   7.114   5.848   7.769
12686WAT     H138300   7.033   5.861   7.712
12686WAT     H238301   7.186   5.910   7.738
12687WAT      O38302   1.627   6.956   1.835
12687WAT     H138303   1.711   6.907   1.812
12687WAT     H238304   1.554   6.890   1.854
12688WAT      O38305   0.033   7.675   6.330
12688WAT     H138306   0.046   7.581   6.361
12688WAT     H238307  -0.021   7.725   6.397
12689WAT      O38308   9.593   4.323   1.232
12689WAT     H138309   9.506   4.288   1.198
12689WAT     H238310   9.579   4.415   1.269
12690WAT      O38311   4.123   4.709   8.663
12690WAT     H138312   4.127   4.615   8.627
12690WAT     H238313   4.030   4.745   8.651
12691WAT      O38314   7.319   1.419   0.076
12691WAT     H138315   7.328   1.350   0.005
12691WAT     H238316   7.381   1.495   0.057
12692WAT      O38317   4.638   5.508   9.029
12692WAT     H138318   4.644   5.534   8.933
12692WAT     H238319   4.722   5.535   9.076
12693WAT      O38320   9.288   2.073   9.263
12693WAT     H138321   9.308   2.019   9.181
12693WAT     H238322   9.373   2.091   9.313
12694WAT      O38323   1.006   4.120   3.791
12694WAT     H138324   1.077   4.084   3.730
12694WAT     H238325   0.931   4.156   3.736
12695WAT      O38326   4.327   8.047   1.789
12695WAT     H138327   4.249   7.996   1.754
12695WAT     H238328   4.405   7.986   1.800
12696WAT      O38329   6.048   8.673   1.638
12696WAT     H138330   6.139   8.712   1.652
12696WAT     H238331   6.000   8.667   1.726
12697WAT      O38332   7.686   8.697   6.213
12697WAT     H138333   7.587   8.693   6.207
12697WAT     H238334   7.720   8.620   6.266
12698WAT      O38335   9.643   2.212   4.949
12698WAT     H138336   9.600   2.143   5.006
12698WAT     H238337   9.721   2.172   4.900
12699WAT      O38338   8.601   6.266   0.028
12699WAT     H138339   8.583   6.178   0.073
12699WAT     H238340   8.632   6.332   0.096
12700WAT      O38341   5.218   0.017   2.553
12700WAT     H138342   5.166  -0.040   2.489
12700WAT     H238343   5.157   0.047   2.627
12701WAT      O38344   7.204   0.785   7.777
12701WAT     H138345   7.147   0.813   7.855
12701WAT     H238346   7.161   0.817   7.692
12702WAT      O38347   2.987   0.078   2.586
12702WAT     H138348   2.969   0.069   2.488
12702WAT     H238349   2.918   0.026   2.637
12703WAT      O38350   5.363   3.647   6.339
12703WAT     H138351   5.426   3.585   6.387
12703WAT     H238352   5.401   3.670   6.250
12704WAT      O38353   4.792   6.335   3.031
12704WAT     H138354   4.884   6.327   3.068
12704WAT     H238355   4.728   6.356   3.106
12705WAT      O38356   6.561   0.449   3.838
12705WAT     H138357   6.504   0.396   3.901
12705WAT     H238358   6.526   0.543   3.833
12706WAT      O38359   0.446   8.475   3.192
12706WAT     H138360   0.531   8.498   3.240
12706WAT     H238361   0.369   8.524   3.232
12707WAT      O38362   4.433   6.997   3.829
12707WAT     H138363   4.527   7.024   3.848
12707WAT     H238364   4.394   6.953   3.910
12708WAT      O38365   4.821   8.322   2.507
12708WAT     H138366   4.737   8.336   2.560
12708WAT     H238367   4.859   8.232   2.528
12709WAT      O38368   9.051   5.063   5.876
12709WAT     H138369   8.984   5.137   5.867
12709WAT     H238370   9.006   4.975   5.865
12710WAT      O38371   6.237   3.349   5.583
12710WAT     H138372   6.190   3.413   5.644
12710WAT     H238373   6.170   3.285   5.544
12711WAT      O38374   3.471   2.571   7.267
12711WAT     H138375   3.507   2.483   7.296
12711WAT     H238376   3.415   2.610   7.339
12712WAT      O38377   3.532   5.825   5.889
12712WAT     H138378   3.545   5.860   5.796
12712WAT     H238379   3.453   5.764   5.891
12713WAT      O38380   1.461   9.709   2.255
12713WAT     H138381   1.521   9.686   2.178
12713WAT     H238382   1.509   9.690   2.341
12714WAT      O38383   9.197   2.688   6.672
12714WAT     H138384   9.205   2.736   6.585
12714WAT     H238385   9.287   2.684   6.716
12715WAT      O38386   9.867   4.584   0.778
12715WAT     H138387   9.942   4.648   0.762
12715WAT     H238388   9.852   4.575   0.877
12716WAT      O38389   8.646   2.584   4.296
12716WAT     H138390   8.603   2.624   4.215
12716WAT     H238391   8.630   2.486   4.298
12717WAT      O38392   9.611   7.495   8.264
12717WAT     H138393   9.572   7.446   8.342
12717WAT     H238394   9.667   7.571   8.297
12718WAT      O38395   9.021   1.514   1.396
12718WAT     H138396   9.064   1.424   1.404
12718WAT     H238397   8.976   1.536   1.482
12719WAT      O38398   9.777   8.858   7.956
12719WAT     H138399   9.679   8.873   7.968
12719WAT     H238400   9.827   8.904   8.029
12720WAT      O38401   9.290   5.571   6.587
12720WAT     H138402   9.364   5.562   6.521
12720WAT     H238403   9.320   5.534   6.676
12721WAT      O38404   6.208   3.872   4.999
12721WAT     H138405   6.297   3.887   4.956
12721WAT     H238406   6.168   3.787   4.965
12722WAT      O38407   3.690   8.896   6.087
12722WAT     H138408   3.757   8.837   6.042
12722WAT     H238409   3.734   8.949   6.159
12723WAT      O38410   1.077   0.526   5.153
12723WAT     H138411   1.111   0.608   5.199
12723WAT     H238412   0.986   0.504   5.188
12724WAT      O38413   0.002   9.790   9.410
12724WAT     H138414   0.086   9.844   9.420
12724WAT     H238415   0.025   9.700   9.372
12725WAT      O38416   3.887   5.341   4.868
12725WAT     H138417   3.850   5.284   4.942
12725WAT     H238418   3.853   5.309   4.780
12726WAT      O38419   4.615   1.088   6.898
12726WAT     H138420   4.535   1.145   6.914
12726WAT     H238421   4.632   1.081   6.799
12727WAT      O38422   6.917   3.949   6.743
12727WAT     H138423   6.823   3.917   6.755
12727WAT     H238424   6.977   3.869   6.733
12728WAT      O38425   4.198   7.619   6.277
12728WAT     H138426   4.197   7.683   6.354
12728WAT     H238427   4.140   7.654   6.204
12729WAT      O38428   5.026   8.330   7.711
12729WAT     H138429   5.086   8.383   7.771
12729WAT     H238430   5.079   8.256   7.668
12730WAT      O38431   8.061   8.135   9.391
12730WAT     H138432   8.149   8.107   9.428
12730WAT     H238433   7.999   8.157   9.466
12731WAT      O38434   4.988   4.708   8.052
12731WAT     H138435   4.964   4.702   7.955
12731WAT     H238436   4.905   4.713   8.107
12732WAT      O38437   2.840   4.218   1.343
12732WAT     H138438   2.785   4.138   1.321
12732WAT     H238439   2.804   4.261   1.427
12733WAT      O38440   4.537   1.614   7.525
12733WAT     H138441   4.443   1.581   7.533
12733WAT     H238442   4.540   1.692   7.463
12734WAT      O38443   8.517   2.249   7.280
12734WAT     H138444   8.599   2.273   7.228
12734WAT     H238445   8.435   2.273   7.227
12735WAT      O38446   7.308   1.800   1.148
12735WAT     H138447   7.322   1.892   1.112
12735WAT     H238448   7.329   1.733   1.077
12736WAT      O38449   0.758   5.603   0.756
12736WAT     H138450   0.678   5.608   0.815
12736WAT     H238451   0.788   5.695   0.732
12737WAT      O38452   2.206   1.861   0.032
12737WAT     H138453   2.170   1.887  -0.058
12737WAT     H238454   2.305   1.872   0.033
12738WAT      O38455   0.804   3.132   1.048
12738WAT     H138456   0.767   3.039   1.052
12738WAT     H238457   0.797   3.174   1.139
12739WAT      O38458   5.110   6.611   9.803
12739WAT     H138459   5.135   6.569   9.891
12739WAT     H238460   5.013   6.593   9.785
12740WAT      O38461   6.035   1.000   5.009
12740WAT     H138462   5.994   0.997   4.918
12740WAT     H238463   5.983   0.942   5.072
12741WAT      O38464   8.506   0.813   5.851
12741WAT     H138465   8.410   0.836   5.840
12741WAT     H238466   8.527   0.730   5.799
12742WAT      O38467   3.409   2.628   6.296
12742WAT     H138468   3.452   2.709   6.256
12742WAT     H238469   3.447   2.612   6.387
12743WAT      O38470   1.035   2.319   2.942
12743WAT     H138471   0.976   2.351   3.016
12743WAT     H238472   1.131   2.329   2.970
12744WAT      O38473   0.125   7.779   8.347
12744WAT     H138474   0.075   7.862   8.320
12744WAT     H238475   0.107   7.760   8.444
12745WAT      O38476   7.353   2.065   7.346
12745WAT     H138477   7.333   1.967   7.342
12745WAT     H238478   7.270   2.115   7.368
12746WAT      O38479   0.785   5.550   7.271
12746WAT     H138480   0.770   5.594   7.359
12746WAT     H238481   0.853   5.602   7.219
12747WAT      O38482   9.865   3.833   5.485
12747WAT     H138483   9.923   3.914   5.491
12747WAT     H238484   9.917   3.757   5.447
12748WAT      O38485   8.078   6.636   3.679
12748WAT     H138486   8.023   6.718   3.660
12748WAT     H238487   8.127   6.648   3.765
12749WAT      O38488   9.292   3.126   6.278
12749WAT     H138489   9.205   3.168   6.251
12749WAT     H238490   9.327   3.171   6.360
12750WAT      O38491   9.559   5.215   2.168
12750WAT     H138492   9.604   5.141   2.218
12750WAT     H238493   9.460   5.206   2.177
12751WAT      O38494   7.417   7.806   2.331
12751WAT     H138495   7.348   7.777   2.265
12751WAT     H238496   7.483   7.733   2.344
12752WAT      O38497   0.761   1.745   4.281
12752WAT     H138498   0.686   1.691   4.320
12752WAT     H238499   0.815   1.786   4.355
12753WAT      O38500   0.094   0.261   8.970
12753WAT     H138501   0.037   0.228   9.046
12753WAT     H238502   0.180   0.296   9.006
12754WAT      O38503   2.638   9.322   8.497
12754WAT     H138504   2.686   9.277   8.572
12754WAT     H238505   2.544   9.344   8.525
12755WAT      O38506   3.673   9.570   9.748
12755WAT     H138507   3.746   9.568   9.816
12755WAT     H238508   3.610   9.494   9.763
12756WAT      O38509   9.618   2.166   1.642
12756WAT     H138510   9.592   2.196   1.734
12756WAT     H238511   9.540   2.178   1.580
12757WAT      O38512   5.580   5.551   8.174
12757WAT     H138513   5.620   5.504   8.096
12757WAT     H238514   5.535   5.485   8.234
12758WAT      O38515   8.087   4.704   5.771
12758WAT     H138516   7.998   4.729   5.732
12758WAT     H238517   8.081   4.613   5.812
12759WAT      O38518   6.440   7.114   4.560
12759WAT     H138519   6.440   7.102   4.660
12759WAT     H238520   6.458   7.210   4.539
12760WAT      O38521   6.825   3.213   7.464
12760WAT     H138522   6.864   3.148   7.399
12760WAT     H238523   6.801   3.297   7.417
12761WAT      O38524   8.940   6.827   1.856
12761WAT     H138525   8.968   6.732   1.867
12761WAT     H238526   8.931   6.848   1.759
12762WAT      O38527   7.337   4.062   9.150
12762WAT     H138528   7.270   3.991   9.170
12762WAT     H238529   7.394   4.033   9.072
12763WAT      O38530   3.601   8.141   9.322
12763WAT     H138531   3.640   8.159   9.412
12763WAT     H238532   3.503   8.125   9.330
12764WAT      O38533   6.422   0.296   4.572
12764WAT     H138534   6.407   0.288   4.671
12764WAT     H238535   6.514   0.329   4.554
12765WAT      O38536   7.321   6.660   9.229
12765WAT     H138537   7.279   6.750   9.241
12765WAT     H238538   7.331   6.641   9.132
12766WAT      O38539   1.464   6.624   1.991
12766WAT     H138540   1.411   6.706   2.012
12766WAT     H238541   1.559   6.638   2.019
12767WAT      O38542   3.358   6.449   6.219
12767WAT     H138543   3.429   6.427   6.152
12767WAT     H238544   3.298   6.519   6.182
12768WAT      O38545   3.285   0.588   8.862
12768WAT     H138546   3.304   0.680   8.897
12768WAT     H238547   3.188   0.579   8.841
12769WAT      O38548   1.549   7.807   4.331
12769WAT     H138549   1.580   7.780   4.240
12769WAT     H238550   1.550   7.906   4.339
12770WAT      O38551   1.627   0.201   7.477
12770WAT     H138552   1.539   0.168   7.510
12770WAT     H238553   1.648   0.289   7.520
12771WAT      O38554   7.713   5.858   7.839
12771WAT     H138555   7.705   5.760   7.860
12771WAT     H238556   7.795   5.894   7.885
12772WAT      O38557   1.570   8.337   4.540
12772WAT     H138558   1.631   8.389   4.600
12772WAT     H238559   1.596   8.351   4.445
12773WAT      O38560   9.525   1.154   2.356
12773WAT     H138561   9.467   1.232   2.333
12773WAT     H238562   9.616   1.188   2.381
12774WAT      O38563   6.024   9.629   6.400
12774WAT     H138564   5.934   9.585   6.392
12774WAT     H238565   6.045   9.644   6.496
12775WAT      O38566   0.122   2.584   9.853
12775WAT     H138567   0.147   2.680   9.860
12775WAT     H238568   0.030   2.570   9.888
12776WAT      O38569   4.183   2.968   4.968
12776WAT     H138570   4.120   3.044   4.950
12776WAT     H238571   4.267   2.981   4.916
12777WAT      O38572   3.232   6.670   6.878
12777WAT     H138573   3.301   6.607   6.915
12777WAT     H238574   3.193   6.725   6.951
12778WAT      O38575   1.092   4.378   1.730
12778WAT     H138576   1.174   4.392   1.675
12778WAT     H238577   1.111   4.401   1.825
12779WAT      O38578   4.430   0.627   0.586
12779WAT     H138579   4.512   0.571   0.576
12779WAT     H238580   4.454   0.715   0.628
12780WAT      O38581   6.432   8.131   3.243
12780WAT     H138582   6.504   8.164   3.181
12780WAT     H238583   6.435   8.184   3.328
12781WAT      O38584   2.748   5.842   9.036
12781WAT     H138585   2.829   5.832   8.979
12781WAT     H238586   2.668   5.859   8.978
12782WAT      O38587   0.438   1.857   4.676
12782WAT     H138588   0.455   1.919   4.599
12782WAT     H238589   0.454   1.762   4.646
12783WAT      O38590   2.163   6.842   9.313
12783WAT     H138591   2.167   6.815   9.410
12783WAT     H238592   2.185   6.763   9.256
12784WAT      O38593   8.901   1.430   2.834
12784WAT     H138594   8.962   1.490   2.887
12784WAT     H238595   8.948   1.345   2.812
12785WAT      O38596   8.660   5.224   2.384
12785WAT     H138597   8.705   5.160   2.447
12785WAT     H238598   8.588   5.273   2.433
12786WAT      O38599   1.435   2.266   2.354
12786WAT     H138600   1.477   2.356   2.368
12786WAT     H238601   1.347   2.276   2.309
12787WAT      O38602   3.928   4.737   9.891
12787WAT     H138603   3.857   4.684   9.846
12787WAT     H238604   4.012   4.734   9.837
12788WAT      O38605   2.555   9.801   2.913
12788WAT     H138606   2.506   9.778   2.998
12788WAT     H238607   2.551   9.899   2.897
12789WAT      O38608   7.752   3.025   6.907
12789WAT     H138609   7.751   3.095   6.836
12789WAT     H238610   7.824   3.046   6.973
12790WAT      O38611   1.725   6.366   2.047
12790WAT     H138612   1.751   6.461   2.065
12790WAT     H238613   1.805   6.307   2.056
12791WAT      O38614   5.656   2.751   1.990
12791WAT     H138615   5.752   2.758   2.019
12791WAT     H238616   5.600   2.814   2.043
12792WAT      O38617   1.261   2.019   8.656
12792WAT     H138618   1.237   1.922   8.667
12792WAT     H238619   1.255   2.043   8.559
12793WAT      O38620   3.210   0.959   1.810
12793WAT     H138621   3.216   0.860   1.824
12793WAT     H238622   3.278   1.005   1.868
12794WAT      O38623   7.750   1.163   3.962
12794WAT     H138624   7.813   1.240   3.976
12794WAT     H238625   7.696   1.179   3.880
12795WAT      O38626   0.770   2.089   5.901
12795WAT     H138627   0.734   2.162   5.959
12795WAT     H238628   0.702   2.017   5.891
12796WAT      O38629   4.051   2.853   5.213
12796WAT     H138630   4.051   2.755   5.191
12796WAT     H238631   4.066   2.905   5.129
12797WAT      O38632   5.327   9.714   6.248
12797WAT     H138633   5.302   9.768   6.329
12797WAT     H238634   5.245   9.699   6.192
12798WAT      O38635   5.151   6.794   8.487
12798WAT     H138636   5.202   6.859   8.432
12798WAT     H238637   5.071   6.762   8.436
12799WAT      O38638   8.984   3.762   8.936
12799WAT     H138639   8.973   3.681   8.994
12799WAT     H238640   9.037   3.832   8.985
12800WAT      O38641   1.835   8.292   7.292
12800WAT     H138642   1.913   8.266   7.349
12800WAT     H238643   1.848   8.257   7.200
12801WAT      O38644   3.498   0.232   6.679
12801WAT     H138645   3.466   0.164   6.612
12801WAT     H238646   3.492   0.194   6.771
12802WAT      O38647   7.132   6.140   3.025
12802WAT     H138648   7.187   6.180   2.952
12802WAT     H238649   7.037   6.133   2.995
12803WAT      O38650   8.195   8.074   0.336
12803WAT     H138651   8.109   8.106   0.377
12803WAT     H238652   8.192   7.975   0.326
12804WAT      O38653   3.227   0.656   1.282
12804WAT     H138654   3.155   0.716   1.247
12804WAT     H238655   3.186   0.570   1.314
12805WAT      O38656   8.153   0.593   0.220
12805WAT     H138657   8.059   0.567   0.242
12805WAT     H238658   8.192   0.526   0.157
12806WAT      O38659   6.990   8.908   4.285
12806WAT     H138660   7.076   8.930   4.241
12806WAT     H238661   6.954   8.822   4.248
12807WAT      O38662   2.910   2.832   2.740
12807WAT     H138663   2.861   2.827   2.653
12807WAT     H238664   2.911   2.927   2.772
12808WAT      O38665   5.361   1.859   0.079
12808WAT     H138666   5.358   1.830   0.174
12808WAT     H238667   5.456   1.875   0.052
12809WAT      O38668   9.815   2.333   9.670
12809WAT     H138669   9.744   2.398   9.646
12809WAT     H238670   9.903   2.380   9.679
12810WAT      O38671   2.747   7.581   1.467
12810WAT     H138672   2.738   7.635   1.551
12810WAT     H238673   2.824   7.519   1.476
12811WAT      O38674   9.403   3.618   4.620
12811WAT     H138675   9.379   3.523   4.604
12811WAT     H238676   9.485   3.641   4.567
12812WAT      O38677   8.834   9.320   5.961
12812WAT     H138678   8.815   9.417   5.977
12812WAT     H238679   8.756   9.266   5.993
12813WAT      O38680   6.434   8.582   6.594
12813WAT     H138681   6.449   8.680   6.607
12813WAT     H238682   6.476   8.531   6.669
12814WAT      O38683   9.756   0.574   9.552
12814WAT     H138684   9.848   0.543   9.579
12814WAT     H238685   9.730   0.652   9.609
12815WAT      O38686   0.483   7.904   5.964
12815WAT     H138687   0.413   7.975   5.952
12815WAT     H238688   0.441   7.823   6.007
12816WAT      O38689   4.652   1.057   9.334
12816WAT     H138690   4.570   1.007   9.360
12816WAT     H238691   4.649   1.078   9.236
12817WAT      O38692   4.211   6.488   2.130
12817WAT     H138693   4.234   6.453   2.039
12817WAT     H238694   4.253   6.577   2.144
12818WAT      O38695   8.143   3.619   9.492
12818WAT     H138696   8.091   3.663   9.418
12818WAT     H238697   8.195   3.689   9.541
12819WAT      O38698   0.212   5.586   6.209
12819WAT     H138699   0.200   5.603   6.307
12819WAT     H238700   0.158   5.507   6.183
12820WAT      O38701   2.319   3.327   9.120
12820WAT     H138702   2.236   3.288   9.079
12820WAT     H238703   2.315   3.427   9.113
12821WAT      O38704   5.598   1.226   6.933
12821WAT     H138705   5.499   1.232   6.925
12821WAT     H238706   5.633   1.154   6.874
12822WAT      O38707   1.800   2.871   0.697
12822WAT     H138708   1.864   2.917   0.634
12822WAT     H238709   1.793   2.775   0.673
12823WAT      O38710   0.587   1.676   9.553
12823WAT     H138711   0.602   1.745   9.624
12823WAT     H238712   0.632   1.706   9.469
12824WAT      O38713   8.340   1.442   2.412
12824WAT     H138714   8.426   1.493   2.423
12824WAT     H238715   8.360   1.345   2.400
12825WAT      O38716   9.495   6.713   3.973
12825WAT     H138717   9.543   6.800   3.980
12825WAT     H238718   9.396   6.728   3.985
12826WAT      O38719   4.574   9.735   2.158
12826WAT     H138720   4.620   9.650   2.181
12826WAT     H238721   4.514   9.721   2.079
12827WAT      O38722   6.786   5.128   8.988
12827WAT     H138723   6.743   5.186   9.057
12827WAT     H238724   6.735   5.136   8.902
12828WAT      O38725   0.203   2.938   2.348
12828WAT     H138726   0.135   2.926   2.276
12828WAT     H238727   0.186   3.026   2.395
12829WAT      O38728   4.504   6.878   2.558
12829WAT     H138729   4.516   6.843   2.650
12829WAT     H238730   4.489   6.802   2.495
12830WAT      O38731   5.678   6.492   4.434
12830WAT     H138732   5.604   6.509   4.500
12830WAT     H238733   5.663   6.403   4.390
12831WAT      O38734   1.203   2.295   5.731
12831WAT     H138735   1.240   2.213   5.688
12831WAT     H238736   1.151   2.269   5.813
12832WAT      O38737   8.444   2.908   6.012
12832WAT     H138738   8.369   2.876   5.954
12832WAT     H238739   8.429   2.877   6.106
12833WAT      O38740   0.270   7.558   8.302
12833WAT     H138741   0.218   7.640   8.326
12833WAT     H238742   0.339   7.582   8.233
12834WAT      O38743   6.277   7.096   2.365
12834WAT     H138744   6.237   7.034   2.298
12834WAT     H238745   6.357   7.053   2.407
12835WAT      O38746   8.753   2.088   4.139
12835WAT     H138747   8.831   2.028   4.119
12835WAT     H238748   8.675   2.032   4.170
12836WAT      O38749   6.663   1.906   3.695
12836WAT     H138750   6.715   1.823   3.676
12836WAT     H238751   6.620   1.938   3.610
12837WAT      O38752   0.650   7.021   6.640
12837WAT     H138753   0.559   6.992   6.611
12837WAT     H238754   0.673   6.976   6.727
12838WAT      O38755   8.029   9.062   9.265
12838WAT     H138756   7.998   8.969   9.285
12838WAT     H238757   8.107   9.058   9.203
12839WAT      O38758   7.690   7.477   1.767
12839WAT     H138759   7.676   7.572   1.738
12839WAT     H238760   7.679   7.470   1.866
12840WAT      O38761   7.473   9.501   5.004
12840WAT     H138762   7.529   9.448   5.068
12840WAT     H238763   7.376   9.487   5.025
12841WAT      O38764   0.959   1.216   9.816
12841WAT     H138765   0.955   1.268   9.901
12841WAT     H238766   0.868   1.211   9.775
12842WAT      O38767   7.198   5.861   5.924
12842WAT     H138768   7.241   5.927   5.863
12842WAT     H238769   7.158   5.787   5.870
12843WAT      O38770   0.639   3.850   4.822
12843WAT     H138771   0.629   3.753   4.844
12843WAT     H238772   0.717   3.888   4.874
12844WAT      O38773   5.896   4.175   9.049
12844WAT     H138774   5.809   4.172   9.097
12844WAT     H238775   5.968   4.203   9.112
12845WAT      O38776   2.380   9.139   0.377
12845WAT     H138777   2.353   9.061   0.433
12845WAT     H238778   2.432   9.108   0.298
12846WAT      O38779   0.314   6.522   7.164
12846WAT     H138780   0.364   6.608   7.171
12846WAT     H238781   0.296   6.502   7.068
12847WAT      O38782   8.023   9.522   2.791
12847WAT     H138783   7.997   9.430   2.819
12847WAT     H238784   7.981   9.544   2.703
12848WAT      O38785   8.936   0.521   0.386
12848WAT     H138786   8.956   0.426   0.410
12848WAT     H238787   8.897   0.568   0.465
12849WAT      O38788   4.901   3.319   2.761
12849WAT     H138789   4.835   3.245   2.756
12849WAT     H238790   4.923   3.339   2.856
12850WAT      O38791   3.826   4.009   3.227
12850WAT     H138792   3.853   3.941   3.158
12850WAT     H238793   3.895   4.081   3.231
12851WAT      O38794   3.424   7.756   9.053
12851WAT     H138795   3.427   7.813   8.971
12851WAT     H238796   3.384   7.667   9.030
12852WAT      O38797   8.276   9.339   6.865
12852WAT     H138798   8.182   9.336   6.831
12852WAT     H238799   8.340   9.332   6.788
12853WAT      O38800   9.324   2.852   4.591
12853WAT     H138801   9.327   2.771   4.648
12853WAT     H238802   9.306   2.826   4.496
12854WAT      O38803   5.546   0.787   1.157
12854WAT     H138804   5.533   0.701   1.109
12854WAT     H238805   5.573   0.769   1.252
12855WAT      O38806   5.804   3.902   2.544
12855WAT     H138807   5.738   3.850   2.490
12855WAT     H238808   5.826   3.850   2.627
12856WAT      O38809   5.005   8.030   0.548
12856WAT     H138810   4.936   7.996   0.484
12856WAT     H238811   4.988   8.126   0.568
12857WAT      O38812   3.905   2.502   0.952
12857WAT     H138813   3.837   2.575   0.952
12857WAT     H238814   3.881   2.434   1.021
12858WAT      O38815   5.663   0.007   7.840
12858WAT     H138816   5.634   0.102   7.834
12858WAT     H238817   5.594  -0.047   7.887
12859WAT      O38818   8.308   4.543   2.321
12859WAT     H138819   8.377   4.612   2.301
12859WAT     H238820   8.250   4.529   2.240
12860WAT      O38821   5.221   3.731   7.717
12860WAT     H138822   5.269   3.681   7.789
12860WAT     H238823   5.287   3.769   7.653
12861WAT      O38824   6.007   4.489   1.858
12861WAT     H138825   5.967   4.473   1.948
12861WAT     H238826   6.010   4.403   1.807
12862WAT      O38827   3.408   7.525   1.921
12862WAT     H138828   3.375   7.585   1.994
12862WAT     H238829   3.459   7.449   1.961
12863WAT      O38830   1.580   2.033   3.099
12863WAT     H138831   1.631   1.949   3.116
12863WAT     H238832   1.580   2.052   3.000
12864WAT      O38833   6.941   6.684   9.112
12864WAT     H138834   6.919   6.723   9.023
12864WAT     H238835   7.031   6.716   9.141
12865WAT      O38836   6.659   8.349   7.304
12865WAT     H138837   6.603   8.293   7.364
12865WAT     H238838   6.712   8.290   7.243
12866WAT      O38839   5.741   4.905   6.191
12866WAT     H138840   5.661   4.963   6.174
12866WAT     H238841   5.823   4.948   6.152
12867WAT      O38842   7.824   6.339   9.357
12867WAT     H138843   7.862   6.277   9.288
12867WAT     H238844   7.843   6.434   9.330
12868WAT      O38845   1.043   7.332   5.367
12868WAT     H138846   1.069   7.425   5.341
12868WAT     H238847   0.947   7.330   5.394
12869WAT      O38848   4.205   0.169   6.940
12869WAT     H138849   4.285   0.159   6.880
12869WAT     H238850   4.122   0.149   6.888
12870WAT      O38851   2.810   4.822   7.421
12870WAT     H138852   2.736   4.788   7.363
12870WAT     H238853   2.892   4.767   7.405
12871WAT      O38854   2.419   8.909   7.340
12871WAT     H138855   2.462   8.946   7.258
12871WAT     H238856   2.373   8.823   7.319
12872WAT      O38857   7.853   7.447   8.078
12872WAT     H138858   7.812   7.358   8.096
12872WAT     H238859   7.862   7.461   7.980
12873WAT      O38860   0.291   1.516   1.052
12873WAT     H138861   0.390   1.501   1.059
12873WAT     H238862   0.274   1.599   0.999
12874WAT      O38863   3.724   3.211   2.524
12874WAT     H138864   3.687   3.300   2.498
12874WAT     H238865   3.787   3.179   2.453
12875WAT      O38866   5.580   5.184   3.417
12875WAT     H138867   5.649   5.121   3.452
12875WAT     H238868   5.496   5.134   3.399
12876WAT      O38869   9.846   7.944   0.226
12876WAT     H138870   9.772   7.877   0.219
12876WAT     H238871   9.902   7.942   0.143
12877WAT      O38872   1.434   4.740   9.144
12877WAT     H138873   1.491   4.659   9.126
12877WAT     H238874   1.456   4.776   9.234
12878WAT      O38875   5.874   0.470   9.530
12878WAT     H138876   5.805   0.533   9.566
12878WAT     H238877   5.965   0.498   9.561
12879WAT      O38878   5.504   3.428   9.289
12879WAT     H138879   5.408   3.400   9.282
12879WAT     H238880   5.531   3.477   9.206
12880WAT      O38881   1.737   5.640   6.226
12880WAT     H138882   1.767   5.554   6.184
12880WAT     H238883   1.647   5.665   6.190
12881WAT      O38884   3.269   6.839   5.744
12881WAT     H138885   3.211   6.791   5.678
12881WAT     H238886   3.227   6.926   5.769
12882WAT      O38887   3.390   2.058   2.926
12882WAT     H138888   3.297   2.020   2.931
12882WAT     H238889   3.407   2.092   2.833
12883WAT      O38890   7.285   0.379   4.331
12883WAT     H138891   7.277   0.435   4.414
12883WAT     H238892   7.380   0.353   4.317
12884WAT      O38893   9.115   9.287   9.125
12884WAT     H138894   9.062   9.367   9.151
12884WAT     H238895   9.090   9.261   9.031
12885WAT      O38896   6.283   9.167   9.826
12885WAT     H138897   6.190   9.130   9.819
12885WAT     H238898   6.285   9.241   9.893
12886WAT      O38899   9.275   0.974   5.951
12886WAT     H138900   9.191   1.024   5.973
12886WAT     H238901   9.340   1.037   5.908
12887WAT      O38902   7.329   6.463   2.820
12887WAT     H138903   7.251   6.505   2.774
12887WAT     H238904   7.396   6.534   2.844
12888WAT      O38905   5.385   8.891   4.531
12888WAT     H138906   5.343   8.835   4.460
12888WAT     H238907   5.466   8.845   4.566
12889WAT      O38908   5.050   7.025   0.017
12889WAT     H138909   5.057   6.958  -0.057
12889WAT     H238910   5.091   6.989   0.100
12890WAT      O38911   0.922   8.337   3.729
12890WAT     H138912   1.003   8.359   3.784
12890WAT     H238913   0.950   8.306   3.639
12891WAT      O38914   9.647   4.369   5.905
12891WAT     H138915   9.726   4.429   5.920
12891WAT     H238916   9.588   4.410   5.835
12892WAT      O38917   4.029   3.516   3.505
12892WAT     H138918   4.117   3.478   3.475
12892WAT     H238919   3.962   3.442   3.513
12893WAT      O38920   8.005   1.082   5.613
12893WAT     H138921   8.059   1.077   5.528
12893WAT     H238922   8.065   1.065   5.691
12894WAT      O38923   4.077   9.004   9.614
12894WAT     H138924   4.162   9.055   9.623
12894WAT     H238925   4.071   8.936   9.687
12895WAT      O38926   9.631   6.938   0.888
12895WAT     H138927   9.568   6.975   0.819
12895WAT     H238928   9.681   7.013   0.931
12896WAT      O38929   2.745   7.280   0.255
12896WAT     H138930   2.806   7.213   0.213
12896WAT     H238931   2.799   7.359   0.286
12897WAT      O38932   8.299   1.963   0.702
12897WAT     H138933   8.242   1.937   0.625
12897WAT     H238934   8.332   1.881   0.749
12898WAT      O38935   6.614   1.949   8.796
12898WAT     H138936   6.650   1.895   8.871
12898WAT     H238937   6.660   2.038   8.794
12899WAT      O38938   9.588   4.588   2.778
12899WAT     H138939   9.616   4.556   2.687
12899WAT     H238940   9.601   4.513   2.844
12900WAT      O38941   0.774   6.553   2.998
12900WAT     H138942   0.805   6.639   3.040
12900WAT     H238943   0.736   6.494   3.068
12901WAT      O38944   3.774   1.016   3.341
12901WAT     H138945   3.857   0.960   3.350
12901WAT     H238946   3.698   0.960   3.309
12902WAT      O38947   6.401   1.411   0.743
12902WAT     H138948   6.428   1.334   0.801
12902WAT     H238949   6.416   1.387   0.647
12903WAT      O38950   9.449   2.727   7.216
12903WAT     H138951   9.374   2.663   7.228
12903WAT     H238952   9.413   2.818   7.195
12904WAT      O38953   7.371   2.729   0.750
12904WAT     H138954   7.421   2.647   0.722
12904WAT     H238955   7.275   2.706   0.764
12905WAT      O38956   2.782   6.373   4.346
12905WAT     H138957   2.687   6.360   4.377
12905WAT     H238958   2.844   6.329   4.411
12906WAT      O38959   6.633   3.927   0.831
12906WAT     H138960   6.541   3.896   0.806
12906WAT     H238961   6.697   3.904   0.758
12907WAT      O38962   0.945   9.650   8.056
12907WAT     H138963   0.926   9.554   8.034
12907WAT     H238964   0.970   9.699   7.973
12908WAT      O38965   9.136   1.467   9.221
12908WAT     H138966   9.038   1.446   9.221
12908WAT     H238967   9.149   1.566   9.225
12909WAT      O38968   1.418   3.906   9.271
12909WAT     H138969   1.400   4.003   9.289
12909WAT     H238970   1.425   3.892   9.172
12910WAT      O38971   4.922   2.129   2.543
12910WAT     H138972   5.013   2.120   2.501
12910WAT     H238973   4.858   2.071   2.493
12911WAT      O38974   2.769   5.615   4.308
12911WAT     H138975   2.806   5.528   4.275
12911WAT     H238976   2.781   5.622   4.407
12912WAT      O38977   8.666   6.629   8.739
12912WAT     H138978   8.764   6.624   8.760
12912WAT     H238979   8.639   6.725   8.731
12913WAT      O38980   0.302   4.859   5.515
12913WAT     H138981   0.337   4.809   5.594
12913WAT     H238982   0.347   4.948   5.510
12914WAT      O38983   2.216   5.832   1.151
12914WAT     H138984   2.129   5.810   1.108
12914WAT     H238985   2.205   5.913   1.209
12915WAT      O38986   1.712   5.728   5.663
12915WAT     H138987   1.628   5.677   5.680
12915WAT     H238988   1.708   5.815   5.712
12916WAT      O38989   0.134   5.072   9.267
12916WAT     H138990   0.091   4.982   9.264
12916WAT     H238991   0.063   5.142   9.274
12917WAT      O38992   5.921   1.136   6.157
12917WAT     H138993   5.889   1.068   6.222
12917WAT     H238994   5.927   1.095   6.066
12918WAT      O38995   7.176   4.014   7.081
12918WAT     H138996   7.111   4.065   7.024
12918WAT     H238997   7.268   4.024   7.043
12919WAT      O38998   1.112   4.923   4.025
12919WAT     H138999   1.171   5.003   4.016
12919WAT     H239000   1.168   4.842   4.042
12920WAT      O39001   5.309   5.111   6.567
12920WAT     H139002   5.331   5.177   6.496
12920WAT     H239003   5.349   5.140   6.654
12921WAT      O39004   5.674   7.187   9.195
12921WAT     H139005   5.650   7.143   9.282
12921WAT     H239006   5.640   7.131   9.119
12922WAT      O39007   8.890   7.717   9.691
12922WAT     H139008   8.793   7.704   9.670
12922WAT     H239009   8.937   7.752   9.610
12923WAT      O39010   4.956   8.807   0.027
12923WAT     H139011   4.973   8.781  -0.068
12923WAT     H239012   5.014   8.754   0.088
12924WAT      O39013   1.804   6.411   5.356
12924WAT     H139014   1.752   6.327   5.342
12924WAT     H239015   1.778   6.479   5.288
12925WAT      O39016   0.913   0.634   3.775
12925WAT     H139017   0.918   0.544   3.731
12925WAT     H239018   0.989   0.644   3.838
12926WAT      O39019   3.910   1.270   4.407
12926WAT     H139020   3.861   1.187   4.381
12926WAT     H239021   4.005   1.247   4.430
12927WAT      O39022   0.703   7.445   4.116
12927WAT     H139023   0.628   7.510   4.100
12927WAT     H239024   0.702   7.375   4.044
12928WAT      O39025   2.644   6.822   1.864
12928WAT     H139026   2.712   6.755   1.834
12928WAT     H239027   2.556   6.778   1.875
12929WAT      O39028   1.825   7.566   5.833
12929WAT     H139029   1.882   7.636   5.791
12929WAT     H239030   1.756   7.609   5.892
12930WAT      O39031   2.873   0.021   9.715
12930WAT     H139032   2.868   0.119   9.736
12930WAT     H239033   2.801  -0.028   9.765
12931WAT      O39034   1.383   4.867   2.224
12931WAT     H139035   1.462   4.928   2.220
12931WAT     H239036   1.345   4.855   2.132
12932WAT      O39037   0.274   0.239   1.957
12932WAT     H139038   0.222   0.315   1.996
12932WAT     H239039   0.372   0.255   1.972
12933WAT      O39040   1.657   0.618   3.188
12933WAT     H139041   1.752   0.621   3.155
12933WAT     H239042   1.595   0.616   3.110
12934WAT      O39043   0.639   2.360   5.683
12934WAT     H139044   0.702   2.287   5.656
12934WAT     H239045   0.553   2.320   5.714
12935WAT      O39046   4.078   3.743   2.833
12935WAT     H139047   4.036   3.722   2.921
12935WAT     H239048   4.100   3.658   2.785
12936WAT      O39049   9.533   4.948   8.163
12936WAT     H139050   9.542   5.008   8.083
12936WAT     H239051   9.484   4.996   8.236
12937WAT      O39052   4.354   3.271   3.593
12937WAT     H139053   4.315   3.335   3.527
12937WAT     H239054   4.434   3.312   3.637
12938WAT      O39055   9.803   9.147   1.911
12938WAT     H139056   9.720   9.198   1.935
12938WAT     H239057   9.872   9.211   1.876
12939WAT      O39058   5.657   7.488   1.027
12939WAT     H139059   5.727   7.550   1.062
12939WAT     H239060   5.589   7.540   0.975
12940WAT      O39061   5.053   1.988   7.394
12940WAT     H139062   5.122   1.977   7.322
12940WAT     H239063   5.024   1.897   7.425
12941WAT      O39064   5.407   2.063   6.687
12941WAT     H139065   5.468   2.036   6.612
12941WAT     H239066   5.349   2.139   6.657
12942WAT      O39067   6.711   4.927   1.496
12942WAT     H139068   6.683   4.930   1.592
12942WAT     H239069   6.800   4.883   1.489
12943WAT      O39070   2.412   5.030   6.738
12943WAT     H139071   2.372   5.039   6.829
12943WAT     H239072   2.344   4.990   6.676
12944WAT      O39073   0.577   7.368   8.401
12944WAT     H139074   0.480   7.353   8.420
12944WAT     H239075   0.617   7.425   8.474
12945WAT      O39076   7.596   5.450   9.729
12945WAT     H139077   7.566   5.355   9.735
12945WAT     H239078   7.519   5.511   9.747
12946WAT      O39079   6.206   3.430   9.328
12946WAT     H139080   6.285   3.385   9.371
12946WAT     H239081   6.231   3.522   9.300
12947WAT      O39082   1.381   0.166   7.239
12947WAT     H139083   1.481   0.160   7.236
12947WAT     H239084   1.352   0.180   7.334
12948WAT      O39085   5.016   7.023   9.001
12948WAT     H139086   4.959   6.955   9.045
12948WAT     H239087   5.097   6.980   8.963
12949WAT      O39088   3.539   2.653   3.422
12949WAT     H139089   3.552   2.555   3.440
12949WAT     H239090   3.586   2.706   3.492
12950WAT      O39091   8.115   1.285   2.279
12950WAT     H139092   8.133   1.344   2.359
12950WAT     H239093   8.092   1.343   2.201
12951WAT      O39094   6.173   6.409   1.787
12951WAT     H139095   6.244   6.370   1.846
12951WAT     H239096   6.085   6.409   1.836
12952WAT      O39097   6.554   1.688   2.869
12952WAT     H139098   6.544   1.741   2.784
12952WAT     H239099   6.608   1.606   2.851
12953WAT      O39100   9.598   5.255   8.886
12953WAT     H139101   9.670   5.195   8.921
12953WAT     H239102   9.638   5.341   8.854
12954WAT      O39103   6.698   7.262   6.690
12954WAT     H139104   6.659   7.173   6.668
12954WAT     H239105   6.655   7.332   6.633
12955WAT      O39106   2.341   3.706   8.682
12955WAT     H139107   2.387   3.712   8.770
12955WAT     H239108   2.370   3.782   8.623
12956WAT      O39109   6.462   2.394   5.706
12956WAT     H139110   6.464   2.424   5.610
12956WAT     H239111   6.440   2.297   5.710
12957WAT      O39112   2.499   7.450   3.431
12957WAT     H139113   2.487   7.370   3.372
12957WAT     H239114   2.539   7.420   3.518
12958WAT      O39115   2.266   3.706   2.396
12958WAT     H139116   2.205   3.643   2.442
12958WAT     H239117   2.249   3.703   2.297
12959WAT      O39118   1.358   6.526   2.891
12959WAT     H139119   1.423   6.476   2.948
12959WAT     H239120   1.375   6.506   2.794
12960WAT      O39121   6.866   7.683   8.381
12960WAT     H139122   6.769   7.690   8.404
12960WAT     H239123   6.911   7.620   8.444
12961WAT      O39124   7.947   6.663   6.593
12961WAT     H139125   7.901   6.746   6.558
12961WAT     H239126   7.937   6.590   6.526
12962WAT      O39127   1.894   1.729   1.324
12962WAT     H139128   1.798   1.725   1.351
12962WAT     H239129   1.934   1.815   1.354
12963WAT      O39130   1.890   1.543   4.371
12963WAT     H139131   1.869   1.465   4.429
12963WAT     H239132   1.815   1.559   4.308
12964WAT      O39133   2.776   0.167   7.317
12964WAT     H139134   2.765   0.181   7.416
12964WAT     H239135   2.766   0.070   7.296
12965WAT      O39136   7.860   8.850   0.158
12965WAT     H139137   7.797   8.869   0.233
12965WAT     H239138   7.867   8.751   0.144
12966WAT      O39139   7.671   9.350   9.521
12966WAT     H139140   7.696   9.347   9.425
12966WAT     H239141   7.589   9.295   9.536
12967WAT      O39142   4.252   8.121   2.830
12967WAT     H139143   4.263   8.220   2.842
12967WAT     H239144   4.254   8.099   2.733
12968WAT      O39145   3.954   7.967   2.029
12968WAT     H139146   4.019   8.044   2.031
12968WAT     H239147   3.954   7.922   2.118
12969WAT      O39148   0.143   0.629   5.800
12969WAT     H139149   0.205   0.614   5.723
12969WAT     H239150   0.061   0.677   5.768
12970WAT      O39151   7.027   9.656   6.612
12970WAT     H139152   7.074   9.643   6.524
12970WAT     H239153   6.939   9.608   6.610
12971WAT      O39154   2.017   3.334   5.709
12971WAT     H139155   1.933   3.387   5.707
12971WAT     H239156   2.034   3.295   5.619
12972WAT      O39157   7.214   6.123   1.411
12972WAT     H139158   7.135   6.082   1.455
12972WAT     H239159   7.290   6.128   1.476
12973WAT      O39160   8.923   8.073   3.557
12973WAT     H139161   9.015   8.036   3.569
12973WAT     H239162   8.914   8.111   3.465
12974WAT      O39163   4.233   5.139   1.770
12974WAT     H139164   4.318   5.139   1.717
12974WAT     H239165   4.250   5.097   1.860
12975WAT      O39166   3.146   1.432   9.684
12975WAT     H139167   3.076   1.480   9.737
12975WAT     H239168   3.224   1.492   9.669
12976WAT      O39169   2.013   6.033   8.307
12976WAT     H139170   2.110   6.010   8.306
12976WAT     H239171   1.974   6.008   8.396
12977WAT      O39172   1.092   4.538   1.305
12977WAT     H139173   1.107   4.442   1.325
12977WAT     H239174   1.179   4.587   1.305
12978WAT      O39175   9.400   9.769   9.454
12978WAT     H139176   9.391   9.794   9.357
12978WAT     H239177   9.433   9.675   9.461
12979WAT      O39178   8.867   3.068   5.042
12979WAT     H139179   8.954   3.019   5.035
12979WAT     H239180   8.843   3.080   5.139
12980WAT      O39181   0.893   0.942   7.077
12980WAT     H139182   0.853   1.022   7.032
12980WAT     H239183   0.827   0.868   7.078
12981WAT      O39184   5.338   9.511   6.515
12981WAT     H139185   5.281   9.592   6.527
12981WAT     H239186   5.403   9.505   6.591
12982WAT      O39187   0.785   4.234   3.631
12982WAT     H139188   0.718   4.303   3.659
12982WAT     H239189   0.849   4.275   3.566
12983WAT      O39190   1.324   7.847   9.480
12983WAT     H139191   1.353   7.763   9.435
12983WAT     H239192   1.250   7.889   9.428
12984WAT      O39193   7.572   1.181   1.048
12984WAT     H139194   7.560   1.100   0.992
12984WAT     H239195   7.593   1.260   0.990
12985WAT      O39196   6.478   6.951   2.471
12985WAT     H139197   6.449   6.874   2.528
12985WAT     H239198   6.540   7.010   2.524
12986WAT      O39199   8.131   5.355   4.717
12986WAT     H139200   8.156   5.259   4.705
12986WAT     H239201   8.198   5.399   4.777
12987WAT      O39202   7.038   7.298   5.147
12987WAT     H139203   7.056   7.361   5.223
12987WAT     H239204   6.955   7.327   5.099
12988WAT      O39205   2.892   7.582   3.433
12988WAT     H139206   2.925   7.497   3.392
12988WAT     H239207   2.802   7.604   3.395
12989WAT      O39208   1.728   7.065   3.024
12989WAT     H139209   1.818   7.061   2.981
12989WAT     H239210   1.658   7.077   2.954
12990WAT      O39211   9.366   0.364   4.705
12990WAT     H139212   9.278   0.409   4.701
12990WAT     H239213   9.356   0.268   4.679
12991WAT      O39214   2.757   8.882   8.966
12991WAT     H139215   2.780   8.827   8.886
12991WAT     H239216   2.753   8.823   9.047
12992WAT      O39217   9.649   7.317   3.996
12992WAT     H139218   9.730   7.275   3.955
12992WAT     H239219   9.657   7.315   4.096
12993WAT      O39220   7.015   8.523   4.597
12993WAT     H139221   6.973   8.485   4.680
12993WAT     H239222   7.012   8.454   4.524
12994WAT      O39223   4.603   8.835   6.156
12994WAT     H139224   4.615   8.798   6.248
12994WAT     H239225   4.571   8.930   6.163
12995WAT      O39226   5.066   7.297   1.000
12995WAT     H139227   5.027   7.353   1.073
12995WAT     H239228   5.008   7.302   0.919
12996WAT      O39229   0.471   8.086   6.313
12996WAT     H139230   0.379   8.048   6.307
12996WAT     H239231   0.468   8.174   6.361
12997WAT      O39232   0.980   7.757   2.924
12997WAT     H139233   0.910   7.829   2.927
12997WAT     H239234   1.068   7.794   2.955
12998WAT      O39235   1.416   9.662   9.017
12998WAT     H139236   1.475   9.736   8.984
12998WAT     H239237   1.327   9.667   8.972
12999WAT      O39238   4.599   5.472   8.360
12999WAT     H139239   4.538   5.546   8.388
12999WAT     H239240   4.563   5.428   8.278
13000WAT      O39241   4.415   3.681   7.240
13000WAT     H139242   4.319   3.710   7.237
13000WAT     H239243   4.465   3.725   7.166
13001WAT      O39244   0.458   3.264   8.728
13001WAT     H139245   0.511   3.346   8.748
13001WAT     H239246   0.511   3.203   8.670
13002WAT      O39247   4.722   4.935   7.215
13002WAT     H139248   4.696   4.888   7.131
13002WAT     H239249   4.658   5.011   7.231
13003WAT      O39250   1.877   2.648   2.884
13003WAT     H139251   1.855   2.649   2.982
13003WAT     H239252   1.797   2.676   2.831
13004WAT      O39253   2.471   9.551   3.177
13004WAT     H139254   2.386   9.518   3.135
13004WAT     H239255   2.472   9.651   3.175
13005WAT      O39256   5.739   8.517   2.619
13005WAT     H139257   5.816   8.578   2.635
13005WAT     H239258   5.682   8.513   2.701
13006WAT      O39259   2.229   9.425   1.817
13006WAT     H139260   2.307   9.394   1.763
13006WAT     H239261   2.261   9.485   1.891
13007WAT      O39262   9.387   5.601   5.199
13007WAT     H139263   9.408   5.512   5.239
13007WAT     H239264   9.399   5.672   5.269
13008WAT      O39265   0.124   5.520   2.846
13008WAT     H139266   0.172   5.590   2.899
13008WAT     H239267   0.038   5.557   2.811
13009WAT      O39268   7.867   2.529   3.868
13009WAT     H139269   7.924   2.525   3.950
13009WAT     H239270   7.790   2.592   3.884
13010WAT      O39271   4.826   2.474   0.374
13010WAT     H139272   4.922   2.500   0.382
13010WAT     H239273   4.807   2.397   0.434
13011WAT      O39274   2.505   2.451   7.960
13011WAT     H139275   2.407   2.438   7.974
13011WAT     H239276   2.555   2.406   8.033
13012WAT      O39277   4.878   2.565   8.399
13012WAT     H139278   4.905   2.543   8.492
13012WAT     H239279   4.957   2.555   8.338
13013WAT      O39280   7.450   8.872   7.833
13013WAT     H139281   7.534   8.819   7.835
13013WAT     H239282   7.464   8.960   7.878
13014WAT      O39283   6.834   8.073   8.279
13014WAT     H139284   6.771   8.040   8.208
13014WAT     H239285   6.807   8.166   8.306
13015WAT      O39286   5.289   1.258   5.687
13015WAT     H139287   5.316   1.350   5.716
13015WAT     H239288   5.233   1.216   5.758
13016WAT      O39289   6.785   3.066   1.016
13016WAT     H139290   6.815   3.155   0.981
13016WAT     H239291   6.686   3.056   1.002
13017WAT      O39292   2.862   5.161   4.844
13017WAT     H139293   2.859   5.191   4.940
13017WAT     H239294   2.770   5.140   4.813
13018WAT      O39295   9.110   2.687   5.355
13018WAT     H139296   9.186   2.626   5.334
13018WAT     H239297   9.024   2.642   5.330
13019WAT      O39298   8.241   5.832   6.278
13019WAT     H139299   8.163   5.772   6.297
13019WAT     H239300   8.263   5.885   6.359
13020WAT      O39301   2.249   9.183   9.537
13020WAT     H139302   2.280   9.088   9.531
13020WAT     H239303   2.290   9.236   9.463
13021WAT      O39304   7.157   6.883   8.840
13021WAT     H139305   7.216   6.905   8.762
13021WAT     H239306   7.069   6.849   8.807
13022WAT      O39307   3.588   7.571   4.092
13022WAT     H139308   3.619   7.662   4.064
13022WAT     H239309   3.652   7.533   4.159
13023WAT      O39310   2.161   6.705   7.725
13023WAT     H139311   2.077   6.667   7.684
13023WAT     H239312   2.227   6.631   7.739
13024WAT      O39313   5.928   3.110   2.761
13024WAT     H139314   5.847   3.163   2.733
13024WAT     H239315   6.008   3.170   2.763
13025WAT      O39316   5.816   0.961   8.042
13025WAT     H139317   5.898   0.908   8.017
13025WAT     H239318   5.832   1.007   8.130
13026WAT      O39319   7.975   3.595   2.418
13026WAT     H139320   7.954   3.632   2.328
13026WAT     H239321   7.890   3.573   2.466
13027WAT      O39322   3.827   4.317   0.713
13027WAT     H139323   3.760   4.359   0.774
13027WAT     H239324   3.850   4.381   0.640
13028WAT      O39325   3.812   9.517   4.783
13028WAT     H139326   3.883   9.536   4.851
13028WAT     H239327   3.852   9.514   4.692
13029WAT      O39328   6.084   7.138   4.152
13029WAT     H139329   5.994   7.135   4.109
13029WAT     H239330   6.074   7.150   4.250
13030WAT      O39331   3.896   9.029   5.538
13030WAT     H139332   3.802   9.036   5.571
13030WAT     H239333   3.925   9.116   5.499
13031WAT      O39334   0.342   0.300   7.853
13031WAT     H139335   0.376   0.214   7.890
13031WAT     H239336   0.244   0.292   7.834
13032WAT      O39337   0.401   3.180   5.664
13032WAT     H139338   0.431   3.179   5.568
13032WAT     H239339   0.329   3.112   5.677
13033WAT      O39340   2.298   8.382   7.789
13033WAT     H139341   2.278   8.464   7.844
13033WAT     H239342   2.241   8.306   7.821
13034WAT      O39343   8.703   5.083   8.477
13034WAT     H139344   8.752   5.165   8.505
13034WAT     H239345   8.671   5.034   8.559
13035WAT      O39346   8.137   1.053   5.348
13035WAT     H139347   8.075   1.102   5.286
13035WAT     H239348   8.229   1.052   5.309
13036WAT      O39349   4.896   3.855   8.987
13036WAT     H139350   4.890   3.937   8.930
13036WAT     H239351   4.931   3.880   9.077
13037WAT      O39352   5.087   3.662   5.123
13037WAT     H139353   5.072   3.672   5.024
13037WAT     H239354   5.000   3.671   5.171
13038WAT      O39355   5.902   3.812   2.780
13038WAT     H139356   5.861   3.901   2.801
13038WAT     H239357   5.928   3.767   2.865
13039WAT      O39358   0.866   4.840   3.371
13039WAT     H139359   0.955   4.807   3.401
13039WAT     H239360   0.814   4.874   3.450
13040WAT      O39361   2.542   0.145   3.361
13040WAT     H139362   2.615   0.080   3.382
13040WAT     H239363   2.575   0.238   3.371
13041WAT      O39364   2.243   2.790   9.471
13041WAT     H139365   2.223   2.777   9.568
13041WAT     H239366   2.157   2.792   9.420
13042WAT      O39367   6.363   4.475   9.026
13042WAT     H139368   6.405   4.498   8.938
13042WAT     H239369   6.272   4.516   9.031
13043WAT      O39370   8.104   9.661   9.601
13043WAT     H139371   8.155   9.743   9.574
13043WAT     H239372   8.055   9.678   9.686
13044WAT      O39373   1.126   7.529   5.592
13044WAT     H139374   1.125   7.429   5.594
13044WAT     H239375   1.104   7.560   5.499
13045WAT      O39376   0.919   7.732   0.613
13045WAT     H139377   0.921   7.638   0.581
13045WAT     H239378   1.012   7.762   0.637
13046WAT      O39379   1.890   1.528   7.618
13046WAT     H139380   1.874   1.494   7.525
13046WAT     H239381   1.810   1.578   7.650
13047WAT      O39382   6.142   8.996   4.220
13047WAT     H139383   6.201   9.063   4.265
13047WAT     H239384   6.071   8.967   4.285
13048WAT      O39385   9.480   5.577   4.552
13048WAT     H139386   9.565   5.598   4.504
13048WAT     H239387   9.403   5.606   4.496
13049WAT      O39388   5.492   7.584   8.433
13049WAT     H139389   5.540   7.497   8.421
13049WAT     H239390   5.490   7.607   8.530
13050WAT      O39391   8.969   3.522   3.239
13050WAT     H139392   8.903   3.495   3.310
13050WAT     H239393   9.022   3.601   3.272
13051WAT      O39394   3.852   5.114   0.695
13051WAT     H139395   3.877   5.170   0.616
13051WAT     H239396   3.787   5.043   0.666
13052WAT      O39397   5.846   3.497   8.701
13052WAT     H139398   5.885   3.534   8.785
13052WAT     H239399   5.919   3.464   8.641
13053WAT      O39400   5.157   8.931   3.082
13053WAT     H139401   5.102   8.853   3.110
13053WAT     H239402   5.187   8.918   2.987
13054WAT      O39403   4.462   6.088   8.988
13054WAT     H139404   4.535   6.155   8.982
13054WAT     H239405   4.373   6.134   8.983
13055WAT      O39406   8.731   9.378   4.808
13055WAT     H139407   8.732   9.278   4.800
13055WAT     H239408   8.816   9.409   4.849
13056WAT      O39409   1.537   7.097   2.088
13056WAT     H139410   1.582   7.177   2.127
13056WAT     H239411   1.583   7.070   2.003
13057WAT      O39412   9.797   2.018   3.117
13057WAT     H139413   9.821   2.082   3.045
13057WAT     H239414   9.859   2.029   3.195
13058WAT      O39415   6.012   5.516   5.961
13058WAT     H139416   6.107   5.491   5.977
13058WAT     H239417   5.979   5.471   5.878
13059WAT      O39418   1.848   8.678   6.434
13059WAT     H139419   1.761   8.702   6.477
13059WAT     H239420   1.830   8.634   6.346
13060WAT      O39421   7.619   6.376   1.281
13060WAT     H139422   7.619   6.276   1.275
13060WAT     H239423   7.707   6.412   1.250
13061WAT      O39424   7.008   1.542   1.086
13061WAT     H139425   6.959   1.628   1.078
13061WAT     H239426   7.086   1.553   1.148
13062WAT      O39427   2.998   2.094   1.150
13062WAT     H139428   3.064   2.020   1.138
13062WAT     H239429   2.961   2.121   1.061
13063WAT      O39430   2.574   5.232   2.320
13063WAT     H139431   2.556   5.143   2.360
13063WAT     H239432   2.545   5.304   2.384
13064WAT      O39433   9.044   4.914   7.227
13064WAT     H139434   9.097   4.940   7.308
13064WAT     H239435   9.002   4.996   7.187
13065WAT      O39436   6.153   1.837   2.884
13065WAT     H139437   6.245   1.859   2.914
13065WAT     H239438   6.154   1.813   2.787
13066WAT      O39439   1.559   7.909   0.347
13066WAT     H139440   1.531   7.992   0.299
13066WAT     H239441   1.479   7.865   0.388
13067WAT      O39442   4.657   9.613   5.178
13067WAT     H139443   4.716   9.605   5.097
13067WAT     H239444   4.700   9.566   5.255
13068WAT      O39445   7.940   9.310   9.204
13068WAT     H139446   8.029   9.355   9.205
13068WAT     H239447   7.949   9.217   9.238
13069WAT      O39448   5.422   2.372   4.424
13069WAT     H139449   5.369   2.287   4.431
13069WAT     H239450   5.505   2.363   4.480
13070WAT      O39451   9.447   5.350   4.925
13070WAT     H139452   9.396   5.403   4.858
13070WAT     H239453   9.521   5.405   4.963
13071WAT      O39454   5.008   7.884   3.302
13071WAT     H139455   5.003   7.935   3.389
13071WAT     H239456   5.094   7.907   3.256
13072WAT      O39457   6.325   6.854   6.339
13072WAT     H139458   6.299   6.874   6.433
13072WAT     H239459   6.362   6.936   6.296
13073WAT      O39460   1.403   6.800   4.459
13073WAT     H139461   1.390   6.719   4.402
13073WAT     H239462   1.491   6.794   4.506
13074WAT      O39463   0.718   6.273   1.425
13074WAT     H139464   0.813   6.276   1.395
13074WAT     H239465   0.659   6.309   1.353
13075WAT      O39466   1.297   7.894   1.315
13075WAT     H139467   1.291   7.863   1.410
13075WAT     H239468   1.207   7.920   1.283
13076WAT      O39469   2.160   9.482   7.757
13076WAT     H139470   2.069   9.511   7.787
13076WAT     H239471   2.194   9.411   7.819
13077WAT      O39472   8.344   4.682   5.721
13077WAT     H139473   8.407   4.696   5.797
13077WAT     H239474   8.250   4.698   5.752
13078WAT      O39475   6.901   3.491   6.299
13078WAT     H139476   6.823   3.442   6.337
13078WAT     H239477   6.894   3.589   6.322
13079WAT      O39478   4.937   2.253   5.535
13079WAT     H139479   4.976   2.335   5.578
13079WAT     H239480   5.003   2.178   5.540
13080WAT      O39481   1.996   5.798   8.022
13080WAT     H139482   1.945   5.716   8.049
13080WAT     H239483   2.093   5.785   8.042
13081WAT      O39484   0.186   8.001   8.660
13081WAT     H139485   0.101   8.028   8.615
13081WAT     H239486   0.207   8.065   8.734
13082WAT      O39487   3.139   4.001   3.804
13082WAT     H139488   3.121   4.040   3.895
13082WAT     H239489   3.167   3.906   3.814
13083WAT      O39490   8.899   9.235   5.708
13083WAT     H139491   8.910   9.268   5.802
13083WAT     H239492   8.844   9.152   5.709
13084WAT      O39493   8.188   7.113   2.350
13084WAT     H139494   8.152   7.202   2.321
13084WAT     H239495   8.168   7.100   2.447
13085WAT      O39496   5.999   5.295   4.634
13085WAT     H139497   6.065   5.225   4.605
13085WAT     H239498   5.994   5.295   4.734
13086WAT      O39499   2.787   1.183   7.666
13086WAT     H139500   2.697   1.141   7.655
13086WAT     H239501   2.806   1.243   7.588
13087WAT      O39502   5.854   0.822   0.787
13087WAT     H139503   5.935   0.875   0.763
13087WAT     H239504   5.801   0.801   0.705
13088WAT      O39505   0.800   2.677   7.899
13088WAT     H139506   0.806   2.773   7.870
13088WAT     H239507   0.808   2.618   7.818
13089WAT      O39508   8.303   3.313   6.167
13089WAT     H139509   8.352   3.263   6.095
13089WAT     H239510   8.212   3.274   6.178
13090WAT      O39511   5.572   1.532   9.839
13090WAT     H139512   5.599   1.602   9.772
13090WAT     H239513   5.609   1.556   9.928
13091WAT      O39514   7.055   5.995   8.500
13091WAT     H139515   7.014   6.014   8.411
13091WAT     H239516   7.002   5.925   8.548
13092WAT      O39517   2.837   0.372   3.075
13092WAT     H139518   2.845   0.444   3.006
13092WAT     H239519   2.890   0.398   3.156
13093WAT      O39520   9.096   1.185   0.256
13093WAT     H139521   9.072   1.200   0.160
13093WAT     H239522   9.038   1.241   0.314
13094WAT      O39523   9.506   8.018   4.898
13094WAT     H139524   9.424   7.982   4.941
13094WAT     H239525   9.492   8.115   4.874
13095WAT      O39526   1.333   9.338   0.143
13095WAT     H139527   1.355   9.331   0.240
13095WAT     H239528   1.323   9.435   0.118
13096WAT      O39529   2.428   3.358   0.456
13096WAT     H139530   2.515   3.386   0.498
13096WAT     H239531   2.355   3.368   0.524
13097WAT      O39532   3.513   3.247   5.061
13097WAT     H139533   3.530   3.206   4.971
13097WAT     H239534   3.415   3.249   5.079
13098WAT      O39535   4.238   6.408   3.770
13098WAT     H139536   4.203   6.317   3.794
13098WAT     H239537   4.167   6.459   3.722
13099WAT      O39538   2.830   4.145   0.562
13099WAT     H139539   2.791   4.171   0.650
13099WAT     H239540   2.762   4.156   0.490
13100WAT      O39541   4.516   2.585   3.846
13100WAT     H139542   4.522   2.502   3.903
13100WAT     H239543   4.608   2.611   3.816
13101WAT      O39544   4.521   2.754   9.243
13101WAT     H139545   4.522   2.711   9.152
13101WAT     H239546   4.442   2.815   9.249
13102WAT      O39547   4.237   8.818   6.674
13102WAT     H139548   4.272   8.757   6.603
13102WAT     H239549   4.288   8.804   6.759
13103WAT      O39550   7.713   2.594   8.481
13103WAT     H139551   7.789   2.636   8.531
13103WAT     H239552   7.739   2.582   8.385
13104WAT      O39553   8.185   6.917   8.648
13104WAT     H139554   8.208   6.821   8.660
13104WAT     H239555   8.137   6.950   8.729
13105WAT      O39556   9.804   3.569   7.848
13105WAT     H139557   9.841   3.661   7.833
13105WAT     H239558   9.707   3.577   7.873
13106WAT      O39559   2.844   5.752   1.272
13106WAT     H139560   2.818   5.663   1.308
13106WAT     H239561   2.827   5.822   1.341
13107WAT      O39562   8.445   1.288   6.588
13107WAT     H139563   8.520   1.349   6.614
13107WAT     H239564   8.374   1.340   6.541
13108WAT      O39565   7.885   3.944   8.083
13108WAT     H139566   7.936   3.879   8.139
13108WAT     H239567   7.836   4.008   8.143
13109WAT      O39568   3.525   4.549   1.087
13109WAT     H139569   3.465   4.502   1.152
13109WAT     H239570   3.507   4.647   1.091
13110WAT      O39571   3.062   3.597   2.129
13110WAT     H139572   3.097   3.522   2.186
13110WAT     H239573   3.050   3.565   2.035
13111WAT      O39574   5.465   9.013   0.051
13111WAT     H139575   5.541   9.012   0.116
13111WAT     H239576   5.384   9.053   0.095
13112WAT      O39577   1.078   6.990   5.760
13112WAT     H139578   1.151   6.931   5.725
13112WAT     H239579   1.012   6.934   5.810
13113WAT      O39580   7.914   5.758   9.399
13113WAT     H139581   7.899   5.730   9.494
13113WAT     H239582   7.845   5.826   9.374
13114WAT      O39583   0.934   2.628   5.564
13114WAT     H139584   1.018   2.620   5.619
13114WAT     H239585   0.952   2.685   5.484
13115WAT      O39586   7.661   1.185   2.698
13115WAT     H139587   7.582   1.148   2.650
13115WAT     H239588   7.658   1.285   2.696
13116WAT      O39589   1.214   6.981   3.430
13116WAT     H139590   1.140   7.029   3.383
13116WAT     H239591   1.232   7.025   3.518
13117WAT      O39592   6.902   0.233   2.586
13117WAT     H139593   6.867   0.209   2.677
13117WAT     H239594   7.001   0.220   2.585
13118WAT      O39595   9.176   2.649   2.978
13118WAT     H139596   9.188   2.677   2.883
13118WAT     H239597   9.140   2.556   2.981
13119WAT      O39598   9.333   3.765   8.331
13119WAT     H139599   9.416   3.767   8.386
13119WAT     H239600   9.258   3.807   8.383
13120WAT      O39601   8.625   5.855   6.454
13120WAT     H139602   8.706   5.913   6.457
13120WAT     H239603   8.649   5.765   6.418
13121WAT      O39604   0.995   9.383   1.139
13121WAT     H139605   1.010   9.329   1.222
13121WAT     H239606   1.072   9.445   1.126
13122WAT      O39607   7.823   8.765   8.177
13122WAT     H139608   7.766   8.831   8.225
13122WAT     H239609   7.895   8.733   8.239
13123WAT      O39610   0.536   6.877   3.841
13123WAT     H139611   0.560   6.875   3.744
13123WAT     H239612   0.552   6.968   3.878
13124WAT      O39613   9.793   1.616   6.984
13124WAT     H139614   9.871   1.609   6.921
13124WAT     H239615   9.733   1.689   6.953
13125WAT      O39616   2.049   0.973   2.441
13125WAT     H139617   2.088   1.034   2.372
13125WAT     H239618   2.006   0.895   2.395
13126WAT      O39619   1.759   4.150   1.555
13126WAT     H139620   1.808   4.167   1.469
13126WAT     H239621   1.676   4.097   1.536
13127WAT      O39622   4.746   2.141   1.370
13127WAT     H139623   4.845   2.133   1.386
13127WAT     H239624   4.722   2.238   1.364
13128WAT      O39625   9.627   2.973   4.308
13128WAT     H139626   9.548   2.993   4.250
13128WAT     H239627   9.706   3.024   4.275
13129WAT      O39628   7.526   7.050   8.898
13129WAT     H139629   7.581   6.992   8.837
13129WAT     H239630   7.462   7.104   8.843
13130WAT      O39631   7.245   7.678   7.098
13130WAT     H139632   7.313   7.645   7.164
13130WAT     H239633   7.291   7.707   7.014
13131WAT      O39634   5.899   9.666   5.294
13131WAT     H139635   5.944   9.691   5.208
13131WAT     H239636   5.800   9.672   5.283
13132WAT      O39637   2.370   3.289   1.274
13132WAT     H139638   2.393   3.357   1.204
13132WAT     H239639   2.454   3.251   1.313
13133WAT      O39640   2.756   9.496   7.549
13133WAT     H139641   2.758   9.487   7.449
13133WAT     H239642   2.746   9.405   7.590
13134WAT      O39643   5.375   5.354   4.137
13134WAT     H139644   5.434   5.289   4.185
13134WAT     H239645   5.293   5.307   4.106
13135WAT      O39646   2.661   8.555   7.000
13135WAT     H139647   2.726   8.537   7.075
13135WAT     H239648   2.599   8.477   6.991
13136WAT      O39649   6.846   0.194   9.682
13136WAT     H139650   6.826   0.247   9.765
13136WAT     H239651   6.787   0.225   9.608
13137WAT      O39652   1.586   0.747   7.180
13137WAT     H139653   1.625   0.658   7.206
13137WAT     H239654   1.615   0.817   7.245
13138WAT      O39655   4.511   5.665   7.025
13138WAT     H139656   4.446   5.682   6.950
13138WAT     H239657   4.487   5.721   7.104
13139WAT      O39658   8.635   1.465   1.459
13139WAT     H139659   8.560   1.528   1.482
13139WAT     H239660   8.712   1.482   1.520
13140WAT      O39661   3.195   0.656   4.807
13140WAT     H139662   3.187   0.751   4.776
13140WAT     H239663   3.291   0.630   4.811
13141WAT      O39664   3.396   3.135   6.227
13141WAT     H139665   3.470   3.200   6.244
13141WAT     H239666   3.435   3.045   6.207
13142WAT      O39667   6.596   7.408   9.846
13142WAT     H139668   6.578   7.316   9.882
13142WAT     H239669   6.694   7.427   9.852
13143WAT      O39670   1.723   0.210   2.168
13143WAT     H139671   1.724   0.300   2.124
13143WAT     H239672   1.631   0.190   2.201
13144WAT      O39673   2.040   1.574   1.864
13144WAT     H139674   2.071   1.612   1.951
13144WAT     H239675   2.092   1.616   1.789
13145WAT      O39676   9.315   6.686   0.640
13145WAT     H139677   9.361   6.758   0.589
13145WAT     H239678   9.288   6.612   0.578
13146WAT      O39679   5.727   3.132   2.552
13146WAT     H139680   5.753   3.161   2.460
13146WAT     H239681   5.633   3.097   2.550
13147WAT      O39682   7.674   4.073   1.302
13147WAT     H139683   7.608   3.999   1.312
13147WAT     H239684   7.757   4.052   1.353
13148WAT      O39685   7.321   1.163   1.665
13148WAT     H139686   7.373   1.133   1.585
13148WAT     H239687   7.324   1.263   1.670
13149WAT      O39688   8.892   6.552   1.796
13149WAT     H139689   8.919   6.505   1.880
13149WAT     H239690   8.816   6.503   1.753
13150WAT      O39691   6.248   5.405   9.344
13150WAT     H139692   6.345   5.378   9.349
13150WAT     H239693   6.231   5.481   9.406
13151WAT      O39694   2.826   4.757   2.868
13151WAT     H139695   2.799   4.677   2.814
13151WAT     H239696   2.746   4.794   2.915
13152WAT      O39697   2.222   9.420   9.013
13152WAT     H139698   2.122   9.419   9.025
13152WAT     H239699   2.258   9.507   9.044
13153WAT      O39700   9.401   0.807   2.084
13153WAT     H139701   9.375   0.764   2.171
13153WAT     H239702   9.430   0.901   2.101
13154WAT      O39703   3.594   0.223   8.319
13154WAT     H139704   3.583   0.126   8.340
13154WAT     H239705   3.660   0.234   8.244
13155WAT      O39706   3.199   4.423   5.938
13155WAT     H139707   3.130   4.372   5.886
13155WAT     H239708   3.242   4.362   6.004
13156WAT      O39709   4.023   3.702   1.744
13156WAT     H139710   4.100   3.703   1.808
13156WAT     H239711   3.940   3.673   1.792
13157WAT      O39712   4.717   4.697   5.704
13157WAT     H139713   4.731   4.654   5.793
13157WAT     H239714   4.752   4.636   5.632
13158WAT      O39715   9.582   5.683   5.608
13158WAT     H139716   9.610   5.589   5.628
13158WAT     H239717   9.593   5.739   5.690
13159WAT      O39718   8.263   4.172   5.159
13159WAT     H139719   8.296   4.184   5.253
13159WAT     H239720   8.258   4.261   5.114
13160WAT      O39721   6.372   4.928   4.887
13160WAT     H139722   6.328   4.999   4.940
13160WAT     H239723   6.446   4.968   4.833
13161WAT      O39724   1.133   8.338   2.042
13161WAT     H139725   1.180   8.424   2.028
13161WAT     H239726   1.038   8.356   2.069
13162WAT      O39727   4.424   2.110   2.073
13162WAT     H139728   4.505   2.131   2.128
13162WAT     H239729   4.447   2.119   1.976
13163WAT      O39730   2.066   8.992   0.848
13163WAT     H139731   2.069   9.092   0.856
13163WAT     H239732   1.983   8.958   0.891
13164WAT      O39733   3.767   5.846   9.311
13164WAT     H139734   3.720   5.873   9.394
13164WAT     H239735   3.852   5.798   9.334
13165WAT      O39736   7.580   3.587   5.396
13165WAT     H139737   7.567   3.537   5.310
13165WAT     H239738   7.554   3.683   5.382
13166WAT      O39739   2.326   8.901   1.923
13166WAT     H139740   2.411   8.851   1.909
13166WAT     H239741   2.294   8.888   2.017
13167WAT      O39742   7.651   8.337   1.305
13167WAT     H139743   7.562   8.373   1.279
13167WAT     H239744   7.722   8.373   1.245
13168WAT      O39745   4.323   0.841   4.873
13168WAT     H139746   4.306   0.931   4.911
13168WAT     H239747   4.245   0.812   4.818
13169WAT      O39748   4.617   6.380   0.069
13169WAT     H139749   4.660   6.328   0.143
13169WAT     H239750   4.624   6.478   0.089
13170WAT      O39751   2.682   0.920   9.675
13170WAT     H139752   2.680   0.827   9.712
13170WAT     H239753   2.602   0.970   9.709
13171WAT      O39754   2.865   1.784   2.352
13171WAT     H139755   2.938   1.726   2.316
13171WAT     H239756   2.780   1.764   2.304
13172WAT      O39757   0.006   2.954   7.849
13172WAT     H139758   0.016   3.032   7.788
13172WAT     H239759  -0.039   2.879   7.801
13173WAT      O39760   8.454   6.802   3.253
13173WAT     H139761   8.433   6.790   3.350
13173WAT     H239762   8.552   6.818   3.241
13174WAT      O39763   5.331   6.532   2.701
13174WAT     H139764   5.280   6.597   2.645
13174WAT     H239765   5.420   6.571   2.725
13175WAT      O39766   6.705   9.286   7.888
13175WAT     H139767   6.612   9.296   7.925
13175WAT     H239768   6.743   9.199   7.919
13176WAT      O39769   7.085   3.604   9.086
13176WAT     H139770   7.039   3.547   9.018
13176WAT     H239771   7.145   3.547   9.142
13177WAT      O39772   9.109   6.353   9.250
13177WAT     H139773   9.016   6.336   9.282
13177WAT     H239774   9.128   6.451   9.251
13178WAT      O39775   2.307   2.108   1.735
13178WAT     H139776   2.284   2.198   1.698
13178WAT     H239777   2.373   2.063   1.674
13179WAT      O39778   7.963   2.827   8.843
13179WAT     H139779   7.955   2.922   8.812
13179WAT     H239780   7.943   2.821   8.941
13180WAT      O39781   4.100   2.108   3.696
13180WAT     H139782   4.074   2.180   3.760
13180WAT     H239783   4.032   2.035   3.698
13181WAT      O39784   9.041   6.798   6.349
13181WAT     H139785   9.135   6.770   6.367
13181WAT     H239786   9.042   6.874   6.283
13182WAT      O39787   1.916   7.732   4.587
13182WAT     H139788   1.851   7.656   4.593
13182WAT     H239789   1.866   7.819   4.587
13183WAT      O39790   0.279   6.880   6.164
13183WAT     H139791   0.378   6.881   6.149
13183WAT     H239792   0.233   6.922   6.085
13184WAT      O39793   8.727   4.112   4.027
13184WAT     H139794   8.737   4.193   4.085
13184WAT     H239795   8.745   4.136   3.932
13185WAT      O39796   7.180   0.486   4.058
13185WAT     H139797   7.221   0.462   4.146
13185WAT     H239798   7.154   0.582   4.058
13186WAT      O39799   8.780   6.587   4.247
13186WAT     H139800   8.758   6.584   4.344
13186WAT     H239801   8.800   6.495   4.214
13187WAT      O39802   1.186   3.856   5.498
13187WAT     H139803   1.129   3.939   5.503
13187WAT     H239804   1.211   3.827   5.590
13188WAT      O39805   0.697   3.038   2.176
13188WAT     H139806   0.647   3.111   2.129
13188WAT     H239807   0.639   2.999   2.248
13189WAT      O39808   8.209   3.184   8.121
13189WAT     H139809   8.116   3.217   8.139
13189WAT     H239810   8.229   3.191   8.024
13190WAT      O39811   5.209   1.834   4.198
13190WAT     H139812   5.211   1.895   4.118
13190WAT     H239813   5.128   1.853   4.252
13191WAT      O39814   5.048   8.847   3.669
13191WAT     H139815   5.105   8.786   3.613
13191WAT     H239816   5.071   8.942   3.648
13192WAT      O39817   0.197   4.488   2.315
13192WAT     H139818   0.118   4.498   2.375
13192WAT     H239819   0.247   4.574   2.311
13193WAT      O39820   4.326   5.831   5.957
13193WAT     H139821   4.386   5.783   6.021
13193WAT     H239822   4.367   5.919   5.933
13194WAT      O39823   3.846   7.720   5.651
13194WAT     H139824   3.940   7.692   5.673
13194WAT     H239825   3.799   7.748   5.735
13195WAT      O39826   7.697   4.482   6.895
13195WAT     H139827   7.614   4.448   6.940
13195WAT     H239828   7.775   4.425   6.922
13196WAT      O39829   8.694   6.423   1.575
13196WAT     H139830   8.630   6.355   1.538
13196WAT     H239831   8.699   6.500   1.511
13197WAT      O39832   7.297   4.666   6.290
13197WAT     H139833   7.206   4.626   6.297
13197WAT     H239834   7.353   4.610   6.229
13198WAT      O39835   6.936   6.812   1.774
13198WAT     H139836   6.876   6.735   1.799
13198WAT     H239837   6.976   6.795   1.684
13199WAT      O39838   1.551   6.373   2.987
13199WAT     H139839   1.525   6.295   3.043
13199WAT     H239840   1.643   6.359   2.951
13200WAT      O39841   7.082   1.234   4.031
13200WAT     H139842   7.005   1.296   4.044
13200WAT     H239843   7.167   1.283   4.051
13201WAT      O39844   0.949   0.859   9.428
13201WAT     H139845   0.945   0.888   9.332
13201WAT     H239846   0.957   0.939   9.487
13202WAT      O39847   6.353   4.088   1.670
13202WAT     H139848   6.412   4.150   1.722
13202WAT     H239849   6.306   4.026   1.733
13203WAT      O39850   8.081   0.972   1.950
13203WAT     H139851   8.136   0.993   1.870
13203WAT     H239852   8.049   1.057   1.992
13204WAT      O39853   4.846   6.020   5.692
13204WAT     H139854   4.831   5.926   5.660
13204WAT     H239855   4.933   6.054   5.655
13205WAT      O39856   0.296   6.734   1.981
13205WAT     H139857   0.203   6.762   2.002
13205WAT     H239858   0.301   6.634   1.979
13206WAT      O39859   4.171   1.480   5.343
13206WAT     H139860   4.167   1.534   5.259
13206WAT     H239861   4.101   1.409   5.339
13207WAT      O39862   8.882   1.553   3.609
13207WAT     H139863   8.901   1.491   3.533
13207WAT     H239864   8.878   1.501   3.694
13208WAT      O39865   3.720   2.307   9.512
13208WAT     H139866   3.718   2.230   9.448
13208WAT     H239867   3.813   2.342   9.519
13209WAT      O39868   6.004   1.175   3.373
13209WAT     H139869   6.065   1.255   3.373
13209WAT     H239870   6.033   1.112   3.446
13210WAT      O39871   6.227   6.981   9.672
13210WAT     H139872   6.183   6.908   9.723
13210WAT     H239873   6.279   7.039   9.735
13211WAT      O39874   9.683   8.910   4.187
13211WAT     H139875   9.749   8.873   4.122
13211WAT     H239876   9.709   8.884   4.280
13212WAT      O39877   0.831   6.582   4.821
13212WAT     H139878   0.763   6.635   4.871
13212WAT     H239879   0.850   6.625   4.733
13213WAT      O39880   5.318   8.485   4.478
13213WAT     H139881   5.281   8.422   4.409
13213WAT     H239882   5.322   8.578   4.439
13214WAT      O39883   8.797   9.143   1.608
13214WAT     H139884   8.776   9.207   1.534
13214WAT     H239885   8.864   9.184   1.670
13215WAT      O39886   0.406   4.057   8.797
13215WAT     H139887   0.459   4.109   8.865
13215WAT     H239888   0.311   4.053   8.826
13216WAT      O39889   5.024   9.171   3.906
13216WAT     H139890   4.995   9.267   3.904
13216WAT     H239891   5.059   9.149   3.997
13217WAT      O39892   3.937   4.544   4.375
13217WAT     H139893   3.893   4.475   4.317
13217WAT     H239894   3.867   4.593   4.427
13218WAT      O39895   8.506   3.059   7.022
13218WAT     H139896   8.450   3.121   7.077
13218WAT     H239897   8.474   3.059   6.927
13219WAT      O39898   9.838   7.960   7.442
13219WAT     H139899   9.838   8.019   7.522
13219WAT     H239900   9.924   7.908   7.439
13220WAT      O39901   0.892   3.717   3.286
13220WAT     H139902   0.828   3.731   3.360
13220WAT     H239903   0.890   3.796   3.224
13221WAT      O39904   8.412   8.646   8.629
13221WAT     H139905   8.446   8.685   8.543
13221WAT     H239906   8.313   8.636   8.624
13222WAT      O39907   2.504   7.264   3.974
13222WAT     H139908   2.596   7.302   3.989
13222WAT     H239909   2.489   7.187   4.036
13223WAT      O39910   2.339   3.861   1.538
13223WAT     H139911   2.334   3.761   1.549
13223WAT     H239912   2.433   3.891   1.552
13224WAT      O39913   7.103   3.837   7.287
13224WAT     H139914   7.125   3.898   7.211
13224WAT     H239915   7.017   3.866   7.329
13225WAT      O39916   6.028   1.270   7.924
13225WAT     H139917   6.100   1.291   7.990
13225WAT     H239918   6.042   1.322   7.840
13226WAT      O39919   0.831   2.528   0.089
13226WAT     H139920   0.808   2.560   0.181
13226WAT     H239921   0.781   2.583   0.021
13227WAT      O39922   5.912   0.489   0.268
13227WAT     H139923   5.895   0.587   0.255
13227WAT     H239924   5.989   0.476   0.329
13228WAT      O39925   5.255   9.057   2.293
13228WAT     H139926   5.247   9.015   2.384
13228WAT     H239927   5.191   9.133   2.286
13229WAT      O39928   8.640   4.608   3.667
13229WAT     H139929   8.706   4.545   3.707
13229WAT     H239930   8.688   4.683   3.621
13230WAT      O39931   3.447   5.142   2.934
13230WAT     H139932   3.392   5.179   2.858
13230WAT     H239933   3.534   5.191   2.939
13231WAT      O39934   0.128   3.515   0.391
13231WAT     H139935   0.112   3.478   0.300
13231WAT     H239936   0.110   3.614   0.390
13232WAT      O39937   3.210   1.042   1.130
13232WAT     H139938   3.267   1.029   1.211
13232WAT     H239939   3.197   1.139   1.113
13233WAT      O39940   7.176   1.468   1.615
13233WAT     H139941   7.137   1.560   1.608
13233WAT     H239942   7.274   1.471   1.595
13234WAT      O39943   6.335   6.560   1.307
13234WAT     H139944   6.303   6.504   1.231
13234WAT     H239945   6.299   6.523   1.393
13235WAT      O39946   5.215   0.532   7.058
13235WAT     H139947   5.155   0.472   7.111
13235WAT     H239948   5.227   0.619   7.107
13236WAT      O39949   3.922   4.646   2.639
13236WAT     H139950   3.992   4.576   2.624
13236WAT     H239951   3.899   4.689   2.552
13237WAT      O39952   8.034   7.001   1.680
13237WAT     H139953   8.128   7.032   1.662
13237WAT     H239954   8.002   7.041   1.766
13238WAT      O39955   6.381   5.220   6.934
13238WAT     H139956   6.290   5.179   6.938
13238WAT     H239957   6.439   5.179   7.005
13239WAT      O39958   5.920   5.925   8.592
13239WAT     H139959   5.931   5.836   8.548
13239WAT     H239960   5.827   5.935   8.626
13240WAT      O39961   8.312   0.776   9.662
13240WAT     H139962   8.240   0.717   9.625
13240WAT     H239963   8.399   0.727   9.663
13241WAT      O39964   2.873   8.104   9.800
13241WAT     H139965   2.874   8.064   9.892
13241WAT     H239966   2.959   8.084   9.754
13242WAT      O39967   0.877   7.683   8.173
13242WAT     H139968   0.925   7.747   8.113
13242WAT     H239969   0.923   7.680   8.262
13243WAT      O39970   1.489   6.890   9.848
13243WAT     H139971   1.486   6.974   9.903
13243WAT     H239972   1.581   6.851   9.852
13244WAT      O39973   0.493   3.431   5.575
13244WAT     H139974   0.435   3.512   5.567
13244WAT     H239975   0.441   3.355   5.612
13245WAT      O39976   1.539   5.096   7.481
13245WAT     H139977   1.586   5.052   7.405
13245WAT     H239978   1.441   5.099   7.461
13246WAT      O39979   4.943   8.240   5.075
13246WAT     H139980   4.849   8.214   5.052
13246WAT     H239981   4.979   8.299   5.004
13247WAT      O39982   6.356   7.567   4.733
13247WAT     H139983   6.331   7.610   4.820
13247WAT     H239984   6.396   7.478   4.750
13248WAT      O39985   9.795   4.927   3.468
13248WAT     H139986   9.739   5.009   3.473
13248WAT     H239987   9.877   4.946   3.414
13249WAT      O39988   6.294   0.199   7.498
13249WAT     H139989   6.282   0.237   7.407
13249WAT     H239990   6.389   0.213   7.528
13250WAT      O39991   0.060   9.554   6.547
13250WAT     H139992   0.055   9.483   6.618
13250WAT     H239993   0.105   9.517   6.466
13251WAT      O39994   4.753   8.259   8.935
13251WAT     H139995   4.825   8.230   8.873
13251WAT     H239996   4.678   8.192   8.933
13252WAT      O39997   3.059   3.511   1.868
13252WAT     H139998   3.050   3.554   1.777
13252WAT     H239999   3.026   3.417   1.864
13253WAT      O40000   8.582   9.619   1.674
13253WAT     H140001   8.553   9.523   1.679
13253WAT     H240002   8.681   9.625   1.684
13254WAT      O40003   9.667   2.382   3.170
13254WAT     H140004   9.594   2.361   3.235
13254WAT     H240005   9.674   2.482   3.159
13255WAT      O40006   0.000   2.094   0.174
13255WAT     H140007   0.057   2.024   0.218
13255WAT     H240008   0.057   2.171   0.147
13256WAT      O40009   5.530   9.032   7.229
13256WAT     H140010   5.574   8.946   7.258
13256WAT     H240011   5.484   9.018   7.142
13257WAT      O40012   0.895   8.262   8.914
13257WAT     H140013   0.810   8.210   8.926
13257WAT     H240014   0.885   8.352   8.955
13258WAT      O40015   7.773   5.449   1.824
13258WAT     H140016   7.795   5.415   1.915
13258WAT     H240017   7.674   5.460   1.816
13259WAT      O40018   0.249   3.100   6.418
13259WAT     H140019   0.244   3.057   6.508
13259WAT     H240020   0.180   3.058   6.358
13260WAT      O40021   8.375   9.020   7.598
13260WAT     H140022   8.278   8.999   7.606
13260WAT     H240023   8.388   9.119   7.592
13261WAT      O40024   2.448   0.924   6.490
13261WAT     H140025   2.517   0.922   6.418
13261WAT     H240026   2.452   0.840   6.543
13262WAT      O40027   5.760   3.878   5.348
13262WAT     H140028   5.733   3.948   5.415
13262WAT     H240029   5.727   3.904   5.257
13263WAT      O40030   1.173   5.960   4.525
13263WAT     H140031   1.139   5.911   4.606
13263WAT     H240032   1.175   5.898   4.447
13264WAT      O40033   6.351   9.635   6.527
13264WAT     H140034   6.382   9.671   6.615
13264WAT     H240035   6.302   9.550   6.542
13265WAT      O40036   2.132   1.526   5.165
13265WAT     H140037   2.050   1.582   5.176
13265WAT     H240038   2.106   1.430   5.155
13266WAT      O40039   2.372   3.595   9.869
13266WAT     H140040   2.379   3.513   9.926
13266WAT     H240041   2.282   3.637   9.883
13267WAT      O40042   5.043   0.896   2.071
13267WAT     H140043   4.981   0.881   2.147
13267WAT     H240044   5.131   0.929   2.105
13268WAT      O40045   1.873   6.181   6.837
13268WAT     H140046   1.969   6.193   6.811
13268WAT     H240047   1.818   6.254   6.798
13269WAT      O40048   9.519   4.340   8.918
13269WAT     H140049   9.573   4.416   8.953
13269WAT     H240050   9.426   4.371   8.900
13270WAT      O40051   0.152   2.186   5.312
13270WAT     H140052   0.073   2.128   5.293
13270WAT     H240053   0.236   2.132   5.304
13271WAT      O40054   3.808   7.878   0.827
13271WAT     H140055   3.742   7.877   0.751
13271WAT     H240056   3.767   7.922   0.906
13272WAT      O40057   7.161   4.707   3.269
13272WAT     H140058   7.253   4.727   3.302
13272WAT     H240059   7.095   4.718   3.344
13273WAT      O40060   3.824   2.573   2.627
13273WAT     H140061   3.907   2.522   2.605
13273WAT     H240062   3.848   2.661   2.667
13274WAT      O40063   7.480   2.919   0.550
13274WAT     H140064   7.444   2.866   0.627
13274WAT     H240065   7.502   2.856   0.475
13275WAT      O40066   0.798   3.280   7.633
13275WAT     H140067   0.786   3.378   7.651
13275WAT     H240068   0.860   3.242   7.702
13276WAT      O40069   7.210   9.234   4.127
13276WAT     H140070   7.284   9.167   4.133
13276WAT     H240071   7.212   9.277   4.037
13277WAT      O40072   1.572   3.011   6.253
13277WAT     H140073   1.659   3.040   6.214
13277WAT     H240074   1.504   3.084   6.241
13278WAT      O40075   9.646   4.526   3.929
13278WAT     H140076   9.583   4.462   3.974
13278WAT     H240077   9.593   4.590   3.873
13279WAT      O40078   5.175   8.400   5.188
13279WAT     H140079   5.263   8.441   5.210
13279WAT     H240080   5.182   8.300   5.191
13280WAT      O40081   9.503   3.202   9.479
13280WAT     H140082   9.555   3.156   9.407
13280WAT     H240083   9.432   3.139   9.514
13281WAT      O40084   4.684   8.635   7.408
13281WAT     H140085   4.721   8.727   7.399
13281WAT     H240086   4.687   8.607   7.504
13282WAT      O40087   7.618   9.543   0.781
13282WAT     H140088   7.530   9.519   0.821
13282WAT     H240089   7.665   9.459   0.752
13283WAT      O40090   1.725   4.803   3.038
13283WAT     H140091   1.740   4.765   3.130
13283WAT     H240092   1.627   4.809   3.020
13284WAT      O40093   7.573   0.398   1.935
13284WAT     H140094   7.612   0.483   1.971
13284WAT     H240095   7.536   0.344   2.010
13285WAT      O40096   2.426   2.161   4.643
13285WAT     H140097   2.465   2.084   4.592
13285WAT     H240098   2.362   2.126   4.711
13286WAT      O40099   1.042   9.781   5.654
13286WAT     H140100   1.136   9.787   5.688
13286WAT     H240101   0.991   9.713   5.706
13287WAT      O40102   5.335   5.770   2.703
13287WAT     H140103   5.284   5.845   2.659
13287WAT     H240104   5.409   5.741   2.643
13288WAT      O40105   4.524   7.954   5.645
13288WAT     H140106   4.599   8.017   5.665
13288WAT     H240107   4.550   7.862   5.675
13289WAT      O40108   2.470   7.888   3.658
13289WAT     H140109   2.533   7.911   3.583
13289WAT     H240110   2.515   7.827   3.722
13290WAT      O40111   0.526   1.186   3.655
13290WAT     H140112   0.519   1.116   3.726
13290WAT     H240113   0.557   1.144   3.570
13291WAT      O40114   7.663   1.832   5.424
13291WAT     H140115   7.713   1.749   5.398
13291WAT     H240116   7.729   1.907   5.438
13292WAT      O40117   0.436   1.145   0.433
13292WAT     H140118   0.441   1.100   0.344
13292WAT     H240119   0.394   1.083   0.499
13293WAT      O40120   2.630   1.118   7.278
13293WAT     H140121   2.660   1.070   7.196
13293WAT     H240122   2.665   1.212   7.277
13294WAT      O40123   5.600   4.534   0.120
13294WAT     H140124   5.699   4.524   0.109
13294WAT     H240125   5.571   4.490   0.204
13295WAT      O40126   6.701   2.061   1.422
13295WAT     H140127   6.708   1.994   1.496
13295WAT     H240128   6.778   2.049   1.359
13296WAT      O40129   0.030   4.444   4.545
13296WAT     H140130  -0.029   4.460   4.624
13296WAT     H240131   0.110   4.391   4.573
13297WAT      O40132   6.566   4.386   2.362
13297WAT     H140133   6.638   4.447   2.395
13297WAT     H240134   6.540   4.323   2.435
13298WAT      O40135   5.803   1.111   5.463
13298WAT     H140136   5.727   1.091   5.524
13298WAT     H240137   5.873   1.040   5.472
13299WAT      O40138   1.689   5.952   2.996
13299WAT     H140139   1.751   5.984   3.067
13299WAT     H240140   1.704   5.854   2.980
13300WAT      O40141   9.077   6.526   9.689
13300WAT     H140142   9.173   6.498   9.693
13300WAT     H240143   9.062   6.578   9.605
13301WAT      O40144   0.468   7.555   1.099
13301WAT     H140145   0.537   7.568   1.028
13301WAT     H240146   0.410   7.477   1.076
13302WAT      O40147   9.815   6.234   8.975
13302WAT     H140148   9.885   6.251   8.906
13302WAT     H240149   9.858   6.205   9.060
13303WAT      O40150   2.811   3.769   4.285
13303WAT     H140151   2.866   3.696   4.244
13303WAT     H240152   2.805   3.756   4.384
13304WAT      O40153   3.807   9.739   5.946
13304WAT     H140154   3.806   9.675   6.023
13304WAT     H240155   3.824   9.688   5.861
13305WAT      O40156   9.423   2.578   7.562
13305WAT     H140157   9.364   2.498   7.562
13305WAT     H240158   9.377   2.653   7.515
13306WAT      O40159   0.969   9.540   5.481
13306WAT     H140160   0.880   9.512   5.517
13306WAT     H240161   1.007   9.613   5.537
13307WAT      O40162   3.605   7.148   4.859
13307WAT     H140163   3.623   7.063   4.909
13307WAT     H240164   3.651   7.145   4.771
13308WAT      O40165   1.966   2.781   4.213
13308WAT     H140166   1.884   2.827   4.245
13308WAT     H240167   2.031   2.771   4.289
13309WAT      O40168   6.043   3.957   0.043
13309WAT     H140169   6.000   3.901  -0.028
13309WAT     H240170   5.986   3.956   0.125
13310WAT      O40171   3.360   0.239   5.466
13310WAT     H140172   3.322   0.175   5.399
13310WAT     H240173   3.314   0.327   5.457
13311WAT      O40174   9.216   2.593   6.139
13311WAT     H140175   9.256   2.592   6.048
13311WAT     H240176   9.250   2.516   6.192
13312WAT      O40177   4.286   6.686   0.481
13312WAT     H140178   4.324   6.595   0.496
13312WAT     H240179   4.320   6.749   0.551
13313WAT      O40180   7.484   7.397   5.822
13313WAT     H140181   7.483   7.316   5.881
13313WAT     H240182   7.391   7.433   5.813
13314WAT      O40183   1.924   5.154   5.879
13314WAT     H140184   1.826   5.173   5.868
13314WAT     H240185   1.964   5.220   5.943
13315WAT      O40186   7.027   9.130   0.329
13315WAT     H140187   7.090   9.207   0.326
13315WAT     H240188   6.954   9.145   0.263
13316WAT      O40189   5.765   1.919   4.181
13316WAT     H140190   5.721   1.973   4.109
13316WAT     H240191   5.863   1.913   4.161
13317WAT      O40192   3.380   3.797   1.241
13317WAT     H140193   3.421   3.823   1.154
13317WAT     H240194   3.280   3.808   1.235
13318WAT      O40195   6.893   9.694   3.795
13318WAT     H140196   6.914   9.599   3.815
13318WAT     H240197   6.904   9.711   3.698
13319WAT      O40198   2.343   0.936   3.193
13319WAT     H140199   2.407   0.985   3.134
13319WAT     H240200   2.256   0.922   3.144
13320WAT      O40201   5.014   2.588   8.674
13320WAT     H140202   5.113   2.586   8.665
13320WAT     H240203   4.985   2.678   8.706
13321WAT      O40204   1.563   4.991   1.904
13321WAT     H140205   1.604   4.960   1.989
13321WAT     H240206   1.612   4.951   1.826
13322WAT      O40207   6.428   0.677   3.911
13322WAT     H140208   6.371   0.722   3.843
13322WAT     H240209   6.382   0.680   4.000
13323WAT      O40210   5.901   3.233   8.972
13323WAT     H140211   5.976   3.268   8.915
13323WAT     H240212   5.926   3.243   9.069
13324WAT      O40213   0.649   7.331   9.815
13324WAT     H140214   0.671   7.424   9.844
13324WAT     H240215   0.645   7.271   9.894
13325WAT      O40216   1.793   9.331   2.944
13325WAT     H140217   1.887   9.361   2.962
13325WAT     H240218   1.736   9.351   3.024
13326WAT      O40219   0.409   6.576   0.821
13326WAT     H140220   0.468   6.595   0.743
13326WAT     H240221   0.346   6.652   0.835
13327WAT      O40222   0.825   4.378   2.243
13327WAT     H140223   0.877   4.359   2.160
13327WAT     H240224   0.778   4.465   2.234
13328WAT      O40225   6.721   0.901   9.495
13328WAT     H140226   6.680   0.836   9.560
13328WAT     H240227   6.693   0.994   9.520
13329WAT      O40228   4.958   1.572   9.165
13329WAT     H140229   4.863   1.592   9.141
13329WAT     H240230   5.018   1.592   9.087
13330WAT      O40231   2.354   6.066   4.021
13330WAT     H140232   2.348   6.024   4.112
13330WAT     H240233   2.448   6.091   4.002
13331WAT      O40234   4.984   4.041   1.021
13331WAT     H140235   5.023   3.977   1.086
13331WAT     H240236   4.905   3.999   0.975
13332WAT      O40237   6.760   3.764   8.870
13332WAT     H140238   6.835   3.723   8.818
13332WAT     H240239   6.678   3.768   8.813
13333WAT      O40240   2.133   7.995   0.607
13333WAT     H140241   2.172   8.087   0.603
13333WAT     H240242   2.182   7.941   0.676
13334WAT      O40243   6.750   0.803   5.454
13334WAT     H140244   6.686   0.828   5.382
13334WAT     H240245   6.817   0.737   5.418
13335WAT      O40246   3.696   5.616   0.753
13335WAT     H140247   3.735   5.582   0.667
13335WAT     H240248   3.598   5.597   0.756
13336WAT      O40249   3.730   7.596   1.013
13336WAT     H140250   3.826   7.622   1.021
13336WAT     H240251   3.679   7.626   1.093
13337WAT      O40252   5.311   5.570   7.035
13337WAT     H140253   5.353   5.636   6.973
13337WAT     H240254   5.343   5.478   7.012
13338WAT      O40255   8.828   1.493   2.151
13338WAT     H140256   8.914   1.502   2.201
13338WAT     H240257   8.848   1.489   2.053
13339WAT      O40258   4.291   0.036   1.804
13339WAT     H140259   4.301   0.135   1.815
13339WAT     H240260   4.380  -0.008   1.815
13340WAT      O40261   3.482   7.746   6.887
13340WAT     H140262   3.492   7.670   6.951
13340WAT     H240263   3.385   7.760   6.867
13341WAT      O40264   9.214   0.846   8.581
13341WAT     H140265   9.279   0.774   8.605
13341WAT     H240266   9.254   0.906   8.512
13342WAT      O40267   7.711   9.029   7.109
13342WAT     H140268   7.681   9.117   7.147
13342WAT     H240269   7.729   9.039   7.011
13343WAT      O40270   2.327   7.830   9.350
13343WAT     H140271   2.268   7.811   9.429
13343WAT     H240272   2.357   7.925   9.354
13344WAT      O40273   4.312   0.846   7.699
13344WAT     H140274   4.272   0.873   7.611
13344WAT     H240275   4.364   0.761   7.687
13345WAT      O40276   3.114   2.941   5.271
13345WAT     H140277   3.067   2.877   5.332
13345WAT     H240278   3.109   3.034   5.309
13346WAT      O40279   6.144   6.771   9.497
13346WAT     H140280   6.053   6.781   9.456
13346WAT     H240281   6.171   6.858   9.538
13347WAT      O40282   2.534   9.597   1.521
13347WAT     H140283   2.478   9.657   1.578
13347WAT     H240284   2.518   9.619   1.424
13348WAT      O40285   8.068   4.687   4.488
13348WAT     H140286   7.984   4.741   4.480
13348WAT     H240287   8.045   4.591   4.505
13349WAT      O40288   2.634   3.781   3.344
13349WAT     H140289   2.542   3.742   3.343
13349WAT     H240290   2.641   3.849   3.417
13350WAT      O40291   1.028   7.373   2.332
13350WAT     H140292   1.057   7.466   2.313
13350WAT     H240293   1.099   7.326   2.385
13351WAT      O40294   9.526   2.245   4.655
13351WAT     H140295   9.571   2.162   4.620
13351WAT     H240296   9.595   2.315   4.674
13352WAT      O40297   2.694   0.283   4.702
13352WAT     H140298   2.605   0.326   4.689
13352WAT     H240299   2.688   0.186   4.681
13353WAT      O40300   6.331   2.319   0.826
13353WAT     H140301   6.319   2.277   0.736
13353WAT     H240302   6.373   2.409   0.815
13354WAT      O40303   6.260   4.650   1.842
13354WAT     H140304   6.185   4.592   1.876
13354WAT     H240305   6.230   4.745   1.839
13355WAT      O40306   3.522   0.511   6.698
13355WAT     H140307   3.439   0.560   6.671
13355WAT     H240308   3.513   0.414   6.674
13356WAT      O40309   9.561   6.122   5.627
13356WAT     H140310   9.516   6.211   5.622
13356WAT     H240311   9.647   6.131   5.677
13357WAT      O40312   1.071   4.378   2.609
13357WAT     H140313   1.031   4.288   2.591
13357WAT     H240314   1.151   4.392   2.551
13358WAT      O40315   0.983   0.393   2.146
13358WAT     H140316   0.896   0.430   2.177
13358WAT     H240317   1.012   0.440   2.063
13359WAT      O40318   6.224   0.331   7.276
13359WAT     H140319   6.295   0.292   7.217
13359WAT     H240320   6.140   0.277   7.266
13360WAT      O40321   6.862   3.216   4.239
13360WAT     H140322   6.931   3.163   4.289
13360WAT     H240323   6.859   3.310   4.274
13361WAT      O40324   2.987   2.362   9.451
13361WAT     H140325   2.955   2.337   9.542
13361WAT     H240326   3.065   2.425   9.459
13362WAT      O40327   2.146   1.711   2.882
13362WAT     H140328   2.179   1.769   2.957
13362WAT     H240329   2.062   1.664   2.911
13363WAT      O40330   5.762   2.917   0.758
13363WAT     H140331   5.703   2.900   0.679
13363WAT     H240332   5.728   2.997   0.808
13364WAT      O40333   0.605   9.697   5.712
13364WAT     H140334   0.584   9.713   5.615
13364WAT     H240335   0.530   9.645   5.754
13365WAT      O40336   9.285   8.971   6.678
13365WAT     H140337   9.283   8.918   6.594
13365WAT     H240338   9.239   8.920   6.751
13366WAT      O40339   1.665   5.115   6.262
13366WAT     H140340   1.734   5.043   6.265
13366WAT     H240341   1.687   5.186   6.330
13367WAT      O40342   8.225   1.052   2.546
13367WAT     H140343   8.259   1.050   2.451
13367WAT     H240344   8.293   1.097   2.604
13368WAT      O40345   2.162   6.936   9.761
13368WAT     H140346   2.069   6.909   9.785
13368WAT     H240347   2.167   7.036   9.752
13369WAT      O40348   7.340   3.179   6.646
13369WAT     H140349   7.330   3.215   6.739
13369WAT     H240350   7.336   3.079   6.648
13370WAT      O40351   3.453   8.179   7.321
13370WAT     H140352   3.482   8.255   7.263
13370WAT     H240353   3.432   8.213   7.412
13371WAT      O40354   6.562   7.387   1.278
13371WAT     H140355   6.504   7.414   1.201
13371WAT     H240356   6.610   7.467   1.313
13372WAT      O40357   7.327   6.382   4.255
13372WAT     H140358   7.349   6.417   4.346
13372WAT     H240359   7.233   6.349   4.254
13373WAT      O40360   8.184   3.894   9.887
13373WAT     H140361   8.106   3.831   9.894
13373WAT     H240362   8.231   3.899   9.975
13374WAT      O40363   4.956   8.159   9.474
13374WAT     H140364   4.949   8.092   9.547
13374WAT     H240365   5.021   8.231   9.500
13375WAT      O40366   7.590   5.253   5.523
13375WAT     H140367   7.503   5.289   5.558
13375WAT     H240368   7.583   5.239   5.424
13376WAT      O40369   5.834   3.457   3.030
13376WAT     H140370   5.800   3.401   3.106
13376WAT     H240371   5.769   3.453   2.954
13377WAT      O40372   4.205   1.206   7.393
13377WAT     H140373   4.285   1.178   7.447
13377WAT     H240374   4.176   1.129   7.336
13378WAT      O40375   0.392   5.558   7.595
13378WAT     H140376   0.439   5.526   7.677
13378WAT     H240377   0.369   5.479   7.538
13379WAT      O40378   4.006   2.657   1.988
13379WAT     H140379   3.912   2.624   1.986
13379WAT     H240380   4.007   2.757   1.982
13380WAT      O40381   6.749   3.898   4.505
13380WAT     H140382   6.668   3.871   4.454
13380WAT     H240383   6.788   3.981   4.465
13381WAT      O40384   4.384   4.533   6.901
13381WAT     H140385   4.403   4.499   6.809
13381WAT     H240386   4.344   4.460   6.956
13382WAT      O40387   3.577   6.339   7.501
13382WAT     H140388   3.614   6.431   7.495
13382WAT     H240389   3.508   6.325   7.430
13383WAT      O40390   8.735   9.169   8.965
13383WAT     H140391   8.729   9.133   9.057
13383WAT     H240392   8.673   9.118   8.905
13384WAT      O40393   8.721   3.536   0.934
13384WAT     H140394   8.659   3.546   0.856
13384WAT     H240395   8.737   3.625   0.976
13385WAT      O40396   7.470   9.050   7.446
13385WAT     H140397   7.393   9.114   7.450
13385WAT     H240398   7.439   8.959   7.471
13386WAT      O40399   6.276   5.604   0.296
13386WAT     H140400   6.245   5.520   0.251
13386WAT     H240401   6.375   5.602   0.305
13387WAT      O40402   8.041   0.275   2.680
13387WAT     H140403   8.048   0.239   2.587
13387WAT     H240404   7.947   0.265   2.713
13388WAT      O40405   4.354   4.425   9.636
13388WAT     H140406   4.400   4.337   9.649
13388WAT     H240407   4.348   4.445   9.538
13389WAT      O40408   0.687   5.214   6.142
13389WAT     H140409   0.727   5.122   6.144
13389WAT     H240410   0.598   5.210   6.097
13390WAT      O40411   5.525   1.477   1.656
13390WAT     H140412   5.605   1.538   1.647
13390WAT     H240413   5.549   1.400   1.714
13391WAT      O40414   0.891   8.181   6.140
13391WAT     H140415   0.925   8.087   6.150
13391WAT     H240416   0.791   8.179   6.133
13392WAT      O40417   3.675   1.035   1.633
13392WAT     H140418   3.706   1.072   1.721
13392WAT     H240419   3.735   1.069   1.560
13393WAT      O40420   0.046   0.406   3.063
13393WAT     H140421   0.076   0.323   3.110
13393WAT     H240422  -0.054   0.409   3.060
13394WAT      O40423   4.875   8.553   8.206
13394WAT     H140424   4.903   8.485   8.139
13394WAT     H240425   4.953   8.577   8.263
13395WAT      O40426   7.726   0.194   1.488
13395WAT     H140427   7.679   0.217   1.573
13395WAT     H240428   7.682   0.242   1.412
13396WAT      O40429   4.108   2.557   8.089
13396WAT     H140430   4.014   2.558   8.053
13396WAT     H240431   4.124   2.472   8.139
13397WAT      O40432   4.343   0.959   0.031
13397WAT     H140433   4.280   0.978   0.106
13397WAT     H240434   4.436   0.983   0.058
13398WAT      O40435   8.267   2.633   6.097
13398WAT     H140436   8.169   2.645   6.081
13398WAT     H240437   8.303   2.713   6.145
13399WAT      O40438   1.259   4.807   3.065
13399WAT     H140439   1.270   4.789   3.163
13399WAT     H240440   1.324   4.751   3.013
13400WAT      O40441   4.060   4.490   4.871
13400WAT     H140442   4.061   4.472   4.772
13400WAT     H240443   4.121   4.425   4.917
13401WAT      O40444   0.412   0.925   3.410
13401WAT     H140445   0.356   0.844   3.428
13401WAT     H240446   0.487   0.901   3.349
13402WAT      O40447   9.432   5.515   4.218
13402WAT     H140448   9.410   5.419   4.200
13402WAT     H240449   9.525   5.534   4.188
13403WAT      O40450   6.022   7.893   5.564
13403WAT     H140451   6.116   7.912   5.591
13403WAT     H240452   6.019   7.865   5.468
13404WAT      O40453   6.041   6.581   1.194
13404WAT     H140454   5.970   6.604   1.128
13404WAT     H240455   6.000   6.572   1.285
13405WAT      O40456   3.120   9.347   6.406
13405WAT     H140457   3.083   9.422   6.460
13405WAT     H240458   3.177   9.384   6.332
13406WAT      O40459   6.203   8.719   0.483
13406WAT     H140460   6.240   8.642   0.535
13406WAT     H240461   6.146   8.685   0.409
13407WAT      O40462   8.452   5.066   2.285
13407WAT     H140463   8.468   4.984   2.341
13407WAT     H240464   8.525   5.132   2.301
13408WAT      O40465   6.260   4.142   9.353
13408WAT     H140466   6.163   4.166   9.357
13408WAT     H240467   6.277   4.088   9.271
13409WAT      O40468   2.843   1.318   7.897
13409WAT     H140469   2.805   1.275   7.978
13409WAT     H240470   2.800   1.279   7.815
13410WAT      O40471   3.679   3.134   7.493
13410WAT     H140472   3.651   3.067   7.424
13410WAT     H240473   3.601   3.156   7.552
13411WAT      O40474   1.105   7.701   6.273
13411WAT     H140475   1.150   7.706   6.184
13411WAT     H240476   1.134   7.618   6.321
13412WAT      O40477   9.225   4.702   0.311
13412WAT     H140478   9.309   4.648   0.317
13412WAT     H240479   9.201   4.737   0.401
13413WAT      O40480   6.135   2.311   0.444
13413WAT     H140481   6.053   2.266   0.479
13413WAT     H240482   6.119   2.339   0.350
13414WAT      O40483   6.558   5.958   5.678
13414WAT     H140484   6.574   5.983   5.583
13414WAT     H240485   6.527   6.038   5.729
13415WAT      O40486   8.235   9.212   0.446
13415WAT     H140487   8.150   9.166   0.472
13415WAT     H240488   8.282   9.158   0.377
13416WAT      O40489   7.919   4.013   1.399
13416WAT     H140490   7.958   4.091   1.448
13416WAT     H240491   7.916   3.934   1.459
13417WAT      O40492   0.408   0.834   7.807
13417WAT     H140493   0.460   0.918   7.822
13417WAT     H240494   0.417   0.806   7.711
13418WAT      O40495   2.167   1.324   0.624
13418WAT     H140496   2.254   1.301   0.581
13418WAT     H240497   2.127   1.241   0.664
13419WAT      O40498   4.553   3.573   7.851
13419WAT     H140499   4.573   3.645   7.918
13419WAT     H240500   4.636   3.550   7.801
13420WAT      O40501   7.472   6.877   4.526
13420WAT     H140502   7.408   6.954   4.538
13420WAT     H240503   7.453   6.808   4.595
13421WAT      O40504   8.293   2.587   9.391
13421WAT     H140505   8.313   2.625   9.301
13421WAT     H240506   8.194   2.591   9.407
13422WAT      O40507   6.989   6.310   2.330
13422WAT     H140508   7.018   6.368   2.254
13422WAT     H240509   6.983   6.364   2.413
13423WAT      O40510   7.184   7.440   6.212
13423WAT     H140511   7.200   7.349   6.174
13423WAT     H240512   7.144   7.499   6.142
13424WAT      O40513   2.565   1.910   5.554
13424WAT     H140514   2.625   1.916   5.474
13424WAT     H240515   2.558   2.000   5.596
13425WAT      O40516   6.625   2.502   1.336
13425WAT     H140517   6.657   2.597   1.329
13425WAT     H240518   6.640   2.468   1.428
13426WAT      O40519   8.668   9.615   7.389
13426WAT     H140520   8.712   9.562   7.461
13426WAT     H240521   8.725   9.694   7.367
13427WAT      O40522   1.716   8.130   7.567
13427WAT     H140523   1.752   8.127   7.474
13427WAT     H240524   1.617   8.136   7.564
13428WAT      O40525   8.410   3.041   8.989
13428WAT     H140526   8.471   3.012   8.915
13428WAT     H240527   8.430   2.987   9.071
13429WAT      O40528   0.051   2.917   2.118
13429WAT     H140529   0.111   2.995   2.100
13429WAT     H240530   0.080   2.839   2.063
13430WAT      O40531   0.548   2.966   2.391
13430WAT     H140532   0.506   2.959   2.482
13430WAT     H240533   0.536   2.880   2.342
13431WAT      O40534   2.302   3.597   9.064
13431WAT     H140535   2.220   3.615   9.009
13431WAT     H240536   2.379   3.650   9.028
13432WAT      O40537   0.177   4.663   0.489
13432WAT     H140538   0.205   4.690   0.581
13432WAT     H240539   0.213   4.571   0.469
13433WAT      O40540   6.160   0.874   7.342
13433WAT     H140541   6.166   0.775   7.345
13433WAT     H240542   6.096   0.902   7.271
13434WAT      O40543   5.052   3.604   5.412
13434WAT     H140544   5.045   3.512   5.374
13434WAT     H240545   4.988   3.613   5.489
13435WAT      O40546   2.942   2.658   3.156
13435WAT     H140547   2.974   2.630   3.065
13435WAT     H240548   2.870   2.726   3.146
13436WAT      O40549   8.286   6.729   7.453
13436WAT     H140550   8.348   6.806   7.464
13436WAT     H240551   8.337   6.643   7.463
13437WAT      O40552   8.816   8.769   5.947
13437WAT     H140553   8.766   8.854   5.965
13437WAT     H240554   8.810   8.747   5.849
13438WAT      O40555   7.486   1.153   1.416
13438WAT     H140556   7.580   1.134   1.387
13438WAT     H240557   7.474   1.252   1.424
13439WAT      O40558   7.514   7.604   9.217
13439WAT     H140559   7.430   7.549   9.221
13439WAT     H240560   7.535   7.639   9.308
13440WAT      O40561   9.794   3.324   0.790
13440WAT     H140562   9.786   3.393   0.718
13440WAT     H240563   9.887   3.289   0.793
13441WAT      O40564   9.268   1.204   4.691
13441WAT     H140565   9.188   1.171   4.641
13441WAT     H240566   9.298   1.292   4.654
13442WAT      O40567   0.118   6.384   2.540
13442WAT     H140568   0.082   6.426   2.457
13442WAT     H240569   0.214   6.360   2.526
13443WAT      O40570   7.287   8.347   2.063
13443WAT     H140571   7.267   8.410   1.988
13443WAT     H240572   7.383   8.357   2.090
13444WAT      O40573   2.269   4.127   1.128
13444WAT     H140574   2.260   4.226   1.119
13444WAT     H240575   2.228   4.082   1.049
13445WAT      O40576   6.845   3.402   3.234
13445WAT     H140577   6.900   3.435   3.311
13445WAT     H240578   6.817   3.308   3.252
13446WAT      O40579   8.063   5.191   2.349
13446WAT     H140580   8.132   5.259   2.373
13446WAT     H240581   8.102   5.099   2.360
13447WAT      O40582   6.776   2.893   2.639
13447WAT     H140583   6.699   2.840   2.604
13447WAT     H240584   6.751   2.932   2.728
13448WAT      O40585   3.409   4.351   1.692
13448WAT     H140586   3.380   4.267   1.646
13448WAT     H240587   3.485   4.392   1.642
13449WAT      O40588   9.346   7.516   6.097
13449WAT     H140589   9.251   7.529   6.070
13449WAT     H240590   9.370   7.582   6.169
13450WAT      O40591   5.928   9.160   3.301
13450WAT     H140592   5.894   9.174   3.394
13450WAT     H240593   6.028   9.163   3.301
13451WAT      O40594   8.516   0.335   4.715
13451WAT     H140595   8.501   0.323   4.813
13451WAT     H240596   8.444   0.288   4.664
13452WAT      O40597   4.461   2.125   7.171
13452WAT     H140598   4.471   2.028   7.194
13452WAT     H240599   4.422   2.174   7.249
13453WAT      O40600   8.613   7.085   5.541
13453WAT     H140601   8.630   7.110   5.446
13453WAT     H240602   8.698   7.053   5.582
13454WAT      O40603   5.830   4.451   1.000
13454WAT     H140604   5.745   4.489   0.961
13454WAT     H240605   5.819   4.353   1.015
13455WAT      O40606   8.130   6.087   1.932
13455WAT     H140607   8.178   6.000   1.944
13455WAT     H240608   8.115   6.104   1.835
13456WAT      O40609   6.445   0.104   9.515
13456WAT     H140610   6.450   0.144   9.606
13456WAT     H240611   6.351   0.079   9.494
13457WAT      O40612   5.437   7.840   5.126
13457WAT     H140613   5.495   7.759   5.113
13457WAT     H240614   5.358   7.834   5.066
13458WAT      O40615   2.443   6.724   2.378
13458WAT     H140616   2.542   6.713   2.365
13458WAT     H240617   2.400   6.635   2.386
13459WAT      O40618   7.841   2.180   8.588
13459WAT     H140619   7.749   2.148   8.611
13459WAT     H240620   7.836   2.277   8.562
13460WAT      O40621   2.840   7.547   8.714
13460WAT     H140622   2.909   7.580   8.779
13460WAT     H240623   2.757   7.522   8.765
13461WAT      O40624   0.492   1.352   1.533
13461WAT     H140625   0.445   1.431   1.493
13461WAT     H240626   0.569   1.326   1.475
13462WAT      O40627   9.494   0.475   5.285
13462WAT     H140628   9.568   0.446   5.224
13462WAT     H240629   9.455   0.395   5.331
13463WAT      O40630   4.931   5.730   9.328
13463WAT     H140631   4.905   5.798   9.397
13463WAT     H240632   5.004   5.767   9.271
13464WAT      O40633   0.332   0.243   6.802
13464WAT     H140634   0.255   0.201   6.754
13464WAT     H240635   0.403   0.267   6.735
13465WAT      O40636   7.273   6.261   9.769
13465WAT     H140637   7.269   6.261   9.868
13465WAT     H240638   7.259   6.168   9.735
13466WAT      O40639   2.512   5.430   2.494
13466WAT     H140640   2.449   5.432   2.572
13466WAT     H240641   2.505   5.515   2.443
13467WAT      O40642   0.355   8.107   7.419
13467WAT     H140643   0.449   8.074   7.429
13467WAT     H240644   0.335   8.173   7.491
13468WAT      O40645   7.374   9.246   5.877
13468WAT     H140646   7.406   9.161   5.835
13468WAT     H240647   7.305   9.226   5.946
13469WAT      O40648   5.252   7.505   7.432
13469WAT     H140649   5.251   7.586   7.374
13469WAT     H240650   5.344   7.493   7.470
13470WAT      O40651   7.029   4.678   5.782
13470WAT     H140652   7.072   4.588   5.794
13470WAT     H240653   7.091   4.749   5.815
13471WAT      O40654   1.216   8.327   2.529
13471WAT     H140655   1.160   8.274   2.465
13471WAT     H240656   1.312   8.303   2.518
13472WAT      O40657   6.940   1.499   4.828
13472WAT     H140658   6.856   1.526   4.876
13472WAT     H240659   7.014   1.561   4.854
13473WAT      O40660   4.405   3.952   5.208
13473WAT     H140661   4.333   3.911   5.263
13473WAT     H240662   4.372   3.965   5.115
13474WAT      O40663   6.521   5.254   6.133
13474WAT     H140664   6.594   5.250   6.065
13474WAT     H240665   6.515   5.346   6.171
13475WAT      O40666   8.650   0.205   0.661
13475WAT     H140667   8.719   0.261   0.614
13475WAT     H240668   8.565   0.257   0.670
13476WAT      O40669   1.498   5.837   0.709
13476WAT     H140670   1.470   5.761   0.650
13476WAT     H240671   1.597   5.835   0.722
13477WAT      O40672   2.949   5.950   1.754
13477WAT     H140673   3.033   5.942   1.700
13477WAT     H240674   2.927   6.047   1.767
13478WAT      O40675   4.318   4.369   7.201
13478WAT     H140676   4.323   4.312   7.283
13478WAT     H240677   4.247   4.438   7.212
13479WAT      O40678   7.154   7.092   3.029
13479WAT     H140679   7.214   7.129   2.958
13479WAT     H240680   7.100   7.166   3.069
13480WAT      O40681   2.398   6.533   7.380
13480WAT     H140682   2.408   6.608   7.445
13480WAT     H240683   2.452   6.552   7.298
13481WAT      O40684   5.529   3.683   8.532
13481WAT     H140685   5.625   3.713   8.528
13481WAT     H240686   5.489   3.687   8.441
13482WAT      O40687   3.483   2.138   4.894
13482WAT     H140688   3.483   2.226   4.942
13482WAT     H240689   3.448   2.067   4.955
13483WAT      O40690   2.343   4.921   7.614
13483WAT     H140691   2.357   4.865   7.695
13483WAT     H240692   2.247   4.919   7.587
13484WAT      O40693   1.808   7.780   8.598
13484WAT     H140694   1.851   7.699   8.560
13484WAT     H240695   1.857   7.808   8.681
13485WAT      O40696   6.610   5.828   1.229
13485WAT     H140697   6.631   5.794   1.138
13485WAT     H240698   6.542   5.901   1.223
13486WAT      O40699   9.868   3.806   2.923
13486WAT     H140700   9.849   3.850   2.836
13486WAT     H240701   9.784   3.770   2.962
13487WAT      O40702   4.814   8.200   4.771
13487WAT     H140703   4.855   8.110   4.785
13487WAT     H240704   4.782   8.207   4.676
13488WAT      O40705   2.066   9.293   8.669
13488WAT     H140706   2.154   9.276   8.713
13488WAT     H240707   2.080   9.347   8.586
13489WAT      O40708   8.148   1.156   5.852
13489WAT     H140709   8.201   1.232   5.890
13489WAT     H240710   8.053   1.162   5.884
13490WAT      O40711   8.585   4.671   2.879
13490WAT     H140712   8.567   4.576   2.853
13490WAT     H240713   8.506   4.709   2.927
13491WAT      O40714   3.373   0.186   0.587
13491WAT     H140715   3.283   0.168   0.626
13491WAT     H240716   3.363   0.235   0.501
13492WAT      O40717   3.420   0.987   8.758
13492WAT     H140718   3.444   0.890   8.751
13492WAT     H240719   3.425   1.016   8.853
13493WAT      O40720   5.623   9.163   8.779
13493WAT     H140721   5.688   9.231   8.815
13493WAT     H240722   5.639   9.075   8.824
13494WAT      O40723   9.388   1.962   2.635
13494WAT     H140724   9.355   1.881   2.587
13494WAT     H240725   9.418   2.030   2.569
13495WAT      O40726   1.778   6.641   0.555
13495WAT     H140727   1.728   6.555   0.547
13495WAT     H240728   1.777   6.689   0.468
13496WAT      O40729   0.558   6.888   8.516
13496WAT     H140730   0.572   6.973   8.465
13496WAT     H240731   0.624   6.883   8.591
13497WAT      O40732   1.171   1.654   6.672
13497WAT     H140733   1.104   1.656   6.597
13497WAT     H240734   1.171   1.563   6.714
13498WAT      O40735   7.886   4.785   4.924
13498WAT     H140736   7.807   4.795   4.863
13498WAT     H240737   7.886   4.693   4.962
13499WAT      O40738   5.268   4.450   6.779
13499WAT     H140739   5.350   4.445   6.722
13499WAT     H240740   5.289   4.417   6.871
13500WAT      O40741   6.381   4.866   5.838
13500WAT     H140742   6.432   4.802   5.781
13500WAT     H240743   6.346   4.818   5.919
13501WAT      O40744   8.477   0.158   6.298
13501WAT     H140745   8.397   0.214   6.280
13501WAT     H240746   8.508   0.115   6.213
13502WAT      O40747   0.645   9.474   9.590
13502WAT     H140748   0.553   9.511   9.576
13502WAT     H240749   0.675   9.427   9.506
13503WAT      O40750   9.167   8.572   6.682
13503WAT     H140751   9.208   8.635   6.617
13503WAT     H240752   9.081   8.609   6.715
13504WAT      O40753   2.466   1.219   8.970
13504WAT     H140754   2.529   1.184   8.901
13504WAT     H240755   2.510   1.219   9.059
13505WAT      O40756   2.414   5.153   6.052
13505WAT     H140757   2.511   5.174   6.056
13505WAT     H240758   2.375   5.193   5.969
13506WAT      O40759   9.786   8.415   2.219
13506WAT     H140760   9.847   8.341   2.248
13506WAT     H240761   9.801   8.435   2.122
13507WAT      O40762   3.010   6.970   1.385
13507WAT     H140763   2.997   7.034   1.461
13507WAT     H240764   2.922   6.930   1.360
13508WAT      O40765   2.422   5.878   8.580
13508WAT     H140766   2.341   5.856   8.634
13508WAT     H240767   2.504   5.864   8.636
13509WAT      O40768   4.805   1.497   1.824
13509WAT     H140769   4.838   1.419   1.771
13509WAT     H240770   4.759   1.464   1.906
13510WAT      O40771   1.916   3.696   5.619
13510WAT     H140772   2.003   3.743   5.634
13510WAT     H240773   1.884   3.714   5.526
13511WAT      O40774   3.736   8.966   8.449
13511WAT     H140775   3.670   8.983   8.522
13511WAT     H240776   3.706   9.011   8.365
13512WAT      O40777   4.831   7.027   6.591
13512WAT     H140778   4.767   6.950   6.590
13512WAT     H240779   4.910   7.005   6.533
13513WAT      O40780   6.896   9.012   0.117
13513WAT     H140781   6.822   8.945   0.125
13513WAT     H240782   6.923   9.021   0.021
13514WAT      O40783   1.719   2.138   0.855
13514WAT     H140784   1.653   2.207   0.885
13514WAT     H240785   1.701   2.052   0.902
13515WAT      O40786   7.031   5.591   0.833
13515WAT     H140787   7.088   5.651   0.889
13515WAT     H240788   7.064   5.590   0.739
13516WAT      O40789   3.512   9.218   6.216
13516WAT     H140790   3.600   9.172   6.204
13516WAT     H240791   3.482   9.207   6.311
13517WAT      O40792   6.948   4.901   7.360
13517WAT     H140793   6.885   4.876   7.434
13517WAT     H240794   6.929   4.847   7.279
13518WAT      O40795   5.064   2.230   4.161
13518WAT     H140796   4.982   2.173   4.154
13518WAT     H240797   5.143   2.180   4.126
13519WAT      O40798   8.625   6.306   5.985
13519WAT     H140799   8.666   6.365   6.054
13519WAT     H240800   8.528   6.292   6.007
13520WAT      O40801   3.808   1.487   0.613
13520WAT     H140802   3.852   1.571   0.645
13520WAT     H240803   3.757   1.505   0.530
13521WAT      O40804   2.105   1.755   8.201
13521WAT     H140805   2.058   1.672   8.229
13521WAT     H240806   2.042   1.812   8.147
13522WAT      O40807   6.916   5.811   8.681
13522WAT     H140808   6.908   5.812   8.780
13522WAT     H240809   6.830   5.843   8.640
13523WAT      O40810   4.329   0.258   9.799
13523WAT     H140811   4.296   0.177   9.847
13523WAT     H240812   4.426   0.248   9.778
13524WAT      O40813   8.580   8.398   7.920
13524WAT     H140814   8.497   8.399   7.975
13524WAT     H240815   8.622   8.489   7.922
13525WAT      O40816   6.090   9.105   6.981
13525WAT     H140817   6.027   9.165   7.031
13525WAT     H240818   6.104   9.140   6.889
13526WAT      O40819   6.773   1.010   0.231
13526WAT     H140820   6.793   0.912   0.223
13526WAT     H240821   6.832   1.061   0.169
13527WAT      O40822   8.325   4.839   7.238
13527WAT     H140823   8.399   4.814   7.300
13527WAT     H240824   8.237   4.820   7.281
13528WAT      O40825   1.671   9.746   3.007
13528WAT     H140826   1.683   9.835   3.053
13528WAT     H240827   1.620   9.685   3.066
13529WAT      O40828   4.320   2.728   4.330
13529WAT     H140829   4.388   2.772   4.271
13529WAT     H240830   4.341   2.630   4.336
13530WAT      O40831   9.474   8.752   6.347
13530WAT     H140832   9.415   8.713   6.276
13530WAT     H240833   9.570   8.730   6.327
13531WAT      O40834   0.782   9.577   2.322
13531WAT     H140835   0.703   9.638   2.327
13531WAT     H240836   0.817   9.560   2.415
13532WAT      O40837   1.951   8.666   0.586
13532WAT     H140838   1.964   8.764   0.578
13532WAT     H240839   1.869   8.648   0.641
13533WAT      O40840   1.186   2.980   9.412
13533WAT     H140841   1.180   3.073   9.377
13533WAT     H240842   1.269   2.970   9.468
13534WAT      O40843   7.593   0.009   9.122
13534WAT     H140844   7.594   0.083   9.189
13534WAT     H240845   7.590   0.048   9.030
13535WAT      O40846   7.982   4.265   9.452
13535WAT     H140847   8.015   4.189   9.508
13535WAT     H240848   7.915   4.231   9.386
13536WAT      O40849   8.835   8.585   1.743
13536WAT     H140850   8.819   8.682   1.723
13536WAT     H240851   8.892   8.546   1.672
13537WAT      O40852   6.349   5.009   7.561
13537WAT     H140853   6.269   5.062   7.533
13537WAT     H240854   6.370   5.027   7.657
13538WAT      O40855   7.302   2.495   2.931
13538WAT     H140856   7.270   2.422   2.870
13538WAT     H240857   7.367   2.554   2.883
13539WAT      O40858   3.321   3.513   7.239
13539WAT     H140859   3.233   3.506   7.286
13539WAT     H240860   3.307   3.555   7.149
13540WAT      O40861   7.560   0.298   0.340
13540WAT     H140862   7.592   0.245   0.261
13540WAT     H240863   7.460   0.298   0.340
13541WAT      O40864   3.775   7.373   5.306
13541WAT     H140865   3.734   7.343   5.220
13541WAT     H240866   3.841   7.304   5.338
13542WAT      O40867   5.367   2.143   6.277
13542WAT     H140868   5.445   2.113   6.332
13542WAT     H240869   5.282   2.108   6.317
13543WAT      O40870   2.170   8.101   1.369
13543WAT     H140871   2.195   8.070   1.277
13543WAT     H240872   2.245   8.155   1.407
13544WAT      O40873   8.066   9.021   1.970
13544WAT     H140874   8.105   9.110   1.945
13544WAT     H240875   8.040   8.972   1.887
13545WAT      O40876   0.798   6.342   5.259
13545WAT     H140877   0.841   6.414   5.204
13545WAT     H240878   0.716   6.310   5.212
13546WAT      O40879   7.663   8.783   3.997
13546WAT     H140880   7.570   8.746   4.007
13546WAT     H240881   7.724   8.712   3.963
13547WAT      O40882   7.825   7.973   8.092
13547WAT     H140883   7.756   8.025   8.041
13547WAT     H240884   7.808   7.875   8.082
13548WAT      O40885   5.486   3.752   7.167
13548WAT     H140886   5.493   3.680   7.098
13548WAT     H240887   5.543   3.830   7.140
13549WAT      O40888   6.684   8.151   5.342
13549WAT     H140889   6.728   8.222   5.397
13549WAT     H240890   6.630   8.192   5.269
13550WAT      O40891   8.833   7.538   0.521
13550WAT     H140892   8.859   7.465   0.457
13550WAT     H240893   8.758   7.506   0.579
13551WAT      O40894   6.308   9.631   4.060
13551WAT     H140895   6.216   9.594   4.055
13551WAT     H240896   6.373   9.557   4.079
13552WAT      O40897   2.809   1.407   4.628
13552WAT     H140898   2.884   1.412   4.693
13552WAT     H240899   2.727   1.371   4.673
13553WAT      O40900   8.133   7.236   8.881
13553WAT     H140901   8.185   7.300   8.825
13553WAT     H240902   8.184   7.150   8.889
13554WAT      O40903   7.681   8.208   7.614
13554WAT     H140904   7.738   8.222   7.533
13554WAT     H240905   7.674   8.110   7.633
13555WAT      O40906   4.417   3.551   9.866
13555WAT     H140907   4.331   3.504   9.845
13555WAT     H240908   4.488   3.482   9.886
13556WAT      O40909   9.475   4.881   2.511
13556WAT     H140910   9.515   4.805   2.460
13556WAT     H240911   9.381   4.858   2.536
13557WAT      O40912   7.804   8.806   8.588
13557WAT     H140913   7.846   8.747   8.519
13557WAT     H240914   7.802   8.759   8.676
13558WAT      O40915   2.676   1.364   2.166
13558WAT     H140916   2.611   1.306   2.216
13558WAT     H240917   2.637   1.456   2.157
13559WAT      O40918   0.803   0.476   8.526
13559WAT     H140919   0.773   0.387   8.558
13559WAT     H240920   0.782   0.546   8.595
13560WAT      O40921   9.199   3.144   3.906
13560WAT     H140922   9.130   3.107   3.969
13560WAT     H240923   9.189   3.101   3.816
13561WAT      O40924   0.891   6.696   5.731
13561WAT     H140925   0.860   6.703   5.825
13561WAT     H240926   0.821   6.732   5.669
13562WAT      O40927   5.755   3.545   4.950
13562WAT     H140928   5.773   3.451   4.980
13562WAT     H240929   5.798   3.559   4.860
13563WAT      O40930   8.956   3.708   7.014
13563WAT     H140931   9.053   3.723   7.028
13563WAT     H240932   8.935   3.717   6.916
13564WAT      O40933   7.620   2.479   6.901
13564WAT     H140934   7.634   2.573   6.931
13564WAT     H240935   7.704   2.427   6.914
13565WAT      O40936   1.106   4.509   5.537
13565WAT     H140937   1.049   4.580   5.496
13565WAT     H240938   1.152   4.458   5.465
13566WAT      O40939   8.974   4.121   0.037
13566WAT     H140940   8.964   4.032   0.082
13566WAT     H240941   9.067   4.129   0.000
13567WAT      O40942   0.813   3.278   3.017
13567WAT     H140943   0.824   3.205   3.085
13567WAT     H240944   0.840   3.366   3.058
13568WAT      O40945   5.173   8.405   3.404
13568WAT     H140946   5.210   8.318   3.436
13568WAT     H240947   5.101   8.388   3.337
13569WAT      O40948   3.619   2.791   9.049
13569WAT     H140949   3.604   2.710   8.992
13569WAT     H240950   3.562   2.866   9.015
13570WAT      O40951   6.752   1.656   3.566
13570WAT     H140952   6.693   1.580   3.540
13570WAT     H240953   6.786   1.703   3.484
13571WAT      O40954   2.821   2.186   8.308
13571WAT     H140955   2.840   2.224   8.398
13571WAT     H240956   2.907   2.163   8.262
13572WAT      O40957   5.364   6.918   6.453
13572WAT     H140958   5.431   6.953   6.517
13572WAT     H240959   5.373   6.819   6.445
13573WAT      O40960   2.941   2.187   1.544
13573WAT     H140961   2.919   2.274   1.499
13573WAT     H240962   2.998   2.205   1.624
13574WAT      O40963   6.105   3.256   7.284
13574WAT     H140964   6.108   3.240   7.185
13574WAT     H240965   6.028   3.207   7.324
13575WAT      O40966   2.763   5.539   0.483
13575WAT     H140967   2.838   5.494   0.531
13575WAT     H240968   2.690   5.473   0.466
13576WAT      O40969   5.332   8.152   3.497
13576WAT     H140970   5.264   8.108   3.556
13576WAT     H240971   5.421   8.108   3.510
13577WAT      O40972   7.254   5.706   0.938
13577WAT     H140973   7.289   5.704   1.031
13577WAT     H240974   7.331   5.700   0.874
13578WAT      O40975   8.656   4.011   2.980
13578WAT     H140976   8.679   3.948   3.055
13578WAT     H240977   8.717   4.090   2.983
13579WAT      O40978   4.528   0.705   5.582
13579WAT     H140979   4.558   0.666   5.669
13579WAT     H240980   4.606   0.714   5.521
13580WAT      O40981   1.292   9.445   5.588
13580WAT     H140982   1.226   9.477   5.520
13580WAT     H240983   1.255   9.460   5.680
13581WAT      O40984   4.084   2.056   0.623
13581WAT     H140985   3.998   2.009   0.639
13581WAT     H240986   4.095   2.130   0.689
13582WAT      O40987   6.764   7.498   3.803
13582WAT     H140988   6.826   7.558   3.855
13582WAT     H240989   6.741   7.541   3.716
13583WAT      O40990   4.458   5.390   0.555
13583WAT     H140991   4.516   5.317   0.521
13583WAT     H240992   4.432   5.372   0.650
13584WAT      O40993   7.049   2.326   0.545
13584WAT     H140994   7.031   2.414   0.501
13584WAT     H240995   7.073   2.258   0.475
13585WAT      O40996   3.159   5.541   1.510
13585WAT     H140997   3.119   5.472   1.449
13585WAT     H240998   3.162   5.505   1.603
13586WAT      O40999   3.636   2.389   2.886
13586WAT     H141000   3.688   2.459   2.936
13586WAT     H241001   3.690   2.355   2.809
13587WAT      O41002   8.789   0.040   5.741
13587WAT     H141003   8.824   0.032   5.834
13587WAT     H241004   8.863   0.072   5.681
13588WAT      O41005   1.440   6.409   1.379
13588WAT     H141006   1.518   6.446   1.430
13588WAT     H241007   1.362   6.471   1.390
13589WAT      O41008   2.558   6.012   5.256
13589WAT     H141009   2.517   6.085   5.201
13589WAT     H241010   2.556   6.038   5.352
13590WAT      O41011   8.569   5.416   0.205
13590WAT     H141012   8.498   5.368   0.256
13590WAT     H241013   8.582   5.507   0.243
13591WAT      O41014   4.738   3.652   4.066
13591WAT     H141015   4.743   3.695   3.975
13591WAT     H241016   4.702   3.717   4.132
13592WAT      O41017   1.459   4.869   8.150
13592WAT     H141018   1.540   4.824   8.113
13592WAT     H241019   1.381   4.807   8.142
13593WAT      O41020   4.704   7.793   7.584
13593WAT     H141021   4.746   7.714   7.539
13593WAT     H241022   4.666   7.855   7.515
13594WAT      O41023   0.683   7.179   6.087
13594WAT     H141024   0.679   7.240   6.166
13594WAT     H241025   0.770   7.129   6.087
13595WAT      O41026   9.535   7.049   6.581
13595WAT     H141027   9.533   6.988   6.660
13595WAT     H241028   9.459   7.028   6.520
13596WAT      O41029   4.756   6.491   6.937
13596WAT     H141030   4.739   6.589   6.951
13596WAT     H241031   4.691   6.439   6.991
13597WAT      O41032   4.840   6.587   9.775
13597WAT     H141033   4.795   6.670   9.807
13597WAT     H241034   4.834   6.516   9.845
13598WAT      O41035   3.967   7.718   6.149
13598WAT     H141036   3.932   7.754   6.236
13598WAT     H241037   3.897   7.725   6.079
13599WAT      O41038   7.863   4.502   9.573
13599WAT     H141039   7.921   4.428   9.539
13599WAT     H241040   7.778   4.506   9.521
13600WAT      O41041   9.064   2.021   0.508
13600WAT     H141042   9.004   2.051   0.582
13600WAT     H241043   9.014   1.961   0.447
13601WAT      O41044   5.663   7.048   8.539
13601WAT     H141045   5.740   7.093   8.584
13601WAT     H241046   5.697   6.995   8.460
13602WAT      O41047   3.960   7.701   8.669
13602WAT     H141048   3.907   7.724   8.751
13602WAT     H241049   3.927   7.753   8.591
13603WAT      O41050   7.001   0.939   6.354
13603WAT     H141051   6.993   0.852   6.305
13603WAT     H241052   6.930   1.002   6.322
13604WAT      O41053   6.730   7.082   6.149
13604WAT     H141054   6.720   6.984   6.131
13604WAT     H241055   6.690   7.104   6.238
13605WAT      O41056   6.143   6.793   5.104
13605WAT     H141057   6.187   6.881   5.087
13605WAT     H241058   6.208   6.719   5.087
13606WAT      O41059   4.220   7.178   5.582
13606WAT     H141060   4.187   7.111   5.515
13606WAT     H241061   4.319   7.168   5.593
13607WAT      O41062   8.678   5.640   8.913
13607WAT     H141063   8.708   5.578   8.840
13607WAT     H241064   8.750   5.707   8.930
13608WAT      O41065   2.522   4.373   3.257
13608WAT     H141066   2.498   4.421   3.342
13608WAT     H241067   2.443   4.372   3.197
13609WAT      O41068   9.798   8.719   6.788
13609WAT     H141069   9.882   8.677   6.753
13609WAT     H241070   9.755   8.657   6.854
13610WAT      O41071   1.233   7.652   6.620
13610WAT     H141072   1.149   7.704   6.635
13610WAT     H241073   1.222   7.592   6.541
13611WAT      O41074   2.001   7.894   2.393
13611WAT     H141075   2.078   7.920   2.451
13611WAT     H241076   2.033   7.883   2.299
13612WAT      O41077   6.596   2.896   7.978
13612WAT     H141078   6.598   2.831   7.902
13612WAT     H241079   6.651   2.977   7.955
13613WAT      O41080   6.473   9.480   3.193
13613WAT     H141081   6.560   9.520   3.163
13613WAT     H241082   6.479   9.380   3.188
13614WAT      O41083   0.111   9.539   9.292
13614WAT     H141084   0.209   9.549   9.279
13614WAT     H241085   0.093   9.467   9.358
13615WAT      O41086   8.178   0.385   8.499
13615WAT     H141087   8.267   0.425   8.476
13615WAT     H241088   8.140   0.340   8.418
13616WAT      O41089   8.858   5.563   0.050
13616WAT     H141090   8.765   5.599   0.043
13616WAT     H241091   8.865   5.478  -0.002
13617WAT      O41092   0.555   6.115   7.818
13617WAT     H141093   0.544   6.100   7.720
13617WAT     H241094   0.522   6.206   7.842
13618WAT      O41095   0.956   8.784   1.952
13618WAT     H141096   0.995   8.714   1.893
13618WAT     H241097   0.889   8.742   2.013
13619WAT      O41098   0.737   4.908   3.596
13619WAT     H141099   0.807   4.898   3.667
13619WAT     H241100   0.693   4.997   3.606
13620WAT      O41101   8.538   0.747   5.461
13620WAT     H141102   8.579   0.696   5.385
13620WAT     H241103   8.602   0.819   5.490
13621WAT      O41104   4.019   6.774   5.551
13621WAT     H141105   4.027   6.709   5.475
13621WAT     H241106   4.006   6.724   5.636
13622WAT      O41107   4.143   3.688   7.188
13622WAT     H141108   4.137   3.765   7.124
13622WAT     H241109   4.051   3.652   7.206
13623WAT      O41110   3.383   7.229   1.280
13623WAT     H141111   3.440   7.147   1.289
13623WAT     H241112   3.289   7.203   1.261
13624WAT      O41113   9.664   5.610   0.513
13624WAT     H141114   9.676   5.545   0.588
13624WAT     H241115   9.652   5.702   0.550
13625WAT      O41116   5.980   0.543   2.019
13625WAT     H141117   6.032   0.600   1.955
13625WAT     H241118   5.978   0.449   1.985
13626WAT      O41119   3.649   8.456   3.578
13626WAT     H141120   3.610   8.482   3.667
13626WAT     H241121   3.749   8.467   3.581
13627WAT      O41122   5.675   2.604   7.140
13627WAT     H141123   5.610   2.587   7.214
13627WAT     H241124   5.668   2.699   7.110
13628WAT      O41125   1.597   8.164   5.124
13628WAT     H141126   1.642   8.088   5.077
13628WAT     H241127   1.661   8.208   5.186
13629WAT      O41128   1.009   7.302   7.287
13629WAT     H141129   1.019   7.401   7.297
13629WAT     H241130   0.984   7.280   7.193
13630WAT      O41131   3.284   3.286   8.289
13630WAT     H141132   3.358   3.315   8.229
13630WAT     H241133   3.309   3.201   8.335
13631WAT      O41134   5.702   5.895   5.110
13631WAT     H141135   5.659   5.839   5.181
13631WAT     H241136   5.653   5.982   5.102
13632WAT      O41137   0.355   3.177   7.738
13632WAT     H141138   0.413   3.215   7.810
13632WAT     H241139   0.267   3.224   7.737
13633WAT      O41140   8.576   5.631   4.818
13633WAT     H141141   8.656   5.629   4.878
13633WAT     H241142   8.518   5.709   4.841
13634WAT      O41143   6.813   9.195   5.816
13634WAT     H141144   6.734   9.232   5.766
13634WAT     H241145   6.891   9.188   5.754
13635WAT      O41146   2.755   1.988   2.495
13635WAT     H141147   2.746   1.917   2.564
13635WAT     H241148   2.811   1.954   2.420
13636WAT      O41149   1.511   4.688   3.258
13636WAT     H141150   1.499   4.671   3.356
13636WAT     H241151   1.558   4.609   3.217
13637WAT      O41152   6.753   5.288   6.356
13637WAT     H141153   6.678   5.290   6.290
13637WAT     H241154   6.812   5.368   6.343
13638WAT      O41155   6.898   9.020   9.718
13638WAT     H141156   6.969   9.077   9.677
13638WAT     H241157   6.893   8.933   9.671
13639WAT      O41158   1.637   8.501   6.757
13639WAT     H141159   1.546   8.493   6.799
13639WAT     H241160   1.707   8.504   6.829
13640WAT      O41161   4.006   8.773   9.380
13640WAT     H141162   3.965   8.857   9.345
13640WAT     H241163   3.933   8.708   9.405
13641WAT      O41164   1.579   3.996   0.588
13641WAT     H141165   1.522   3.959   0.662
13641WAT     H241166   1.533   4.075   0.547
13642WAT      O41167   3.447   1.325   0.579
13642WAT     H141168   3.421   1.290   0.489
13642WAT     H241169   3.396   1.409   0.598
13643WAT      O41170   8.702   4.062   6.091
13643WAT     H141171   8.773   4.107   6.145
13643WAT     H241172   8.635   4.130   6.062
13644WAT      O41173   9.756   0.671   0.917
13644WAT     H141174   9.699   0.597   0.952
13644WAT     H241175   9.834   0.685   0.977
13645WAT      O41176   3.924   9.501   8.389
13645WAT     H141177   3.883   9.450   8.465
13645WAT     H241178   3.972   9.438   8.328
13646WAT      O41179   5.930   5.617   6.905
13646WAT     H141180   6.003   5.558   6.872
13646WAT     H241181   5.932   5.621   7.005
13647WAT      O41182   1.718   8.614   3.555
13647WAT     H141183   1.722   8.597   3.456
13647WAT     H241184   1.806   8.650   3.585
13648WAT      O41185   5.260   8.591   2.260
13648WAT     H141186   5.277   8.644   2.177
13648WAT     H241187   5.306   8.634   2.338
13649WAT      O41188   6.805   9.521   4.870
13649WAT     H141189   6.781   9.617   4.880
13649WAT     H241190   6.750   9.480   4.797
13650WAT      O41191   4.253   7.757   5.208
13650WAT     H141192   4.263   7.781   5.111
13650WAT     H241193   4.270   7.838   5.265
13651WAT      O41194   5.233   1.353   0.601
13651WAT     H141195   5.150   1.298   0.613
13651WAT     H241196   5.214   1.447   0.632
13652WAT      O41197   6.826   1.844   0.542
13652WAT     H141198   6.920   1.822   0.515
13652WAT     H241199   6.773   1.759   0.544
13653WAT      O41200   5.641   1.544   0.207
13653WAT     H141201   5.618   1.566   0.302
13653WAT     H241202   5.658   1.446   0.198
13654WAT      O41203   1.997   0.451   3.281
13654WAT     H141204   2.034   0.500   3.360
13654WAT     H241205   1.951   0.515   3.220
13655WAT      O41206   6.108   9.392   4.649
13655WAT     H141207   6.043   9.333   4.601
13655WAT     H241208   6.202   9.364   4.627
13656WAT      O41209   0.233   2.577   1.432
13656WAT     H141210   0.185   2.490   1.425
13656WAT     H241211   0.181   2.639   1.492
13657WAT      O41212   9.552   0.150   7.438
13657WAT     H141213   9.625   0.218   7.444
13657WAT     H241214   9.466   0.189   7.469
13658WAT      O41215   3.609   3.133   3.705
13658WAT     H141216   3.608   3.130   3.805
13658WAT     H241217   3.703   3.141   3.673
13659WAT      O41218   8.443   5.530   6.659
13659WAT     H141219   8.369   5.484   6.708
13659WAT     H241220   8.458   5.620   6.700
13660WAT      O41221   0.756   3.300   8.887
13660WAT     H141222   0.742   3.266   8.980
13660WAT     H241223   0.714   3.390   8.878
13661WAT      O41224   0.068   1.869   1.652
13661WAT     H141225   0.042   1.966   1.652
13661WAT     H241226  -0.013   1.813   1.633
13662WAT      O41227   6.554   8.124   6.210
13662WAT     H141228   6.515   8.147   6.120
13662WAT     H241229   6.568   8.025   6.216
13663WAT      O41230   1.716   8.153   8.435
13663WAT     H141231   1.700   8.055   8.444
13663WAT     H241232   1.714   8.196   8.525
13664WAT      O41233   7.566   6.562   3.282
13664WAT     H141234   7.637   6.500   3.315
13664WAT     H241235   7.587   6.655   3.313
13665WAT      O41236   8.832   3.974   1.490
13665WAT     H141237   8.778   3.994   1.572
13665WAT     H241238   8.784   4.007   1.409
13666WAT      O41239   0.384   8.876   7.493
13666WAT     H141240   0.445   8.804   7.528
13666WAT     H241241   0.359   8.937   7.568
13667WAT      O41242   1.810   2.619   0.609
13667WAT     H141243   1.905   2.597   0.586
13667WAT     H241244   1.752   2.539   0.592
13668WAT      O41245   0.078   8.802   1.962
13668WAT     H141246   0.156   8.838   1.910
13668WAT     H241247   0.027   8.739   1.904
13669WAT      O41248   8.506   3.978   6.920
13669WAT     H141249   8.422   3.999   6.870
13669WAT     H241250   8.559   3.911   6.869
13670WAT      O41251   5.984   4.833   1.007
13670WAT     H141252   5.900   4.886   1.022
13670WAT     H241253   6.046   4.884   0.948
13671WAT      O41254   8.605   9.827   4.986
13671WAT     H141255   8.536   9.860   4.921
13671WAT     H241256   8.627   9.899   5.052
13672WAT      O41257   0.481   1.595   4.069
13672WAT     H141258   0.562   1.632   4.023
13672WAT     H241259   0.424   1.549   4.001
13673WAT      O41260   3.724   7.759   0.054
13673WAT     H141261   3.706   7.856   0.062
13673WAT     H241262   3.650   7.715   0.003
13674WAT      O41263   6.945   1.070   0.993
13674WAT     H141264   6.906   1.040   1.081
13674WAT     H241265   7.000   1.152   1.007
13675WAT      O41266   9.150   2.805   6.322
13675WAT     H141267   9.202   2.749   6.257
13675WAT     H241268   9.214   2.856   6.380
13676WAT      O41269   0.342   1.295   1.845
13676WAT     H141270   0.441   1.307   1.855
13676WAT     H241271   0.306   1.367   1.785
13677WAT      O41272   3.580   7.843   3.345
13677WAT     H141273   3.628   7.761   3.314
13677WAT     H241274   3.638   7.923   3.331
13678WAT      O41275   6.988   3.584   9.429
13678WAT     H141276   7.005   3.490   9.397
13678WAT     H241277   6.898   3.588   9.474
13679WAT      O41278   2.162   6.049   1.363
13679WAT     H141279   2.149   6.129   1.305
13679WAT     H241280   2.131   6.070   1.456
13680WAT      O41281   9.654   5.852   6.691
13680WAT     H141282   9.589   5.896   6.753
13680WAT     H241283   9.686   5.766   6.731
13681WAT      O41284   5.598   4.227   9.655
13681WAT     H141285   5.523   4.289   9.681
13681WAT     H241286   5.646   4.197   9.737
13682WAT      O41287   6.959   5.557   1.724
13682WAT     H141288   6.908   5.492   1.668
13682WAT     H241289   6.905   5.640   1.737
13683WAT      O41290   3.410   6.047   1.555
13683WAT     H141291   3.321   6.006   1.535
13683WAT     H241292   3.417   6.136   1.511
13684WAT      O41293   6.248   5.785   3.157
13684WAT     H141294   6.331   5.786   3.102
13684WAT     H241295   6.213   5.691   3.163
13685WAT      O41296   7.081   1.023   1.974
13685WAT     H141297   7.003   1.039   2.035
13685WAT     H241298   7.092   0.925   1.959
13686WAT      O41299   8.383   8.132   5.409
13686WAT     H141300   8.292   8.174   5.403
13686WAT     H241301   8.436   8.158   5.328
13687WAT      O41302   8.543   7.867   1.368
13687WAT     H141303   8.443   7.874   1.373
13687WAT     H241304   8.573   7.892   1.276
13688WAT      O41305   9.516   5.153   9.548
13688WAT     H141306   9.507   5.066   9.597
13688WAT     H241307   9.438   5.164   9.486
13689WAT      O41308   3.163   2.934   4.780
13689WAT     H141309   3.080   2.971   4.739
13689WAT     H241310   3.140   2.853   4.834
13690WAT      O41311   8.395   2.544   4.889
13690WAT     H141312   8.323   2.567   4.824
13690WAT     H241313   8.463   2.618   4.891
13691WAT      O41314   3.241   8.880   7.458
13691WAT     H141315   3.238   8.797   7.513
13691WAT     H241316   3.190   8.953   7.504
13692WAT      O41317   3.241   9.321   7.552
13692WAT     H141318   3.148   9.292   7.574
13692WAT     H241319   3.247   9.343   7.455
13693WAT      O41320   4.623   6.634   1.794
13693WAT     H141321   4.558   6.602   1.724
13693WAT     H241322   4.708   6.583   1.786
13694WAT      O41323   2.150   0.423   6.431
13694WAT     H141324   2.091   0.354   6.389
13694WAT     H241325   2.101   0.467   6.506
13695WAT      O41326   2.871   6.011   0.940
13695WAT     H141327   2.781   6.053   0.947
13695WAT     H241328   2.918   6.018   1.029
13696WAT      O41329   1.977   5.831   1.572
13696WAT     H141330   2.027   5.918   1.571
13696WAT     H241331   1.961   5.800   1.478
13697WAT      O41332   5.127   5.591   1.899
13697WAT     H141333   5.133   5.492   1.915
13697WAT     H241334   5.055   5.609   1.832
13698WAT      O41335   4.246   1.912   2.172
13698WAT     H141336   4.331   1.963   2.162
13698WAT     H241337   4.168   1.971   2.153
13699WAT      O41338   9.305   5.556   5.662
13699WAT     H141339   9.400   5.581   5.645
13699WAT     H241340   9.245   5.630   5.634
13700WAT      O41341   3.520   4.417   3.776
13700WAT     H141342   3.450   4.487   3.758
13700WAT     H241343   3.479   4.340   3.824
13701WAT      O41344   8.795   3.839   8.742
13701WAT     H141345   8.850   3.783   8.803
13701WAT     H241346   8.764   3.921   8.791
13702WAT      O41347   8.616   6.157   2.773
13702WAT     H141348   8.537   6.218   2.772
13702WAT     H241349   8.585   6.063   2.760
13703WAT      O41350   7.281   1.802   7.457
13703WAT     H141351   7.265   1.788   7.554
13703WAT     H241352   7.315   1.717   7.416
13704WAT      O41353   9.880   3.425   7.630
13704WAT     H141354   9.979   3.437   7.636
13704WAT     H241355   9.835   3.483   7.698
13705WAT      O41356   6.822   2.236   6.804
13705WAT     H141357   6.754   2.308   6.801
13705WAT     H241358   6.798   2.170   6.875
13706WAT      O41359   0.414   9.437   2.731
13706WAT     H141360   0.419   9.348   2.775
13706WAT     H241361   0.322   9.450   2.694
13707WAT      O41362   9.861   1.636   7.686
13707WAT     H141363   9.896   1.725   7.656
13707WAT     H241364   9.877   1.625   7.784
13708WAT      O41365   1.272   5.141   4.032
13708WAT     H141366   1.337   5.136   3.956
13708WAT     H241367   1.322   5.163   4.116
13709WAT      O41368   7.587   9.723   3.432
13709WAT     H141369   7.617   9.786   3.360
13709WAT     H241370   7.665   9.670   3.464
13710WAT      O41371   8.366   6.910   8.057
13710WAT     H141372   8.465   6.897   8.058
13710WAT     H241373   8.334   6.916   7.962
13711WAT      O41374   6.225   5.681   2.395
13711WAT     H141375   6.298   5.732   2.439
13711WAT     H241376   6.168   5.637   2.464
13712WAT      O41377   6.334   8.701   1.634
13712WAT     H141378   6.351   8.698   1.732
13712WAT     H241379   6.419   8.718   1.586
13713WAT      O41380   0.573   9.737   5.435
13713WAT     H141381   0.589   9.686   5.350
13713WAT     H241382   0.640   9.811   5.442
13714WAT      O41383   2.203   2.082   0.749
13714WAT     H141384   2.172   1.990   0.726
13714WAT     H241385   2.195   2.140   0.668
13715WAT      O41386   3.496   5.500   3.081
13715WAT     H141387   3.424   5.521   3.015
13715WAT     H241388   3.489   5.563   3.158
13716WAT      O41389   1.078   1.547   8.920
13716WAT     H141390   1.089   1.488   9.000
13716WAT     H241391   1.166   1.557   8.873
13717WAT      O41392   4.480   6.399   0.928
13717WAT     H141393   4.548   6.472   0.935
13717WAT     H241394   4.525   6.312   0.907
13718WAT      O41395   6.225   8.988   1.404
13718WAT     H141396   6.316   9.021   1.430
13718WAT     H241397   6.156   9.056   1.430
13719WAT      O41398   8.874   9.371   3.577
13719WAT     H141399   8.819   9.426   3.515
13719WAT     H241400   8.958   9.342   3.532
13720WAT      O41401   4.987   8.527   2.626
13720WAT     H141402   5.000   8.522   2.725
13720WAT     H241403   4.923   8.456   2.597
13721WAT      O41404   5.978   5.133   5.779
13721WAT     H141405   5.900   5.080   5.812
13721WAT     H241406   6.051   5.070   5.751
13722WAT      O41407   7.500   9.031   5.786
13722WAT     H141408   7.492   8.994   5.878
13722WAT     H241409   7.584   8.998   5.743
13723WAT      O41410   5.421   9.077   5.803
13723WAT     H141411   5.478   9.063   5.722
13723WAT     H241412   5.371   9.163   5.795
13724WAT      O41413   2.132   2.796   6.514
13724WAT     H141414   2.068   2.835   6.447
13724WAT     H241415   2.086   2.787   6.602
13725WAT      O41416   0.105   6.915   5.949
13725WAT     H141417   0.090   7.013   5.962
13725WAT     H241418   0.022   6.866   5.974
13726WAT      O41419   4.756   7.870   8.894
13726WAT     H141420   4.663   7.896   8.866
13726WAT     H241421   4.798   7.947   8.943
13727WAT      O41422   3.511   7.103   5.626
13727WAT     H141423   3.575   7.029   5.646
13727WAT     H241424   3.557   7.191   5.637
13728WAT      O41425   7.117   4.112   2.642
13728WAT     H141426   7.093   4.109   2.739
13728WAT     H241427   7.098   4.203   2.606
13729WAT      O41428   6.817   3.922   0.630
13729WAT     H141429   6.832   3.919   0.531
13729WAT     H241430   6.887   3.979   0.673
13730WAT      O41431   7.253   1.208   7.821
13730WAT     H141432   7.293   1.135   7.766
13730WAT     H241433   7.277   1.296   7.782
13731WAT      O41434   5.448   8.712   6.271
13731WAT     H141435   5.364   8.683   6.225
13731WAT     H241436   5.454   8.812   6.266
13732WAT      O41437   7.679   6.922   5.923
13732WAT     H141438   7.654   6.826   5.936
13732WAT     H241439   7.662   6.972   6.007
13733WAT      O41440   4.928   0.439   5.858
13733WAT     H141441   4.998   0.503   5.888
13733WAT     H241442   4.969   0.349   5.844
13734WAT      O41443   8.703   7.901   4.984
13734WAT     H141444   8.768   7.827   5.004
13734WAT     H241445   8.610   7.870   5.001
13735WAT      O41446   9.713   1.576   3.087
13735WAT     H141447   9.728   1.504   3.020
13735WAT     H241448   9.790   1.639   3.087
13736WAT      O41449   3.682   9.421   4.996
13736WAT     H141450   3.585   9.443   4.984
13736WAT     H241451   3.734   9.454   4.917
13737WAT      O41452   1.585   4.186   6.399
13737WAT     H141453   1.657   4.162   6.464
13737WAT     H241454   1.574   4.113   6.332
13738WAT      O41455   6.173   9.803   8.510
13738WAT     H141456   6.081   9.817   8.473
13738WAT     H241457   6.203   9.709   8.491
13739WAT      O41458   1.188   4.496   6.409
13739WAT     H141459   1.254   4.522   6.338
13739WAT     H241460   1.206   4.401   6.437
13740WAT      O41461   9.370   4.383   4.885
13740WAT     H141462   9.277   4.417   4.900
13740WAT     H241463   9.433   4.430   4.946
13741WAT      O41464   9.610   9.433   1.752
13741WAT     H141465   9.613   9.404   1.848
13741WAT     H241466   9.556   9.367   1.699
13742WAT      O41467   7.433   8.028   6.764
13742WAT     H141468   7.485   8.103   6.804
13742WAT     H241469   7.376   8.062   6.689
13743WAT      O41470   3.419   5.881   8.431
13743WAT     H141471   3.410   5.888   8.530
13743WAT     H241472   3.335   5.843   8.392
13744WAT      O41473   5.752   1.177   3.451
13744WAT     H141474   5.833   1.206   3.399
13744WAT     H241475   5.781   1.125   3.531
13745WAT      O41476   1.790   5.329   3.224
13745WAT     H141477   1.828   5.298   3.312
13745WAT     H241478   1.801   5.257   3.156
13746WAT      O41479   6.995   2.617   5.112
13746WAT     H141480   7.062   2.544   5.105
13746WAT     H241481   7.007   2.665   5.199
13747WAT      O41482   3.611   6.302   2.480
13747WAT     H141483   3.708   6.316   2.458
13747WAT     H241484   3.572   6.234   2.418
13748WAT      O41485   2.392   7.092   2.675
13748WAT     H141486   2.293   7.100   2.682
13748WAT     H241487   2.418   7.072   2.581
13749WAT      O41488   5.713   8.540   8.048
13749WAT     H141489   5.705   8.634   8.080
13749WAT     H241490   5.663   8.479   8.111
13750WAT      O41491   4.811   0.332   9.271
13750WAT     H141492   4.799   0.237   9.242
13750WAT     H241493   4.732   0.361   9.325
13751WAT      O41494   0.194   0.809   5.463
13751WAT     H141495   0.194   0.867   5.544
13751WAT     H241496   0.118   0.837   5.403
13752WAT      O41497   5.718   7.698   4.519
13752WAT     H141498   5.806   7.708   4.566
13752WAT     H241499   5.692   7.786   4.479
13753WAT      O41500   3.073   6.961   4.471
13753WAT     H141501   3.132   6.985   4.548
13753WAT     H241502   3.100   6.872   4.435
13754WAT      O41503   6.263   4.918   6.193
13754WAT     H141504   6.334   4.978   6.230
13754WAT     H241505   6.174   4.945   6.229
13755WAT      O41506   0.455   7.289   8.879
13755WAT     H141507   0.488   7.360   8.817
13755WAT     H241508   0.382   7.326   8.936
13756WAT      O41509   7.626   0.079   5.827
13756WAT     H141510   7.663   0.112   5.914
13756WAT     H241511   7.664  -0.011   5.806
13757WAT      O41512   0.351   1.430   2.329
13757WAT     H141513   0.347   1.335   2.299
13757WAT     H241514   0.258   1.464   2.345
13758WAT      O41515   7.505   4.904   3.872
13758WAT     H141516   7.432   4.943   3.816
13758WAT     H241517   7.524   4.964   3.950
13759WAT      O41518   3.956   6.596   8.480
13759WAT     H141519   4.022   6.599   8.556
13759WAT     H241520   3.904   6.511   8.484
13760WAT      O41521   2.108   7.299   1.409
13760WAT     H141522   2.036   7.233   1.432
13760WAT     H241523   2.069   7.373   1.354
13761WAT      O41524   6.722   8.495   5.216
13761WAT     H141525   6.670   8.580   5.214
13761WAT     H241526   6.666   8.421   5.180
13762WAT      O41527   8.051   8.625   6.137
13762WAT     H141528   8.089   8.548   6.086
13762WAT     H241529   8.084   8.711   6.096
13763WAT      O41530   4.658   9.596   9.603
13763WAT     H141531   4.562   9.581   9.581
13763WAT     H241532   4.664   9.652   9.686
13764WAT      O41533   0.274   5.453   0.804
13764WAT     H141534   0.302   5.511   0.728
13764WAT     H241535   0.199   5.496   0.854
13765WAT      O41536   7.750   2.152   2.471
13765WAT     H141537   7.682   2.202   2.525
13765WAT     H241538   7.725   2.158   2.374
13766WAT      O41539   0.029   3.271   6.533
13766WAT     H141540   0.110   3.226   6.497
13766WAT     H241541   0.052   3.321   6.617
13767WAT      O41542   2.118   1.411   4.147
13767WAT     H141543   2.025   1.386   4.120
13767WAT     H241544   2.117   1.448   4.240
13768WAT      O41545   8.321   4.031   6.740
13768WAT     H141546   8.255   4.087   6.691
13768WAT     H241547   8.286   3.937   6.749
13769WAT      O41548   2.690   4.374   4.634
13769WAT     H141549   2.726   4.327   4.553
13769WAT     H241550   2.738   4.342   4.715
13770WAT      O41551   3.933   0.028   4.180
13770WAT     H141552   3.977   0.046   4.268
13770WAT     H241553   3.992  -0.030   4.124
13771WAT      O41554   0.298   5.687   7.241
13771WAT     H141555   0.335   5.768   7.287
13771WAT     H241556   0.373   5.623   7.222
13772WAT      O41557   5.380   4.668   2.802
13772WAT     H141558   5.437   4.749   2.785
13772WAT     H241559   5.297   4.674   2.747
13773WAT      O41560   6.404   9.321   0.448
13773WAT     H141561   6.332   9.252   0.451
13773WAT     H241562   6.374   9.403   0.497
13774WAT      O41563   4.915   3.231   9.291
13774WAT     H141564   4.845   3.167   9.259
13774WAT     H241565   4.920   3.228   9.391
13775WAT      O41566   6.252   8.494   8.262
13775WAT     H141567   6.326   8.443   8.219
13775WAT     H241568   6.193   8.432   8.313
13776WAT      O41569   4.696   3.827   1.330
13776WAT     H141570   4.763   3.871   1.391
13776WAT     H241571   4.665   3.893   1.262
13777WAT      O41572   7.901   7.055   2.155
13777WAT     H141573   7.918   6.960   2.129
13777WAT     H241574   7.913   7.064   2.254
13778WAT      O41575   4.290   0.034   5.317
13778WAT     H141576   4.334   0.065   5.402
13778WAT     H241577   4.359  -0.004   5.256
13779WAT      O41578   7.192   9.092   3.452
13779WAT     H141579   7.280   9.102   3.405
13779WAT     H241580   7.132   9.169   3.428
13780WAT      O41581   6.368   1.415   1.903
13780WAT     H141582   6.298   1.453   1.842
13780WAT     H241583   6.459   1.431   1.864
13781WAT      O41584   9.392   0.739   8.089
13781WAT     H141585   9.482   0.755   8.131
13781WAT     H241586   9.388   0.645   8.054
13782WAT      O41587   7.124   2.817   5.849
13782WAT     H141588   7.219   2.805   5.822
13782WAT     H241589   7.107   2.772   5.936
13783WAT      O41590   1.958   4.570   6.358
13783WAT     H141591   1.908   4.582   6.272
13783WAT     H241592   1.962   4.473   6.381
13784WAT      O41593   8.486   8.257   0.888
13784WAT     H141594   8.493   8.348   0.929
13784WAT     H241595   8.565   8.202   0.914
13785WAT      O41596   2.080   9.676   3.035
13785WAT     H141597   2.040   9.696   2.946
13785WAT     H241598   2.097   9.762   3.084
13786WAT      O41599   9.311   5.491   0.172
13786WAT     H141600   9.310   5.506   0.073
13786WAT     H241601   9.361   5.566   0.216
13787WAT      O41602   1.381   2.401   9.323
13787WAT     H141603   1.326   2.481   9.297
13787WAT     H241604   1.478   2.423   9.310
13788WAT      O41605   4.136   5.986   3.603
13788WAT     H141606   4.204   5.995   3.530
13788WAT     H241607   4.144   6.062   3.667
13789WAT      O41608   2.932   1.931   3.143
13789WAT     H141609   2.861   1.862   3.161
13789WAT     H241610   3.021   1.896   3.174
13790WAT      O41611   7.315   8.150   8.748
13790WAT     H141612   7.293   8.126   8.654
13790WAT     H241613   7.291   8.075   8.809
13791WAT      O41614   6.344   7.249   5.449
13791WAT     H141615   6.347   7.310   5.528
13791WAT     H241616   6.414   7.178   5.458
13792WAT      O41617   5.813   9.496   9.246
13792WAT     H141618   5.761   9.502   9.160
13792WAT     H241619   5.911   9.501   9.226
13793WAT      O41620   0.531   6.854   5.967
13793WAT     H141621   0.455   6.809   5.920
13793WAT     H241622   0.521   6.953   5.960
13794WAT      O41623   5.321   1.490   6.416
13794WAT     H141624   5.262   1.571   6.423
13794WAT     H241625   5.345   1.475   6.320
13795WAT      O41626   2.025   7.878   7.067
13795WAT     H141627   2.038   7.805   7.000
13795WAT     H241628   2.098   7.945   7.059
13796WAT      O41629   5.684   4.845   2.215
13796WAT     H141630   5.749   4.787   2.264
13796WAT     H241631   5.591   4.828   2.249
13797WAT      O41632   6.200   4.129   1.464
13797WAT     H141633   6.266   4.125   1.539
13797WAT     H241634   6.237   4.084   1.383
13798WAT      O41635   2.959   6.868   3.366
13798WAT     H141636   2.932   6.945   3.424
13798WAT     H241637   3.048   6.886   3.325
13799WAT      O41638   4.286   7.493   2.803
13799WAT     H141639   4.381   7.520   2.785
13799WAT     H241640   4.265   7.410   2.752
13800WAT      O41641   8.830   4.767   8.937
13800WAT     H141642   8.889   4.842   8.966
13800WAT     H241643   8.886   4.696   8.893
13801WAT      O41644   0.390   4.097   1.713
13801WAT     H141645   0.436   4.183   1.735
13801WAT     H241646   0.307   4.088   1.769
13802WAT      O41647   5.146   1.805   0.495
13802WAT     H141648   5.085   1.726   0.490
13802WAT     H241649   5.171   1.821   0.591
13803WAT      O41650   9.745   3.430   5.856
13803WAT     H141651   9.833   3.467   5.826
13803WAT     H241652   9.758   3.339   5.895
13804WAT      O41653   3.087   6.581   2.119
13804WAT     H141654   3.086   6.678   2.092
13804WAT     H241655   3.182   6.553   2.136
13805WAT      O41656   7.788   9.246   3.862
13805WAT     H141657   7.719   9.178   3.888
13805WAT     H241658   7.744   9.336   3.853
13806WAT      O41659   6.923   6.476   4.608
13806WAT     H141660   6.899   6.527   4.525
13806WAT     H241661   6.842   6.427   4.641
13807WAT      O41662   4.632   8.870   2.038
13807WAT     H141663   4.678   8.899   2.123
13807WAT     H241664   4.534   8.886   2.047
13808WAT      O41665   9.314   9.832   7.782
13808WAT     H141666   9.242   9.876   7.728
13808WAT     H241667   9.274   9.797   7.867
13809WAT      O41668   9.644   0.436   3.583
13809WAT     H141669   9.743   0.431   3.591
13809WAT     H241670   9.602   0.380   3.655
13810WAT      O41671   3.275   2.134   9.769
13810WAT     H141672   3.246   2.039   9.761
13810WAT     H241673   3.319   2.148   9.858
13811WAT      O41674   6.856   6.284   6.029
13811WAT     H141675   6.786   6.251   5.966
13811WAT     H241676   6.916   6.208   6.056
13812WAT      O41677   1.636   8.841   0.532
13812WAT     H141678   1.648   8.742   0.539
13812WAT     H241679   1.541   8.865   0.555
13813WAT      O41680   3.858   0.937   4.448
13813WAT     H141681   3.801   0.976   4.375
13813WAT     H241682   3.948   0.981   4.447
13814WAT      O41683   8.667   2.921   7.153
13814WAT     H141684   8.642   2.934   7.249
13814WAT     H241685   8.603   2.971   7.095
13815WAT      O41686   1.019   0.612   0.195
13815WAT     H141687   1.108   0.654   0.214
13815WAT     H241688   0.947   0.664   0.240
13816WAT      O41689   4.762   0.755   6.127
13816WAT     H141690   4.849   0.788   6.091
13816WAT     H241691   4.763   0.762   6.227
13817WAT      O41692   7.362   4.741   9.256
13817WAT     H141693   7.314   4.828   9.270
13817WAT     H241694   7.358   4.687   9.340
13818WAT      O41695   4.859   4.528   9.186
13818WAT     H141696   4.784   4.509   9.249
13818WAT     H241697   4.946   4.525   9.236
13819WAT      O41698   0.716   2.865   0.743
13819WAT     H141699   0.680   2.835   0.654
13819WAT     H241700   0.743   2.961   0.736
13820WAT      O41701   0.272   0.500   2.895
13820WAT     H141702   0.245   0.579   2.841
13820WAT     H241703   0.203   0.482   2.965
13821WAT      O41704   8.677   5.892   8.345
13821WAT     H141705   8.724   5.804   8.354
13821WAT     H241706   8.578   5.877   8.347
13822WAT      O41707   3.133   6.842   1.178
13822WAT     H141708   3.097   6.897   1.253
13822WAT     H241709   3.209   6.891   1.135
13823WAT      O41710   2.291   3.019   6.610
13823WAT     H141711   2.220   2.958   6.574
13823WAT     H241712   2.367   3.025   6.544
13824WAT      O41713   9.093   1.122   4.502
13824WAT     H141714   9.031   1.044   4.509
13824WAT     H241715   9.178   1.094   4.458
13825WAT      O41716   1.452   3.624   1.130
13825WAT     H141717   1.374   3.683   1.114
13825WAT     H241718   1.471   3.620   1.228
13826WAT      O41719   8.640   7.760   5.941
13826WAT     H141720   8.708   7.786   6.010
13826WAT     H241721   8.550   7.791   5.971
13827WAT      O41722   8.326   4.389   5.647
13827WAT     H141723   8.322   4.485   5.676
13827WAT     H241724   8.266   4.334   5.705
13828WAT      O41725   0.468   2.813   1.198
13828WAT     H141726   0.398   2.743   1.179
13828WAT     H241727   0.432   2.881   1.261
13829WAT      O41728   9.306   9.118   0.485
13829WAT     H141729   9.244   9.185   0.444
13829WAT     H241730   9.253   9.053   0.540
13830WAT      O41731   0.043   1.211   5.887
13830WAT     H141732   0.084   1.250   5.805
13830WAT     H241733  -0.032   1.269   5.918
13831WAT      O41734   9.601   1.300   0.466
13831WAT     H141735   9.522   1.337   0.417
13831WAT     H241736   9.634   1.218   0.420
13832WAT      O41737   2.007   7.954   1.496
13832WAT     H141738   1.921   8.003   1.486
13832WAT     H241739   2.079   8.000   1.443
13833WAT      O41740   6.454   5.274   2.295
13833WAT     H141741   6.454   5.174   2.289
13833WAT     H241742   6.360   5.307   2.296
13834WAT      O41743   0.242   2.552   5.702
13834WAT     H141744   0.285   2.597   5.780
13834WAT     H241745   0.295   2.571   5.619
13835WAT      O41746   8.568   6.193   4.974
13835WAT     H141747   8.477   6.231   4.960
13835WAT     H241748   8.561   6.109   5.027
13836WAT      O41749   9.353   5.205   2.783
13836WAT     H141750   9.365   5.172   2.877
13836WAT     H241751   9.441   5.208   2.737
13837WAT      O41752   8.301   8.864   5.728
13837WAT     H141753   8.364   8.814   5.668
13837WAT     H241754   8.211   8.869   5.684
13838WAT      O41755   7.080   5.359   6.586
13838WAT     H141756   7.015   5.285   6.604
13838WAT     H241757   7.168   5.338   6.629
13839WAT      O41758   0.730   1.696   4.013
13839WAT     H141759   0.716   1.785   3.969
13839WAT     H241760   0.774   1.709   4.102
13840WAT      O41761   1.303   1.472   7.398
13840WAT     H141762   1.254   1.425   7.325
13840WAT     H241763   1.346   1.554   7.361
13841WAT      O41764   0.893   1.969   2.605
13841WAT     H141765   0.874   1.888   2.550
13841WAT     H241766   0.864   2.051   2.555
13842WAT      O41767   5.794   7.720   1.185
13842WAT     H141768   5.868   7.786   1.200
13842WAT     H241769   5.780   7.667   1.269
13843WAT      O41770   0.015   1.367   7.467
13843WAT     H141771  -0.012   1.276   7.498
13843WAT     H241772  -0.056   1.404   7.406
13844WAT      O41773   5.454   1.703   2.048
13844WAT     H141774   5.377   1.644   2.021
13844WAT     H241775   5.495   1.742   1.966
13845WAT      O41776   6.270   7.679   8.511
13845WAT     H141777   6.329   7.598   8.522
13845WAT     H241778   6.243   7.713   8.601
13846WAT      O41779   6.900   0.577   1.263
13846WAT     H141780   6.810   0.533   1.267
13846WAT     H241781   6.922   0.617   1.352
13847WAT      O41782   2.819   3.989   4.572
13847WAT     H141783   2.747   3.928   4.539
13847WAT     H241784   2.835   4.062   4.506
13848WAT      O41785   5.410   3.272   6.458
13848WAT     H141786   5.331   3.267   6.396
13848WAT     H241787   5.406   3.197   6.523
13849WAT      O41788   0.581   4.022   9.080
13849WAT     H141789   0.617   4.093   9.019
13849WAT     H241790   0.622   3.934   9.055
13850WAT      O41791   2.905   1.333   5.474
13850WAT     H141792   2.901   1.433   5.465
13850WAT     H241793   2.863   1.291   5.393
13851WAT      O41794   2.352   6.498   0.975
13851WAT     H141795   2.376   6.564   1.047
13851WAT     H241796   2.287   6.432   1.011
13852WAT      O41797   6.165   0.300   8.815
13852WAT     H141798   6.121   0.306   8.904
13852WAT     H241799   6.104   0.339   8.745
13853WAT      O41800   3.609   4.215   1.424
13853WAT     H141801   3.550   4.203   1.344
13853WAT     H241802   3.612   4.130   1.477
13854WAT      O41803   7.065   0.477   8.544
13854WAT     H141804   7.046   0.546   8.613
13854WAT     H241805   6.987   0.415   8.537
13855WAT      O41806   7.481   3.937   2.495
13855WAT     H141807   7.414   3.877   2.538
13855WAT     H241808   7.435   3.999   2.431
13856WAT      O41809   1.639   4.624   6.446
13856WAT     H141810   1.706   4.611   6.519
13856WAT     H241811   1.675   4.589   6.360
13857WAT      O41812   4.320   6.233   7.897
13857WAT     H141813   4.351   6.310   7.840
13857WAT     H241814   4.230   6.253   7.934
13858WAT      O41815   4.467   4.131   3.258
13858WAT     H141816   4.387   4.122   3.316
13858WAT     H241817   4.543   4.167   3.312
13859WAT      O41818   9.352   1.820   7.884
13859WAT     H141819   9.421   1.753   7.911
13859WAT     H241820   9.368   1.905   7.934
13860WAT      O41821   2.689   8.908   8.467
13860WAT     H141822   2.714   8.920   8.371
13860WAT     H241823   2.761   8.946   8.525
13861WAT      O41824   9.007   7.327   1.892
13861WAT     H141825   9.025   7.241   1.844
13861WAT     H241826   8.958   7.389   1.831
13862WAT      O41827   0.766   4.719   7.749
13862WAT     H141828   0.852   4.724   7.800
13862WAT     H241829   0.695   4.677   7.806
13863WAT      O41830   6.850   7.487   9.879
13863WAT     H141831   6.910   7.567   9.877
13863WAT     H241832   6.821   7.469   9.973
13864WAT      O41833   8.615   4.780   5.406
13864WAT     H141834   8.537   4.722   5.430
13864WAT     H241835   8.594   4.875   5.427
13865WAT      O41836   9.832   4.311   5.345
13865WAT     H141837   9.782   4.378   5.289
13865WAT     H241838   9.801   4.219   5.322
13866WAT      O41839   0.462   7.557   4.035
13866WAT     H141840   0.403   7.518   4.107
13866WAT     H241841   0.405   7.596   3.963
13867WAT      O41842   3.418   3.239   4.482
13867WAT     H141843   3.340   3.255   4.422
13867WAT     H241844   3.468   3.158   4.452
13868WAT      O41845   1.729   7.692   3.131
13868WAT     H141846   1.694   7.622   3.192
13868WAT     H241847   1.752   7.651   3.042
13869WAT      O41848   2.253   5.691   8.178
13869WAT     H141849   2.279   5.763   8.242
13869WAT     H241850   2.312   5.695   8.097
13870WAT      O41851   1.740   7.269   1.029
13870WAT     H141852   1.744   7.173   0.999
13870WAT     H241853   1.666   7.316   0.981
13871WAT      O41854   2.561   4.765   6.154
13871WAT     H141855   2.641   4.749   6.211
13871WAT     H241856   2.489   4.701   6.180
13872WAT      O41857   2.906   0.679   9.374
13872WAT     H141858   2.866   0.607   9.317
13872WAT     H241859   2.870   0.768   9.346
13873WAT      O41860   8.580   0.412   2.479
13873WAT     H141861   8.606   0.348   2.552
13873WAT     H241862   8.641   0.400   2.401
13874WAT      O41863   4.041   6.164   5.980
13874WAT     H141864   4.115   6.101   5.957
13874WAT     H241865   4.042   6.184   6.078
13875WAT      O41866   5.118   7.875   0.123
13875WAT     H141867   5.155   7.900   0.034
13875WAT     H241868   5.185   7.819   0.173
13876WAT      O41869   1.914   2.110   6.292
13876WAT     H141870   1.973   2.095   6.212
13876WAT     H241871   1.876   2.022   6.322
13877WAT      O41872   2.863   0.920   5.017
13877WAT     H141873   2.773   0.963   5.021
13877WAT     H241874   2.852   0.821   5.027
13878WAT      O41875   3.136   9.422   5.471
13878WAT     H141876   3.209   9.384   5.528
13878WAT     H241877   3.088   9.494   5.522
13879WAT      O41878   6.533   0.123   6.527
13879WAT     H141879   6.612   0.069   6.555
13879WAT     H241880   6.529   0.206   6.581
13880WAT      O41881   2.280   6.220   5.455
13880WAT     H141882   2.244   6.184   5.541
13880WAT     H241883   2.211   6.211   5.384
13881WAT      O41884   2.115   6.339   0.488
13881WAT     H141885   2.198   6.395   0.481
13881WAT     H241886   2.040   6.384   0.440
13882WAT      O41887   6.682   4.930   6.963
13882WAT     H141888   6.649   4.838   6.944
13882WAT     H241889   6.777   4.938   6.935
13883WAT      O41890   2.671   1.150   8.446
13883WAT     H141891   2.594   1.144   8.384
13883WAT     H241892   2.734   1.074   8.430
13884WAT      O41893   3.064   8.157   4.234
13884WAT     H141894   2.969   8.181   4.252
13884WAT     H241895   3.087   8.179   4.139
13885WAT      O41896   8.611   8.629   3.209
13885WAT     H141897   8.686   8.650   3.270
13885WAT     H241898   8.551   8.561   3.252
13886WAT      O41899   6.278   5.081   4.363
13886WAT     H141900   6.370   5.055   4.391
13886WAT     H241901   6.212   5.052   4.432
13887WAT      O41902   8.785   4.891   1.093
13887WAT     H141903   8.828   4.971   1.134
13887WAT     H241904   8.736   4.918   1.010
13888WAT      O41905   0.837   9.634   4.360
13888WAT     H141906   0.893   9.643   4.442
13888WAT     H241907   0.887   9.581   4.291
13889WAT      O41908   9.711   8.653   1.026
13889WAT     H141909   9.718   8.664   1.125
13889WAT     H241910   9.664   8.733   0.987
13890WAT      O41911   0.377   7.738   0.833
13890WAT     H141912   0.389   7.647   0.873
13890WAT     H241913   0.422   7.806   0.891
13891WAT      O41914   8.566   7.578   3.199
13891WAT     H141915   8.556   7.621   3.109
13891WAT     H241916   8.480   7.533   3.224
13892WAT      O41917   6.025   4.966   1.750
13892WAT     H141918   6.065   4.980   1.660
13892WAT     H241919   5.989   4.873   1.757
13893WAT      O41920   5.387   8.865   6.603
13893WAT     H141921   5.327   8.786   6.615
13893WAT     H241922   5.462   8.861   6.669
13894WAT      O41923   2.469   5.255   2.031
13894WAT     H141924   2.405   5.327   2.004
13894WAT     H241925   2.497   5.269   2.126
13895WAT      O41926   8.115   1.215   8.218
13895WAT     H141927   8.168   1.299   8.212
13895WAT     H241928   8.079   1.192   8.128
13896WAT      O41929   6.032   2.826   0.582
13896WAT     H141930   6.010   2.898   0.649
13896WAT     H241931   6.111   2.774   0.614
13897WAT      O41932   3.236   3.307   4.276
13897WAT     H141933   3.185   3.390   4.299
13897WAT     H241934   3.259   3.308   4.179
13898WAT      O41935   0.995   4.272   1.063
13898WAT     H141936   0.972   4.362   1.026
13898WAT     H241937   0.911   4.217   1.072
13899WAT      O41938   2.876   8.029   1.331
13899WAT     H141939   2.948   8.030   1.401
13899WAT     H241940   2.810   7.958   1.352
13900WAT      O41941   0.162   7.943   1.030
13900WAT     H141942   0.254   7.904   1.040
13900WAT     H241943   0.162   8.011   0.957
13901WAT      O41944   7.432   1.830   4.810
13901WAT     H141945   7.352   1.782   4.847
13901WAT     H241946   7.407   1.875   4.724
13902WAT      O41947   4.071   8.349   4.762
13902WAT     H141948   4.090   8.444   4.736
13902WAT     H241949   4.057   8.343   4.861
13903WAT      O41950   8.139   5.751   1.566
13903WAT     H141951   8.212   5.790   1.620
13903WAT     H241952   8.075   5.703   1.626
13904WAT      O41953   3.207   3.416   7.999
13904WAT     H141954   3.299   3.455   7.994
13904WAT     H241955   3.214   3.316   8.009
13905WAT      O41956   4.691   2.343   7.522
13905WAT     H141957   4.751   2.264   7.510
13905WAT     H241958   4.688   2.396   7.437
13906WAT      O41959   7.755   5.524   3.187
13906WAT     H141960   7.773   5.426   3.179
13906WAT     H241961   7.750   5.564   3.096
13907WAT      O41962   0.305   7.942   6.995
13907WAT     H141963   0.252   7.958   7.078
13907WAT     H241964   0.272   7.860   6.950
13908WAT      O41965   1.503   5.262   3.277
13908WAT     H141966   1.506   5.162   3.275
13908WAT     H241967   1.579   5.298   3.222
13909WAT      O41968   6.274   7.529   9.585
13909WAT     H141969   6.277   7.476   9.500
13909WAT     H241970   6.320   7.616   9.571
13910WAT      O41971   3.460   2.392   0.898
13910WAT     H141972   3.381   2.428   0.849
13910WAT     H241973   3.460   2.426   0.992
13911WAT      O41974   2.845   0.314   8.930
13911WAT     H141975   2.851   0.215   8.933
13911WAT     H241976   2.903   0.353   9.001
13912WAT      O41977   2.583   9.720   7.515
13912WAT     H141978   2.503   9.666   7.539
13912WAT     H241979   2.666   9.669   7.539
13913WAT      O41980   7.023   9.816   3.277
13913WAT     H141981   6.949   9.777   3.222
13913WAT     H241982   6.985   9.848   3.365
13914WAT      O41983   5.089   6.510   8.230
13914WAT     H141984   5.174   6.514   8.283
13914WAT     H241985   5.022   6.572   8.271
13915WAT      O41986   3.610   1.449   3.712
13915WAT     H141987   3.688   1.505   3.741
13915WAT     H241988   3.529   1.506   3.702
13916WAT      O41989   0.579   8.677   2.857
13916WAT     H141990   0.600   8.771   2.832
13916WAT     H241991   0.562   8.623   2.775
13917WAT      O41992   8.457   0.362   4.277
13917WAT     H141993   8.491   0.268   4.286
13917WAT     H241994   8.383   0.364   4.210
13918WAT      O41995   8.261   6.735   6.495
13918WAT     H141996   8.249   6.802   6.568
13918WAT     H241997   8.251   6.781   6.407
13919WAT      O41998   3.726   9.265   8.324
13919WAT     H141999   3.648   9.326   8.310
13919WAT     H242000   3.784   9.265   8.243
13920WAT      O42001   3.060   3.626   9.873
13920WAT     H142002   3.046   3.649   9.969
13920WAT     H242003   3.113   3.541   9.866
13921WAT      O42004   1.552   0.783   8.752
13921WAT     H142005   1.527   0.686   8.743
13921WAT     H242006   1.517   0.834   8.674
13922WAT      O42007   1.012   6.775   0.486
13922WAT     H142008   1.044   6.786   0.391
13922WAT     H242009   0.931   6.832   0.501
13923WAT      O42010   9.778   4.483   8.739
13923WAT     H142011   9.844   4.456   8.670
13923WAT     H242012   9.792   4.580   8.762
13924WAT      O42013   4.160   2.203   0.420
13924WAT     H142014   4.073   2.233   0.379
13924WAT     H242015   4.141   2.147   0.500
13925WAT      O42016   2.092   6.130   5.272
13925WAT     H142017   2.015   6.078   5.307
13925WAT     H242018   2.153   6.069   5.220
13926WAT      O42019   0.953   1.114   9.318
13926WAT     H142020   0.988   1.118   9.411
13926WAT     H242021   0.865   1.162   9.313
13927WAT      O42022   6.229   0.185   2.116
13927WAT     H142023   6.250   0.271   2.070
13927WAT     H242024   6.269   0.109   2.065
13928WAT      O42025   3.737   9.234   1.161
13928WAT     H142026   3.656   9.208   1.108
13928WAT     H242027   3.754   9.332   1.150
13929WAT      O42028   5.944   6.987   0.869
13929WAT     H142029   5.852   7.027   0.862
13929WAT     H242030   5.941   6.891   0.842
13930WAT      O42031   4.145   6.916   5.808
13930WAT     H142032   4.062   6.877   5.767
13930WAT     H242033   4.134   7.015   5.817
13931WAT      O42034   0.930   0.480   9.319
13931WAT     H142035   0.920   0.397   9.373
13931WAT     H242036   0.877   0.554   9.362
13932WAT      O42037   5.991   5.702   7.890
13932WAT     H142038   5.921   5.691   7.820
13932WAT     H242039   6.073   5.744   7.849
13933WAT      O42040   9.420   7.275   6.616
13933WAT     H142041   9.360   7.279   6.696
13933WAT     H242042   9.465   7.186   6.612
13934WAT      O42043   2.003   6.881   0.558
13934WAT     H142044   2.041   6.972   0.577
13934WAT     H242045   2.015   6.822   0.637
13935WAT      O42046   9.149   8.226   9.157
13935WAT     H142047   9.236   8.223   9.109
13935WAT     H242048   9.154   8.291   9.232
13936WAT      O42049   1.412   6.058   2.270
13936WAT     H142050   1.511   6.070   2.276
13936WAT     H242051   1.383   6.069   2.175
13937WAT      O42052   7.298   5.919   2.294
13937WAT     H142053   7.274   6.007   2.254
13937WAT     H242054   7.393   5.921   2.326
13938WAT      O42055   5.778   5.306   8.345
13938WAT     H142056   5.809   5.295   8.250
13938WAT     H242057   5.682   5.279   8.352
13939WAT      O42058   2.307   7.963   0.299
13939WAT     H142059   2.250   8.034   0.259
13939WAT     H242060   2.269   7.873   0.276
13940WAT      O42061   4.770   4.307   7.254
13940WAT     H142062   4.861   4.323   7.291
13940WAT     H242063   4.710   4.382   7.279
13941WAT      O42064   2.435   8.158   3.711
13941WAT     H142065   2.440   8.058   3.714
13941WAT     H242066   2.470   8.196   3.797
13942WAT      O42067   3.363   4.980   7.654
13942WAT     H142068   3.330   4.986   7.748
13942WAT     H242069   3.405   5.066   7.627
13943WAT      O42070   0.377   1.273   6.554
13943WAT     H142071   0.348   1.178   6.549
13943WAT     H242072   0.454   1.288   6.492
13944WAT      O42073   2.352   7.541   8.250
13944WAT     H142074   2.354   7.526   8.151
13944WAT     H242075   2.410   7.620   8.272
13945WAT      O42076   2.226   1.706   5.982
13945WAT     H142077   2.174   1.649   5.918
13945WAT     H242078   2.264   1.785   5.933
13946WAT      O42079   9.435   4.760   5.292
13946WAT     H142080   9.414   4.852   5.324
13946WAT     H242081   9.467   4.704   5.368
13947WAT      O42082   5.598   6.474   3.242
13947WAT     H142083   5.691   6.498   3.269
13947WAT     H242084   5.596   6.381   3.205
13948WAT      O42085   9.132   1.463   6.685
13948WAT     H142086   9.159   1.559   6.691
13948WAT     H242087   9.185   1.409   6.750
13949WAT      O42088   8.998   3.368   2.775
13949WAT     H142089   9.040   3.345   2.687
13949WAT     H242090   9.032   3.456   2.807
13950WAT      O42091   2.441   9.323   1.680
13950WAT     H142092   2.453   9.251   1.749
13950WAT     H242093   2.493   9.299   1.598
13951WAT      O42094   8.710   0.301   0.315
13951WAT     H142095   8.754   0.390   0.309
13951WAT     H242096   8.779   0.230   0.330
13952WAT      O42097   8.103   8.760   5.358
13952WAT     H142098   8.142   8.851   5.363
13952WAT     H242099   8.161   8.702   5.300
13953WAT      O42100   0.276   8.083   5.951
13953WAT     H142101   0.299   8.180   5.947
13953WAT     H242102   0.199   8.069   6.013
13954WAT      O42103   6.270   8.250   5.425
13954WAT     H142104   6.183   8.264   5.472
13954WAT     H242105   6.281   8.319   5.354
13955WAT      O42106   4.511   6.292   2.106
13955WAT     H142107   4.586   6.358   2.105
13955WAT     H242108   4.427   6.339   2.135
13956WAT      O42109   8.210   3.581   8.050
13956WAT     H142110   8.224   3.522   8.129
13956WAT     H242111   8.157   3.532   7.980
13957WAT      O42112   8.976   1.477   4.657
13957WAT     H142113   8.959   1.573   4.634
13957WAT     H242114   9.006   1.428   4.576
13958WAT      O42115   4.901   0.955   6.441
13958WAT     H142116   4.921   0.914   6.530
13958WAT     H242117   4.806   0.987   6.440
13959WAT      O42118   7.568   4.893   1.087
13959WAT     H142119   7.593   4.841   1.005
13959WAT     H242120   7.473   4.924   1.080
13960WAT      O42121   3.251   5.172   8.211
13960WAT     H142122   3.269   5.074   8.219
13960WAT     H242123   3.175   5.187   8.148
13961WAT      O42124   6.715   3.693   7.472
13961WAT     H142125   6.640   3.740   7.518
13961WAT     H242126   6.801   3.742   7.489
13962WAT      O42127   7.382   9.262   7.226
13962WAT     H142128   7.345   9.217   7.145
13962WAT     H242129   7.335   9.229   7.308
13963WAT      O42130   5.984   3.750   8.759
13963WAT     H142131   5.990   3.691   8.839
13963WAT     H242132   5.953   3.841   8.787
13964WAT      O42133   7.717   6.890   7.749
13964WAT     H142134   7.688   6.900   7.844
13964WAT     H242135   7.816   6.882   7.745
13965WAT      O42136   3.407   3.272   1.811
13965WAT     H142137   3.394   3.368   1.786
13965WAT     H242138   3.391   3.214   1.731
13966WAT      O42139   8.913   0.173   5.273
13966WAT     H142140   8.851   0.193   5.197
13966WAT     H242141   8.865   0.187   5.360
13967WAT      O42142   5.644   9.306   6.896
13967WAT     H142143   5.638   9.277   6.991
13967WAT     H242144   5.677   9.400   6.891
13968WAT      O42145   4.123   7.927   2.962
13968WAT     H142146   4.142   7.992   2.888
13968WAT     H242147   4.099   7.838   2.922
13969WAT      O42148   6.545   7.659   8.793
13969WAT     H142149   6.523   7.738   8.850
13969WAT     H242150   6.573   7.582   8.851
13970WAT      O42151   0.959   0.149   8.728
13970WAT     H142152   0.867   0.181   8.705
13970WAT     H242153   1.027   0.209   8.687
13971WAT      O42154   1.257   0.738   0.241
13971WAT     H142155   1.315   0.656   0.249
13971WAT     H242156   1.292   0.796   0.168
13972WAT      O42157   8.262   1.816   0.169
13972WAT     H142158   8.202   1.840   0.093
13972WAT     H242159   8.213   1.757   0.233
13973WAT      O42160   5.330   5.336   7.398
13973WAT     H142161   5.274   5.414   7.425
13973WAT     H242162   5.272   5.255   7.385
13974WAT      O42163   3.757   5.474   8.038
13974WAT     H142164   3.804   5.556   8.008
13974WAT     H242165   3.735   5.481   8.136
13975WAT      O42166   0.617   9.402   3.939
13975WAT     H142167   0.538   9.347   3.966
13975WAT     H242168   0.588   9.496   3.924
13976WAT      O42169   7.969   0.130   3.822
13976WAT     H142170   7.962   0.035   3.789
13976WAT     H242171   7.905   0.188   3.771
13977WAT      O42172   9.279   6.247   7.491
13977WAT     H142173   9.235   6.335   7.506
13977WAT     H242174   9.212   6.184   7.450
13978WAT      O42175   1.930   7.276   1.786
13978WAT     H142176   1.943   7.361   1.735
13978WAT     H242177   1.964   7.199   1.732
13979WAT      O42178   9.042   2.700   6.919
13979WAT     H142179   9.089   2.704   6.831
13979WAT     H242180   8.988   2.615   6.924
13980WAT      O42181   1.901   3.332   9.220
13980WAT     H142182   1.940   3.348   9.129
13980WAT     H242183   1.969   3.287   9.278
13981WAT      O42184   2.461   6.924   5.602
13981WAT     H142185   2.371   6.929   5.645
13981WAT     H242186   2.450   6.895   5.507
13982WAT      O42187   4.772   4.930   5.814
13982WAT     H142188   4.736   4.988   5.740
13982WAT     H242189   4.749   4.834   5.794
13983WAT      O42190   9.880   4.334   0.046
13983WAT     H142191   9.892   4.346  -0.053
13983WAT     H242192   9.951   4.274   0.082
13984WAT      O42193   1.184   1.545   1.418
13984WAT     H142194   1.170   1.483   1.495
13984WAT     H242195   1.155   1.637   1.443
13985WAT      O42196   7.119   7.487   8.311
13985WAT     H142197   7.066   7.457   8.390
13985WAT     H242198   7.193   7.547   8.341
13986WAT      O42199   6.032   9.372   9.404
13986WAT     H142200   6.064   9.415   9.319
13986WAT     H242201   5.997   9.281   9.384
13987WAT      O42202   8.721   3.042   6.224
13987WAT     H142203   8.635   3.026   6.273
13987WAT     H242204   8.782   2.963   6.236
13988WAT      O42205   3.327   4.362   4.786
13988WAT     H142206   3.393   4.372   4.712
13988WAT     H242207   3.240   4.330   4.749
13989WAT      O42208   5.452   1.143   3.877
13989WAT     H142209   5.510   1.180   3.804
13989WAT     H242210   5.448   1.207   3.953
13990WAT      O42211   4.172   0.480   0.022
13990WAT     H142212   4.147   0.400   0.076
13990WAT     H242213   4.152   0.463  -0.075
13991WAT      O42214   8.739   3.464   2.808
13991WAT     H142215   8.832   3.429   2.810
13991WAT     H242216   8.738   3.560   2.835
13992WAT      O42217   3.348   3.545   0.037
13992WAT     H142218   3.447   3.530   0.040
13992WAT     H242219   3.306   3.478  -0.025
13993WAT      O42220   2.623   7.486   2.912
13993WAT     H142221   2.594   7.391   2.917
13993WAT     H242222   2.715   7.495   2.952
13994WAT      O42223   7.659   5.657   3.656
13994WAT     H142224   7.752   5.669   3.690
13994WAT     H242225   7.595   5.698   3.721
13995WAT      O42226   8.088   6.333   1.007
13995WAT     H142227   8.121   6.242   1.029
13995WAT     H242228   8.137   6.401   1.062
13996WAT      O42229   4.720   2.168   9.658
13996WAT     H142230   4.710   2.073   9.688
13996WAT     H242231   4.722   2.172   9.559
13997WAT      O42232   8.474   6.031   1.876
13997WAT     H142233   8.403   5.968   1.845
13997WAT     H242234   8.480   6.108   1.812
13998WAT      O42235   3.432   0.327   2.627
13998WAT     H142236   3.368   0.251   2.629
13998WAT     H242237   3.502   0.310   2.557
13999WAT      O42238   9.787   4.796   9.694
13999WAT     H142239   9.715   4.758   9.752
13999WAT     H242240   9.824   4.879   9.736
14000WAT      O42241   6.093   7.050   1.336
14000WAT     H142242   6.113   7.132   1.283
14000WAT     H242243   6.029   6.992   1.287
14001WAT      O42244   0.145   2.935   1.551
14001WAT     H142245   0.238   2.974   1.550
14001WAT     H242246   0.100   2.957   1.464
14002WAT      O42247   9.710   2.811   2.248
14002WAT     H142248   9.679   2.756   2.171
14002WAT     H242249   9.794   2.859   2.224
14003WAT      O42250   6.522   1.638   0.709
14003WAT     H142251   6.465   1.558   0.729
14003WAT     H242252   6.548   1.636   0.612
14004WAT      O42253   0.625   1.017   6.195
14004WAT     H142254   0.678   0.988   6.115
14004WAT     H242255   0.529   0.990   6.183
14005WAT      O42256   3.901   2.492   4.511
14005WAT     H142257   3.850   2.482   4.596
14005WAT     H242258   3.906   2.403   4.465
14006WAT      O42259   0.513   6.555   3.564
14006WAT     H142260   0.459   6.473   3.540
14006WAT     H242261   0.473   6.598   3.645
14007WAT      O42262   1.161   2.719   3.477
14007WAT     H142263   1.136   2.664   3.557
14007WAT     H242264   1.163   2.816   3.502
14008WAT      O42265   8.877   9.369   2.793
14008WAT     H142266   8.803   9.362   2.859
14008WAT     H242267   8.860   9.445   2.731
14009WAT      O42268   5.457   9.733   2.571
14009WAT     H142269   5.452   9.633   2.564
14009WAT     H242270   5.364   9.771   2.569
14010WAT      O42271   1.800   4.351   5.454
14010WAT     H142272   1.729   4.281   5.451
14010WAT     H242273   1.889   4.308   5.444
14011WAT      O42274   4.232   0.787   7.035
14011WAT     H142275   4.276   0.720   6.975
14011WAT     H242276   4.206   0.743   7.120
14012WAT      O42277   2.948   7.306   2.389
14012WAT     H142278   2.916   7.298   2.294
14012WAT     H242279   2.880   7.355   2.443
14013WAT      O42280   0.750   9.308   4.148
14013WAT     H142281   0.715   9.341   4.061
14013WAT     H242282   0.821   9.370   4.182
14014WAT      O42283   6.585   6.367   1.201
14014WAT     H142284   6.581   6.387   1.299
14014WAT     H242285   6.680   6.371   1.171
14015WAT      O42286   1.117   5.833   4.255
14015WAT     H142287   1.043   5.786   4.302
14015WAT     H242288   1.194   5.770   4.242
14016WAT      O42289   0.966   0.972   4.837
14016WAT     H142290   1.056   0.934   4.860
14016WAT     H242291   0.955   1.061   4.881
14017WAT      O42292   3.150   5.501   2.021
14017WAT     H142293   3.185   5.525   1.931
14017WAT     H242294   3.089   5.573   2.054
14018WAT      O42295   4.996   5.628   3.349
14018WAT     H142296   4.985   5.718   3.306
14018WAT     H242297   5.067   5.633   3.419
14019WAT      O42298   1.656   4.867   4.418
14019WAT     H142299   1.566   4.829   4.396
14019WAT     H242300   1.710   4.799   4.467
14020WAT      O42301   4.059   5.438   8.851
14020WAT     H142302   3.966   5.462   8.820
14020WAT     H242303   4.125   5.467   8.782
14021WAT      O42304   3.205   6.643   3.570
14021WAT     H142305   3.146   6.623   3.492
14021WAT     H242306   3.156   6.625   3.655
14022WAT      O42307   5.800   6.416   5.994
14022WAT     H142308   5.761   6.327   5.971
14022WAT     H242309   5.740   6.488   5.962
14023WAT      O42310   3.253   4.108   6.998
14023WAT     H142311   3.347   4.092   6.968
14023WAT     H242312   3.195   4.124   6.918
14024WAT      O42313   9.204   8.154   5.382
14024WAT     H142314   9.212   8.144   5.482
14024WAT     H242315   9.211   8.251   5.359
14025WAT      O42316   4.011   9.794   4.702
14025WAT     H142317   3.946   9.795   4.778
14025WAT     H242318   3.987   9.867   4.638
14026WAT      O42319   3.717   9.313   5.568
14026WAT     H142320   3.678   9.222   5.554
14026WAT     H242321   3.686   9.374   5.496
14027WAT      O42322   2.617   1.495   9.609
14027WAT     H142323   2.518   1.482   9.618
14027WAT     H242324   2.635   1.581   9.562
14028WAT      O42325   7.498   9.837   9.507
14028WAT     H142326   7.415   9.866   9.459
14028WAT     H242327   7.509   9.738   9.498
14029WAT      O42328   8.136   7.854   0.056
14029WAT     H142329   8.203   7.924   0.031
14029WAT     H242330   8.116   7.797  -0.023
14030WAT      O42331   1.987   1.939   3.215
14030WAT     H142332   1.896   1.901   3.199
14030WAT     H242333   2.005   2.009   3.146
14031WAT      O42334   4.285   3.119   0.977
14031WAT     H142335   4.374   3.162   0.961
14031WAT     H242336   4.276   3.040   0.915
14032WAT      O42337   9.417   9.738   6.261
14032WAT     H142338   9.429   9.706   6.355
14032WAT     H242339   9.368   9.825   6.261
14033WAT      O42340   2.387   9.568   5.033
14033WAT     H142341   2.305   9.562   4.976
14033WAT     H242342   2.463   9.522   4.987
14034WAT      O42343   5.104   4.986   6.073
14034WAT     H142344   5.176   4.929   6.111
14034WAT     H242345   5.083   5.060   6.137
14035WAT      O42346   0.394   3.709   1.936
14035WAT     H142347   0.338   3.701   1.854
14035WAT     H242348   0.349   3.662   2.012
14036WAT      O42349   6.665   8.348   4.862
14036WAT     H142350   6.593   8.393   4.809
14036WAT     H242351   6.626   8.310   4.946
14037WAT      O42352   4.299   7.716   5.548
14037WAT     H142353   4.372   7.783   5.563
14037WAT     H242354   4.267   7.723   5.453
14038WAT      O42355   8.049   0.630   7.108
14038WAT     H142356   8.054   0.730   7.098
14038WAT     H242357   8.120   0.588   7.051
14039WAT      O42358   0.115   0.802   3.986
14039WAT     H142359   0.206   0.789   4.026
14039WAT     H242360   0.116   0.884   3.930
14040WAT      O42361   6.262   1.979   8.177
14040WAT     H142362   6.224   1.890   8.201
14040WAT     H242363   6.203   2.051   8.213
14041WAT      O42364   9.715   5.469   8.785
14041WAT     H142365   9.724   5.553   8.839
14041WAT     H242366   9.806   5.438   8.758
14042WAT      O42367   8.982   8.026   6.558
14042WAT     H142368   9.026   8.092   6.619
14042WAT     H242369   8.897   7.995   6.600
14043WAT      O42370   6.325   4.876   7.139
14043WAT     H142371   6.339   4.967   7.178
14043WAT     H242372   6.408   4.847   7.092
14044WAT      O42373   6.874   4.615   1.124
14044WAT     H142374   6.889   4.575   1.034
14044WAT     H242375   6.935   4.571   1.190
14045WAT      O42376   0.067   7.846   3.817
14045WAT     H142377   0.007   7.913   3.775
14045WAT     H242378   0.045   7.755   3.782
14046WAT      O42379   0.540   4.918   1.224
14046WAT     H142380   0.564   5.011   1.252
14046WAT     H242381   0.479   4.878   1.293
14047WAT      O42382   5.229   8.111   3.022
14047WAT     H142383   5.243   8.049   3.099
14047WAT     H242384   5.173   8.065   2.953
14048WAT      O42385   1.912   6.843   2.271
14048WAT     H142386   1.931   6.876   2.178
14048WAT     H242387   1.997   6.817   2.315
14049WAT      O42388   1.285   2.132   5.151
14049WAT     H142389   1.344   2.084   5.216
14049WAT     H242390   1.299   2.096   5.059
14050WAT      O42391   7.864   3.491   9.405
14050WAT     H142392   7.897   3.413   9.459
14050WAT     H242393   7.860   3.465   9.309
14051WAT      O42394   5.428   0.325   4.224
14051WAT     H142395   5.434   0.336   4.323
14051WAT     H242396   5.512   0.284   4.189
14052WAT      O42397   4.501   8.266   9.235
14052WAT     H142398   4.433   8.274   9.308
14052WAT     H242399   4.490   8.178   9.189
14053WAT      O42400   6.702   5.037   3.342
14053WAT     H142401   6.739   4.980   3.269
14053WAT     H242402   6.624   5.088   3.309
14054WAT      O42403   6.929   5.503   5.694
14054WAT     H142404   6.834   5.473   5.702
14054WAT     H242405   6.954   5.510   5.598
14055WAT      O42406   6.741   8.543   6.437
14055WAT     H142407   6.759   8.507   6.529
14055WAT     H242408   6.691   8.474   6.384
14056WAT      O42409   9.229   7.550   9.048
14056WAT     H142410   9.207   7.589   8.959
14056WAT     H242411   9.211   7.619   9.119
14057WAT      O42412   9.035   3.201   7.385
14057WAT     H142413   9.070   3.294   7.395
14057WAT     H242414   8.954   3.202   7.327
14058WAT      O42415   3.323   5.946   2.304
14058WAT     H142416   3.310   5.913   2.211
14058WAT     H242417   3.397   6.014   2.304
14059WAT      O42418   3.332   5.549   4.720
14059WAT     H142419   3.328   5.649   4.720
14059WAT     H242420   3.366   5.517   4.809
14060WAT      O42421   6.716   4.782   0.625
14060WAT     H142422   6.714   4.848   0.549
14060WAT     H242423   6.793   4.719   0.612
14061WAT      O42424   5.778   7.693   5.840
14061WAT     H142425   5.863   7.701   5.891
14061WAT     H242426   5.717   7.769   5.864
14062WAT      O42427   3.476   7.546   7.075
14062WAT     H142428   3.536   7.466   7.070
14062WAT     H242429   3.383   7.520   7.049
14063WAT      O42430   3.796   3.368   3.472
14063WAT     H142431   3.806   3.348   3.374
14063WAT     H242432   3.721   3.433   3.485
14064WAT      O42433   9.531   8.715   4.074
14064WAT     H142434   9.488   8.656   4.142
14064WAT     H242435   9.581   8.788   4.121
14065WAT      O42436   4.325   4.986   7.307
14065WAT     H142437   4.239   5.035   7.323
14065WAT     H242438   4.387   5.043   7.254
14066WAT      O42439   1.211   6.374   9.612
14066WAT     H142440   1.222   6.276   9.599
14066WAT     H242441   1.158   6.391   9.695
14067WAT      O42442   5.800   5.443   2.555
14067WAT     H142443   5.800   5.346   2.532
14067WAT     H242444   5.726   5.462   2.619
14068WAT      O42445   5.062   5.522   8.835
14068WAT     H142446   4.999   5.570   8.773
14068WAT     H242447   5.145   5.498   8.785
14069WAT      O42448   1.588   6.964   6.853
14069WAT     H142449   1.529   6.894   6.893
14069WAT     H242450   1.591   6.953   6.754
14070WAT      O42451   7.093   7.705   1.804
14070WAT     H142452   7.126   7.617   1.838
14070WAT     H242453   7.151   7.779   1.840
14071WAT      O42454   0.121   3.970   4.666
14071WAT     H142455   0.207   3.969   4.615
14071WAT     H242456   0.048   3.933   4.609
14072WAT      O42457   1.903   5.628   3.458
14072WAT     H142458   1.962   5.623   3.378
14072WAT     H242459   1.817   5.581   3.440
14073WAT      O42460   1.317   3.916   4.665
14073WAT     H142461   1.285   3.932   4.759
14073WAT     H242462   1.240   3.887   4.609
14074WAT      O42463   3.133   5.133   6.691
14074WAT     H142464   3.084   5.220   6.696
14074WAT     H242465   3.123   5.085   6.779
14075WAT      O42466   8.560   1.084   3.844
14075WAT     H142467   8.551   0.986   3.864
14075WAT     H242468   8.507   1.106   3.762
14076WAT      O42469   9.122   3.700   8.687
14076WAT     H142470   9.083   3.685   8.778
14076WAT     H242471   9.143   3.613   8.644
14077WAT      O42472   9.435   2.878   0.538
14077WAT     H142473   9.522   2.841   0.571
14077WAT     H242474   9.415   2.839   0.448
14078WAT      O42475   0.603   6.551   2.088
14078WAT     H142476   0.638   6.580   1.999
14078WAT     H242477   0.669   6.489   2.131
14079WAT      O42478   6.869   0.883   6.835
14079WAT     H142479   6.872   0.964   6.777
14079WAT     H242480   6.799   0.894   6.905
14080WAT      O42481   8.203   9.242   4.106
14080WAT     H142482   8.204   9.172   4.034
14080WAT     H242483   8.113   9.285   4.108
14081WAT      O42484   0.470   8.431   0.039
14081WAT     H142485   0.517   8.507   0.084
14081WAT     H242486   0.435   8.368   0.109
14082WAT      O42487   3.998   3.362   9.663
14082WAT     H142488   3.912   3.379   9.711
14082WAT     H242489   3.981   3.357   9.565
14083WAT      O42490   7.760   2.907   0.896
14083WAT     H142491   7.717   2.822   0.863
14083WAT     H242492   7.803   2.890   0.984
14084WAT      O42493   9.571   5.343   6.053
14084WAT     H142494   9.661   5.305   6.074
14084WAT     H242495   9.514   5.339   6.135
14085WAT      O42496   2.170   4.081   3.057
14085WAT     H142497   2.115   4.049   3.134
14085WAT     H242498   2.118   4.071   2.972
14086WAT      O42499   2.180   2.632   1.704
14086WAT     H142500   2.243   2.683   1.646
14086WAT     H242501   2.169   2.680   1.791
14087WAT      O42502   2.837   6.916   6.823
14087WAT     H142503   2.822   6.823   6.789
14087WAT     H242504   2.761   6.975   6.792
14088WAT      O42505   7.331   1.721   7.003
14088WAT     H142506   7.281   1.807   7.018
14088WAT     H242507   7.426   1.741   6.981
14089WAT      O42508   0.520   7.867   1.529
14089WAT     H142509   0.426   7.890   1.506
14089WAT     H242510   0.522   7.816   1.616
14090WAT      O42511   0.931   6.646   4.545
14090WAT     H142512   1.010   6.586   4.553
14090WAT     H242513   0.907   6.655   4.448
14091WAT      O42514   7.573   4.148   3.057
14091WAT     H142515   7.631   4.086   3.004
14091WAT     H242516   7.480   4.147   3.019
14092WAT      O42517   5.838   6.886   4.530
14092WAT     H142518   5.890   6.863   4.612
14092WAT     H242519   5.741   6.867   4.545
14093WAT      O42520   9.065   4.172   1.996
14093WAT     H142521   9.044   4.169   1.898
14093WAT     H242522   9.141   4.236   2.012
14094WAT      O42523   1.465   8.001   9.817
14094WAT     H142524   1.373   8.024   9.848
14094WAT     H242525   1.533   8.056   9.866
14095WAT      O42526   8.249   3.368   1.391
14095WAT     H142527   8.202   3.283   1.417
14095WAT     H242528   8.335   3.376   1.441
14096WAT      O42529   0.161   6.005   7.414
14096WAT     H142530   0.164   6.024   7.513
14096WAT     H242531   0.066   5.984   7.388
14097WAT      O42532   3.622   8.757   7.059
14097WAT     H142533   3.541   8.721   7.013
14097WAT     H242534   3.594   8.819   7.133
14098WAT      O42535   5.220   9.378   3.247
14098WAT     H142536   5.271   9.459   3.218
14098WAT     H242537   5.124   9.402   3.259
14099WAT      O42538   3.213   6.871   2.387
14099WAT     H142539   3.144   6.934   2.423
14099WAT     H242540   3.180   6.777   2.396
14100WAT      O42541   1.544   5.665   7.845
14100WAT     H142542   1.634   5.675   7.888
14100WAT     H242543   1.477   5.640   7.914
14101WAT      O42544   6.936   1.308   1.478
14101WAT     H142545   6.993   1.380   1.519
14101WAT     H242546   6.871   1.350   1.414
14102WAT      O42547   1.307   7.960   4.683
14102WAT     H142548   1.315   8.046   4.734
14102WAT     H242549   1.301   7.980   4.585
14103WAT      O42550   4.915   0.597   6.815
14103WAT     H142551   4.882   0.510   6.779
14103WAT     H242552   4.883   0.672   6.757
14104WAT      O42553   2.779   1.801   8.260
14104WAT     H142554   2.802   1.733   8.329
14104WAT     H242555   2.860   1.823   8.206
14105WAT      O42556   4.235   7.721   6.540
14105WAT     H142557   4.212   7.717   6.637
14105WAT     H242558   4.289   7.803   6.521
14106WAT      O42559   3.593   1.989   5.264
14106WAT     H142560   3.555   2.074   5.299
14106WAT     H242561   3.652   2.009   5.185
14107WAT      O42562   7.183   7.321   3.867
14107WAT     H142563   7.245   7.381   3.917
14107WAT     H242564   7.225   7.295   3.780
14108WAT      O42565   3.964   0.182   4.544
14108WAT     H142566   4.012   0.268   4.527
14108WAT     H242567   3.869   0.191   4.514
14109WAT      O42568   7.784   9.606   6.560
14109WAT     H142569   7.736   9.520   6.541
14109WAT     H242570   7.877   9.586   6.589
14110WAT      O42571   3.630   4.312   8.981
14110WAT     H142572   3.628   4.283   9.077
14110WAT     H242573   3.601   4.408   8.975
14111WAT      O42574   3.936   2.585   0.407
14111WAT     H142575   3.864   2.632   0.459
14111WAT     H242576   3.968   2.644   0.334
14112WAT      O42577   4.815   3.131   4.306
14112WAT     H142578   4.898   3.095   4.264
14112WAT     H242579   4.735   3.104   4.252
14113WAT      O42580   8.084   9.681   5.940
14113WAT     H142581   8.138   9.757   5.976
14113WAT     H242582   8.024   9.646   6.012
14114WAT      O42583   3.588   4.205   5.236
14114WAT     H142584   3.541   4.281   5.281
14114WAT     H242585   3.635   4.239   5.154
14115WAT      O42586   4.493   9.252   7.363
14115WAT     H142587   4.545   9.194   7.426
14115WAT     H242588   4.475   9.201   7.279
14116WAT      O42589   5.020   2.094   3.360
14116WAT     H142590   5.025   2.006   3.313
14116WAT     H242591   4.944   2.147   3.322
14117WAT      O42592   1.016   9.702   2.534
14117WAT     H142593   0.969   9.617   2.556
14117WAT     H242594   1.017   9.761   2.615
14118WAT      O42595   2.730   4.365   1.862
14118WAT     H142596   2.809   4.377   1.923
14118WAT     H242597   2.666   4.300   1.903
14119WAT      O42598   9.786   2.821   9.301
14119WAT     H142599   9.738   2.748   9.253
14119WAT     H242600   9.875   2.836   9.259
14120WAT      O42601   4.785   9.830   3.050
14120WAT     H142602   4.714   9.800   2.986
14120WAT     H242603   4.850   9.757   3.064
14121WAT      O42604   6.315   7.222   8.065
14121WAT     H142605   6.393   7.283   8.049
14121WAT     H242606   6.330   7.171   8.150
14122WAT      O42607   7.230   0.992   2.516
14122WAT     H142608   7.320   1.003   2.475
14122WAT     H242609   7.193   1.082   2.540
14123WAT      O42610   1.865   7.876   8.926
14123WAT     H142611   1.914   7.963   8.936
14123WAT     H242612   1.767   7.894   8.916
14124WAT      O42613   0.300   1.055   8.936
14124WAT     H142614   0.236   1.039   8.861
14124WAT     H242615   0.313   0.970   8.987
14125WAT      O42616   0.365   9.004   6.630
14125WAT     H142617   0.307   8.982   6.552
14125WAT     H242618   0.336   8.950   6.709
14126WAT      O42619   1.859   8.201   7.033
14126WAT     H142620   1.768   8.174   7.067
14126WAT     H242621   1.875   8.160   6.944
14127WAT      O42622   2.627   2.045   8.908
14127WAT     H142623   2.725   2.059   8.923
14127WAT     H242624   2.606   1.947   8.911
14128WAT      O42625   6.545   8.510   9.297
14128WAT     H142626   6.571   8.480   9.388
14128WAT     H242627   6.627   8.526   9.242
14129WAT      O42628   4.939   4.679   7.789
14129WAT     H142629   4.900   4.587   7.785
14129WAT     H242630   4.916   4.729   7.705
14130WAT      O42631   8.565   9.018   4.762
14130WAT     H142632   8.627   8.948   4.725
14130WAT     H242633   8.579   9.104   4.714
14131WAT      O42634   3.752   6.767   1.237
14131WAT     H142635   3.714   6.679   1.267
14131WAT     H242636   3.785   6.817   1.317
14132WAT      O42637   3.212   5.630   6.578
14132WAT     H142638   3.112   5.619   6.583
14132WAT     H242639   3.244   5.608   6.486
14133WAT      O42640   7.094   0.991   1.705
14133WAT     H142641   7.087   1.023   1.800
14133WAT     H242642   7.165   1.043   1.658
14134WAT      O42643   6.489   8.363   3.413
14134WAT     H142644   6.588   8.358   3.424
14134WAT     H242645   6.466   8.425   3.337
14135WAT      O42646   0.213   9.144   2.266
14135WAT     H142647   0.132   9.103   2.308
14135WAT     H242648   0.280   9.072   2.248
14136WAT      O42649   8.538   3.520   8.367
14136WAT     H142650   8.632   3.555   8.360
14136WAT     H242651   8.530   3.436   8.315
14137WAT      O42652   8.886   8.695   7.492
14137WAT     H142653   8.912   8.632   7.565
14137WAT     H242654   8.790   8.681   7.469
14138WAT      O42655   6.299   9.552   5.860
14138WAT     H142656   6.214   9.540   5.910
14138WAT     H242657   6.284   9.613   5.782
14139WAT      O42658   0.967   4.589   0.273
14139WAT     H142659   1.056   4.627   0.250
14139WAT     H242660   0.896   4.658   0.257
14140WAT      O42661   4.970   4.898   0.697
14140WAT     H142662   4.951   4.948   0.612
14140WAT     H242663   5.033   4.822   0.678
14141WAT      O42664   6.283   1.407   7.914
14141WAT     H142665   6.216   1.418   7.841
14141WAT     H242666   6.371   1.380   7.875
14142WAT      O42667   1.720   7.021   4.536
14142WAT     H142668   1.688   6.927   4.542
14142WAT     H242669   1.820   7.023   4.544
14143WAT      O42670   3.215   1.053   9.004
14143WAT     H142671   3.167   0.965   9.006
14143WAT     H242672   3.310   1.040   9.031
14144WAT      O42673   4.169   6.004   8.338
14144WAT     H142674   4.255   6.013   8.288
14144WAT     H242675   4.168   5.916   8.386
14145WAT      O42676   2.003   4.112   7.471
14145WAT     H142677   2.026   4.031   7.526
14145WAT     H242678   2.061   4.189   7.498
14146WAT      O42679   2.434   7.891   0.513
14146WAT     H142680   2.384   7.917   0.431
14146WAT     H242681   2.531   7.883   0.493
14147WAT      O42682   8.755   9.662   5.235
14147WAT     H142683   8.737   9.573   5.277
14147WAT     H242684   8.804   9.649   5.149
14148WAT      O42685   5.312   1.130   9.112
14148WAT     H142686   5.286   1.220   9.145
14148WAT     H242687   5.375   1.139   9.035
14149WAT      O42688   7.462   8.034   2.149
14149WAT     H142689   7.475   7.955   2.210
14149WAT     H242690   7.454   8.117   2.203
14150WAT      O42691   0.028   6.193   1.783
14150WAT     H142692  -0.019   6.271   1.824
14150WAT     H242693   0.109   6.170   1.838
14151WAT      O42694   4.061   0.712   9.877
14151WAT     H142695   4.117   0.755   9.807
14151WAT     H242696   4.105   0.629   9.909
14152WAT      O42697   2.553   2.657   0.811
14152WAT     H142698   2.604   2.583   0.766
14152WAT     H242699   2.618   2.725   0.847
14153WAT      O42700   1.796   3.528   1.558
14153WAT     H142701   1.715   3.497   1.608
14153WAT     H242702   1.775   3.613   1.509
14154WAT      O42703   2.257   5.594   3.825
14154WAT     H142704   2.197   5.588   3.745
14154WAT     H242705   2.316   5.674   3.816
14155WAT      O42706   3.781   5.953   4.039
14155WAT     H142707   3.794   6.037   3.988
14155WAT     H242708   3.703   5.903   4.003
14156WAT      O42709   0.319   1.990   9.562
14156WAT     H142710   0.404   2.034   9.536
14156WAT     H242711   0.319   1.895   9.532
14157WAT      O42712   9.730   4.993   2.909
14157WAT     H142713   9.648   4.940   2.885
14157WAT     H242714   9.708   5.059   2.981
14158WAT      O42715   2.894   2.710   4.697
14158WAT     H142716   2.936   2.677   4.613
14158WAT     H242717   2.889   2.810   4.694
14159WAT      O42718   7.777   7.024   0.712
14159WAT     H142719   7.714   7.100   0.692
14159WAT     H242720   7.772   7.002   0.809
14160WAT      O42721   0.131   0.157   3.184
14160WAT     H142722   0.179   0.112   3.109
14160WAT     H242723   0.196   0.179   3.257
14161WAT      O42724   9.438   9.212   1.684
14161WAT     H142725   9.470   9.131   1.732
14161WAT     H242726   9.350   9.241   1.721
14162WAT      O42727   6.375   9.734   3.444
14162WAT     H142728   6.304   9.733   3.515
14162WAT     H242729   6.416   9.643   3.436
14163WAT      O42730   2.143   2.005   2.504
14163WAT     H142731   2.150   2.071   2.580
14163WAT     H242732   2.221   2.016   2.443
14164WAT      O42733   7.244   6.176   2.237
14164WAT     H142734   7.243   6.208   2.142
14164WAT     H242735   7.151   6.180   2.274
14165WAT      O42736   5.187   3.137   5.794
14165WAT     H142737   5.175   3.108   5.699
14165WAT     H242738   5.106   3.188   5.823
14166WAT      O42739   0.976   5.354   4.886
14166WAT     H142740   0.934   5.264   4.870
14166WAT     H242741   0.931   5.422   4.828
14167WAT      O42742   8.363   7.616   4.508
14167WAT     H142743   8.344   7.555   4.584
14167WAT     H242744   8.448   7.588   4.463
14168WAT      O42745   5.763   7.290   2.239
14168WAT     H142746   5.805   7.201   2.224
14168WAT     H242747   5.794   7.354   2.169
14169WAT      O42748   2.454   3.027   4.338
14169WAT     H142749   2.487   3.082   4.415
14169WAT     H242750   2.473   3.075   4.253
14170WAT      O42751   8.917   6.214   4.467
14170WAT     H142752   8.827   6.217   4.424
14170WAT     H242753   8.963   6.129   4.442
14171WAT      O42754   9.071   2.002   2.621
14171WAT     H142755   9.057   1.962   2.712
14171WAT     H242756   9.157   1.967   2.583
14172WAT      O42757   6.018   6.981   3.461
14172WAT     H142758   6.020   6.908   3.529
14172WAT     H242759   6.108   7.024   3.455
14173WAT      O42760   0.758   6.039   8.031
14173WAT     H142761   0.679   6.075   7.981
14173WAT     H242762   0.839   6.041   7.971
14174WAT      O42763   8.968   2.918   1.478
14174WAT     H142764   8.906   2.988   1.442
14174WAT     H242765   9.005   2.864   1.403
14175WAT      O42766   9.037   8.034   6.028
14175WAT     H142767   9.051   7.984   5.943
14175WAT     H242768   8.956   8.093   6.019
14176WAT      O42769   4.860   5.515   4.149
14176WAT     H142770   4.946   5.466   4.147
14176WAT     H242771   4.835   5.544   4.057
14177WAT      O42772   6.689   6.695   2.366
14177WAT     H142773   6.741   6.713   2.450
14177WAT     H242774   6.731   6.745   2.290
14178WAT      O42775   6.368   3.278   7.419
14178WAT     H142776   6.366   3.310   7.324
14178WAT     H242777   6.286   3.310   7.466
14179WAT      O42778   9.044   1.423   5.608
14179WAT     H142779   9.096   1.457   5.529
14179WAT     H242780   9.099   1.355   5.657
14180WAT      O42781   4.870   4.831   2.515
14180WAT     H142782   4.836   4.858   2.424
14180WAT     H242783   4.957   4.876   2.532
14181WAT      O42784   2.687   2.920   3.705
14181WAT     H142785   2.630   2.998   3.680
14181WAT     H242786   2.659   2.840   3.651
14182WAT      O42787   7.007   5.083   3.194
14182WAT     H142788   6.989   5.076   3.292
14182WAT     H242789   6.937   5.033   3.144
14183WAT      O42790   8.720   8.271   6.228
14183WAT     H142791   8.628   8.260   6.190
14183WAT     H242792   8.717   8.336   6.304
14184WAT      O42793   1.522   4.960   3.288
14184WAT     H142794   1.446   4.976   3.352
14184WAT     H242795   1.517   4.865   3.255
14185WAT      O42796   2.233   9.487   3.355
14185WAT     H142797   2.315   9.443   3.392
14185WAT     H242798   2.217   9.455   3.262
14186WAT      O42799   9.671   9.787   0.065
14186WAT     H142800   9.722   9.867   0.098
14186WAT     H242801   9.658   9.795  -0.034
14187WAT      O42802   0.724   3.070   5.172
14187WAT     H142803   0.755   3.088   5.265
14187WAT     H242804   0.749   2.977   5.146
14188WAT      O42805   1.085   5.781   5.932
14188WAT     H142806   1.052   5.689   5.912
14188WAT     H242807   1.078   5.838   5.850
14189WAT      O42808   6.110   4.473   0.309
14189WAT     H142809   6.140   4.388   0.266
14189WAT     H242810   6.183   4.541   0.303
14190WAT      O42811   0.141   3.914   6.291
14190WAT     H142812   0.111   4.009   6.280
14190WAT     H242813   0.133   3.866   6.203
14191WAT      O42814   0.040   4.403   7.447
14191WAT     H142815   0.051   4.453   7.361
14191WAT     H242816  -0.032   4.446   7.502
14192WAT      O42817   6.843   5.282   5.109
14192WAT     H142818   6.929   5.332   5.101
14192WAT     H242819   6.839   5.210   5.040
14193WAT      O42820   8.970   8.373   9.009
14193WAT     H142821   9.008   8.388   8.918
14193WAT     H242822   9.027   8.306   9.058
14194WAT      O42823   8.547   0.433   8.093
14194WAT     H142824   8.557   0.411   7.996
14194WAT     H242825   8.633   0.417   8.141
14195WAT      O42826   0.723   7.627   3.147
14195WAT     H142827   0.633   7.670   3.138
14195WAT     H242828   0.733   7.592   3.240
14196WAT      O42829   5.037   0.757   5.130
14196WAT     H142830   5.098   0.699   5.076
14196WAT     H242831   4.954   0.707   5.153
14197WAT      O42832   7.223   4.884   2.653
14197WAT     H142833   7.181   4.908   2.740
14197WAT     H242834   7.257   4.790   2.658
14198WAT      O42835   0.716   9.218   2.377
14198WAT     H142836   0.757   9.302   2.413
14198WAT     H242837   0.639   9.242   2.318
14199WAT      O42838   1.094   3.141   9.844
14199WAT     H142839   1.068   3.158   9.748
14199WAT     H242840   1.110   3.228   9.890
14200WAT      O42841   2.408   7.871   5.590
14200WAT     H142842   2.461   7.811   5.529
14200WAT     H242843   2.471   7.920   5.651
14201WAT      O42844   4.611   1.331   7.394
14201WAT     H142845   4.568   1.418   7.414
14201WAT     H242846   4.710   1.345   7.381
14202WAT      O42847   4.780   1.876   0.353
14202WAT     H142848   4.681   1.876   0.363
14202WAT     H242849   4.816   1.967   0.375
14203WAT      O42850   3.192   7.664   5.600
14203WAT     H142851   3.244   7.590   5.556
14203WAT     H242852   3.211   7.665   5.698
14204WAT      O42853   1.480   2.510   8.456
14204WAT     H142854   1.494   2.505   8.555
14204WAT     H242855   1.382   2.509   8.436
14205WAT      O42856   3.576   1.925   6.978
14205WAT     H142857   3.544   1.928   6.883
14205WAT     H242858   3.548   2.008   7.025
14206WAT      O42859   6.138   1.509   4.884
14206WAT     H142860   6.086   1.569   4.823
14206WAT     H242861   6.211   1.464   4.832
14207WAT      O42862   4.676   8.781   7.699
14207WAT     H142863   4.606   8.763   7.768
14207WAT     H242864   4.725   8.696   7.678
14208WAT      O42865   5.229   6.089   2.160
14208WAT     H142866   5.280   6.014   2.202
14208WAT     H242867   5.255   6.096   2.063
14209WAT      O42868   1.183   2.315   9.836
14209WAT     H142869   1.147   2.272   9.919
14209WAT     H242870   1.263   2.263   9.805
14210WAT      O42871   0.009   6.079   3.708
14210WAT     H142872   0.095   6.033   3.687
14210WAT     H242873  -0.009   6.072   3.807
14211WAT      O42874   8.972   1.486   6.475
14211WAT     H142875   8.932   1.577   6.486
14211WAT     H242876   9.050   1.476   6.537
14212WAT      O42877   5.949   7.776   4.612
14212WAT     H142878   5.978   7.698   4.667
14212WAT     H242879   6.007   7.855   4.632
14213WAT      O42880   6.713   1.500   6.865
14213WAT     H142881   6.642   1.544   6.811
14213WAT     H242882   6.762   1.434   6.809
14214WAT      O42883   2.624   6.538   8.154
14214WAT     H142884   2.705   6.540   8.211
14214WAT     H242885   2.543   6.523   8.211
14215WAT      O42886   8.793   7.218   4.766
14215WAT     H142887   8.886   7.248   4.747
14215WAT     H242888   8.728   7.277   4.719
14216WAT      O42889   6.566   1.559   4.965
14216WAT     H142890   6.568   1.621   4.887
14216WAT     H242891   6.512   1.478   4.942
14217WAT      O42892   0.794   6.499   7.675
14217WAT     H142893   0.789   6.411   7.629
14217WAT     H242894   0.801   6.485   7.774
14218WAT      O42895   7.214   8.984   0.517
14218WAT     H142896   7.116   9.004   0.519
14218WAT     H242897   7.252   9.009   0.428
14219WAT      O42898   1.334   0.022   5.557
14219WAT     H142899   1.361  -0.033   5.479
14219WAT     H242900   1.323  -0.036   5.637
14220WAT      O42901   8.329   6.174   5.234
14220WAT     H142902   8.403   6.125   5.189
14220WAT     H242903   8.244   6.161   5.184
14221WAT      O42904   4.788   6.793   4.927
14221WAT     H142905   4.822   6.758   5.014
14221WAT     H242906   4.860   6.785   4.858
14222WAT      O42907   3.057   0.689   2.425
14222WAT     H142908   3.032   0.719   2.333
14222WAT     H242909   3.156   0.675   2.431
14223WAT      O42910   3.018   4.286   2.335
14223WAT     H142911   2.995   4.190   2.350
14223WAT     H242912   3.116   4.294   2.315
14224WAT      O42913   5.574   8.522   7.808
14224WAT     H142914   5.592   8.439   7.756
14224WAT     H242915   5.611   8.513   7.900
14225WAT      O42916   9.762   0.899   0.777
14225WAT     H142917   9.761   0.878   0.680
14225WAT     H242918   9.768   0.813   0.829
14226WAT      O42919   9.727   1.341   2.947
14226WAT     H142920   9.652   1.278   2.965
14226WAT     H242921   9.814   1.294   2.961
14227WAT      O42922   9.716   0.599   4.406
14227WAT     H142923   9.757   0.690   4.414
14227WAT     H242924   9.670   0.577   4.491
14228WAT      O42925   7.506   2.451   6.242
14228WAT     H142926   7.419   2.487   6.209
14228WAT     H242927   7.560   2.419   6.164
14229WAT      O42928   5.804   6.061   6.324
14229WAT     H142929   5.843   6.103   6.242
14229WAT     H242930   5.862   5.986   6.355
14230WAT      O42931   1.864   8.837   7.381
14230WAT     H142932   1.921   8.806   7.305
14230WAT     H242933   1.783   8.779   7.387
14231WAT      O42934   6.923   4.838   9.781
14231WAT     H142935   6.899   4.805   9.872
14231WAT     H242936   7.020   4.864   9.779
14232WAT      O42937   2.935   7.107   8.402
14232WAT     H142938   2.873   7.175   8.363
14232WAT     H242939   2.883   7.033   8.443
14233WAT      O42940   9.223   4.767   2.596
14233WAT     H142941   9.142   4.749   2.541
14233WAT     H242942   9.262   4.681   2.628
14234WAT      O42943   9.582   6.444   1.173
14234WAT     H142944   9.613   6.504   1.099
14234WAT     H242945   9.533   6.366   1.134
14235WAT      O42946   5.145   4.083   0.048
14235WAT     H142947   5.122   4.176   0.021
14235WAT     H242948   5.240   4.080   0.078
14236WAT      O42949   7.238   0.272   1.053
14236WAT     H142950   7.174   0.275   0.976
14236WAT     H242951   7.220   0.348   1.115
14237WAT      O42952   8.340   3.466   5.483
14237WAT     H142953   8.304   3.530   5.550
14237WAT     H242954   8.279   3.387   5.475
14238WAT      O42955   9.618   4.721   2.326
14238WAT     H142956   9.707   4.764   2.329
14238WAT     H242957   9.621   4.642   2.264
14239WAT      O42958   9.542   6.844   2.371
14239WAT     H142959   9.488   6.926   2.353
14239WAT     H242960   9.630   6.851   2.324
14240WAT      O42961   5.485   1.180   3.413
14240WAT     H142962   5.451   1.110   3.350
14240WAT     H242963   5.585   1.183   3.408
14241WAT      O42964   7.016   4.115   5.169
14241WAT     H142965   7.003   4.196   5.112
14241WAT     H242966   7.067   4.139   5.251
14242WAT      O42967   6.882   2.038   1.203
14242WAT     H142968   6.978   2.065   1.209
14242WAT     H242969   6.826   2.118   1.182
14243WAT      O42970   3.969   3.649   5.636
14243WAT     H142971   3.879   3.646   5.682
14243WAT     H242972   3.995   3.557   5.609
14244WAT      O42973   6.035   8.461   9.091
14244WAT     H142974   6.010   8.547   9.048
14244WAT     H242975   6.112   8.476   9.154
14245WAT      O42976   3.480   2.401   5.081
14245WAT     H142977   3.573   2.410   5.117
14245WAT     H242978   3.422   2.474   5.118
14246WAT      O42979   9.658   0.375   7.475
14246WAT     H142980   9.591   0.443   7.504
14246WAT     H242981   9.748   0.418   7.467
14247WAT      O42982   7.543   0.609   6.275
14247WAT     H142983   7.509   0.555   6.352
14247WAT     H242984   7.618   0.561   6.231
14248WAT      O42985   3.192   0.483   8.313
14248WAT     H142986   3.235   0.440   8.393
14248WAT     H242987   3.203   0.424   8.233
14249WAT      O42988   6.081   6.000   6.655
14249WAT     H142989   6.062   6.096   6.676
14249WAT     H242990   6.052   5.943   6.732
14250WAT      O42991   6.064   1.767   0.678
14250WAT     H142992   6.101   1.752   0.769
14250WAT     H242993   6.114   1.710   0.612
14251WAT      O42994   5.341   6.769   5.934
14251WAT     H142995   5.416   6.783   5.998
14251WAT     H242996   5.282   6.850   5.934
14252WAT      O42997   0.162   8.398   8.213
14252WAT     H142998   0.129   8.377   8.121
14252WAT     H242999   0.229   8.329   8.242
14253WAT      O43000   0.088   0.220   3.543
14253WAT     H143001   0.165   0.183   3.595
14253WAT     H243002   0.118   0.241   3.450
14254WAT      O43003   7.935   3.752   9.880
14254WAT     H143004   7.919   3.780   9.786
14254WAT     H243005   7.848   3.753   9.930
14255WAT      O43006   0.738   9.445   5.640
14255WAT     H143007   0.715   9.363   5.693
14255WAT     H243008   0.674   9.518   5.662
14256WAT      O43009   2.223   0.328   5.491
14256WAT     H143010   2.268   0.411   5.457
14256WAT     H243011   2.251   0.311   5.585
14257WAT      O43012   7.610   5.709   0.947
14257WAT     H143013   7.655   5.633   0.994
14257WAT     H243014   7.670   5.788   0.946
14258WAT      O43015   2.063   1.298   9.135
14258WAT     H143016   2.076   1.372   9.069
14258WAT     H243017   2.017   1.335   9.217
14259WAT      O43018   4.804   7.141   6.265
14259WAT     H143019   4.778   7.204   6.192
14259WAT     H243020   4.892   7.099   6.243
14260WAT      O43021   3.754   6.184   7.062
14260WAT     H143022   3.680   6.128   7.099
14260WAT     H243023   3.805   6.132   6.994
14261WAT      O43024   3.941   5.947   2.863
14261WAT     H143025   4.030   5.986   2.839
14261WAT     H243026   3.876   5.961   2.788
14262WAT      O43027   9.873   7.271   1.223
14262WAT     H143028   9.905   7.315   1.139
14262WAT     H243029   9.947   7.271   1.291
14263WAT      O43030   7.413   5.910   4.741
14263WAT     H143031   7.320   5.896   4.707
14263WAT     H243032   7.420   6.003   4.778
14264WAT      O43033   6.763   2.390   3.794
14264WAT     H143034   6.814   2.440   3.864
14264WAT     H243035   6.776   2.292   3.806
14265WAT      O43036   9.067   4.765   0.519
14265WAT     H143037   9.017   4.841   0.477
14265WAT     H243038   9.007   4.718   0.583
14266WAT      O43039   4.278   6.685   6.396
14266WAT     H143040   4.367   6.731   6.397
14266WAT     H243041   4.290   6.589   6.368
14267WAT      O43042   5.442   7.662   6.562
14267WAT     H143043   5.425   7.567   6.537
14267WAT     H243044   5.539   7.673   6.588
14268WAT      O43045   8.847   6.064   8.450
14268WAT     H143046   8.801   5.993   8.397
14268WAT     H243047   8.904   6.119   8.389
14269WAT      O43048   6.003   8.086   7.967
14269WAT     H143049   6.082   8.146   7.978
14269WAT     H243050   5.953   8.112   7.884
14270WAT      O43051   9.259   7.043   2.976
14270WAT     H143052   9.185   6.986   3.012
14270WAT     H243053   9.298   7.098   3.051
14271WAT      O43054   7.809   5.192   8.395
14271WAT     H143055   7.806   5.245   8.479
14271WAT     H243056   7.904   5.178   8.368
14272WAT      O43057   3.758   8.427   5.786
14272WAT     H143058   3.670   8.380   5.777
14272WAT     H243059   3.825   8.366   5.827
14273WAT      O43060   6.589   6.179   5.048
14273WAT     H143061   6.504   6.212   5.090
14273WAT     H243062   6.667   6.211   5.100
14274WAT      O43063   5.976   2.820   5.829
14274WAT     H143064   6.025   2.880   5.765
14274WAT     H243065   5.969   2.865   5.918
14275WAT      O43066   4.095   6.519   7.652
14275WAT     H143067   4.154   6.589   7.692
14275WAT     H243068   4.091   6.533   7.553
14276WAT      O43069   0.574   2.707   3.559
14276WAT     H143070   0.504   2.637   3.554
14276WAT     H243071   0.531   2.797   3.567
14277WAT      O43072   2.703   0.643   6.624
14277WAT     H143073   2.606   0.623   6.615
14277WAT     H243074   2.750   0.564   6.662
14278WAT      O43075   1.155   6.934   6.092
14278WAT     H143076   1.228   6.881   6.049
14278WAT     H243077   1.194   6.994   6.162
14279WAT      O43078   1.758   5.896   2.014
14279WAT     H143079   1.675   5.847   2.041
14279WAT     H243080   1.756   5.915   1.915
14280WAT      O43081   7.150   8.971   2.289
14280WAT     H143082   7.055   8.988   2.265
14280WAT     H243083   7.208   9.041   2.246
14281WAT      O43084   3.573   3.169   8.606
14281WAT     H143085   3.664   3.202   8.631
14281WAT     H243086   3.568   3.071   8.622
14282WAT      O43087   8.577   0.240   1.228
14282WAT     H143088   8.489   0.251   1.181
14282WAT     H243089   8.646   0.297   1.183
14283WAT      O43090   4.421   6.963   6.093
14283WAT     H143091   4.357   6.888   6.071
14283WAT     H243092   4.513   6.926   6.102
14284WAT      O43093   7.138   2.615   8.442
14284WAT     H143094   7.139   2.684   8.513
14284WAT     H243095   7.230   2.575   8.434
14285WAT      O43096   5.517   6.571   7.788
14285WAT     H143097   5.561   6.487   7.820
14285WAT     H243098   5.583   6.623   7.734
14286WAT      O43099   5.133   6.630   5.718
14286WAT     H143100   5.215   6.579   5.746
14286WAT     H243101   5.143   6.659   5.623
14287WAT      O43102   6.713   8.247   0.943
14287WAT     H143103   6.635   8.207   0.895
14287WAT     H243104   6.691   8.258   1.040
14288WAT      O43105   8.119   8.298   2.595
14288WAT     H143106   8.127   8.313   2.497
14288WAT     H243107   8.210   8.286   2.635
14289WAT      O43108   2.280   5.483   8.619
14289WAT     H143109   2.253   5.431   8.701
14289WAT     H243110   2.198   5.521   8.576
14290WAT      O43111   1.042   8.496   5.497
14290WAT     H143112   1.050   8.509   5.398
14290WAT     H243113   0.959   8.542   5.530
14291WAT      O43114   3.173   8.257   0.920
14291WAT     H143115   3.143   8.201   0.997
14291WAT     H243116   3.266   8.231   0.894
14292WAT      O43117   4.075   4.262   8.817
14292WAT     H143118   4.004   4.219   8.873
14292WAT     H243119   4.033   4.322   8.750
14293WAT      O43120   6.954   7.457   8.523
14293WAT     H143121   7.038   7.456   8.577
14293WAT     H243122   6.889   7.390   8.560
14294WAT      O43123   6.234   8.721   8.107
14294WAT     H143124   6.238   8.634   8.156
14294WAT     H243125   6.142   8.760   8.115
14295WAT      O43126   7.272   9.472   6.556
14295WAT     H143127   7.302   9.534   6.483
14295WAT     H243128   7.266   9.523   6.642
14296WAT      O43129   5.366   3.651   4.720
14296WAT     H143130   5.306   3.625   4.645
14296WAT     H243131   5.364   3.581   4.790
14297WAT      O43132   8.079   7.803   6.040
14297WAT     H143133   8.059   7.793   5.943
14297WAT     H243134   8.002   7.849   6.086
14298WAT      O43135   2.896   6.051   0.050
14298WAT     H143136   2.851   5.962   0.061
14298WAT     H243137   2.950   6.070   0.132
14299WAT      O43138   5.426   8.348   1.357
14299WAT     H143139   5.376   8.318   1.275
14299WAT     H243140   5.408   8.286   1.432
14300WAT      O43141   7.368   5.063   6.593
14300WAT     H143142   7.340   4.996   6.662
14300WAT     H243143   7.439   5.024   6.535
14301WAT      O43144   4.951   3.933   1.480
14301WAT     H143145   5.020   3.890   1.539
14301WAT     H243146   4.973   3.914   1.385
14302WAT      O43147   1.047   2.776   4.874
14302WAT     H143148   1.121   2.720   4.910
14302WAT     H243149   1.037   2.859   4.929
14303WAT      O43150   8.001   2.688   0.270
14303WAT     H143151   8.004   2.599   0.226
14303WAT     H243152   7.916   2.734   0.246
14304WAT      O43153   2.522   6.422   5.763
14304WAT     H143154   2.522   6.500   5.701
14304WAT     H243155   2.429   6.386   5.771
14305WAT      O43156   7.763   3.193   0.896
14305WAT     H143157   7.729   3.100   0.904
14305WAT     H243158   7.804   3.206   0.806
14306WAT      O43159   0.500   1.170   7.038
14306WAT     H143160   0.550   1.096   6.993
14306WAT     H243161   0.472   1.237   6.969
14307WAT      O43162   6.683   0.867   1.523
14307WAT     H143163   6.596   0.914   1.538
14307WAT     H243164   6.758   0.930   1.544
14308WAT      O43165   1.784   2.822   7.225
14308WAT     H143166   1.871   2.871   7.217
14308WAT     H243167   1.738   2.852   7.309
14309WAT      O43168   0.092   0.693   0.349
14309WAT     H143169   0.044   0.609   0.375
14309WAT     H243170   0.029   0.771   0.355
14310WAT      O43171   4.081   1.021   8.328
14310WAT     H143172   4.138   0.941   8.309
14310WAT     H243173   3.991   0.990   8.360
14311WAT      O43174   3.569   9.077   7.801
14311WAT     H143175   3.577   9.176   7.812
14311WAT     H243176   3.611   9.031   7.879
14312WAT      O43177   3.411   4.432   8.582
14312WAT     H143178   3.326   4.416   8.632
14312WAT     H243179   3.456   4.345   8.562
14313WAT      O43180   8.978   6.426   2.073
14313WAT     H143181   8.985   6.331   2.106
14313WAT     H243182   8.903   6.472   2.120
14314WAT      O43183   8.002   9.696   8.541
14314WAT     H143184   7.954   9.686   8.455
14314WAT     H243185   7.936   9.701   8.616
14315WAT      O43186   6.711   6.097   9.540
14315WAT     H143187   6.706   6.024   9.473
14315WAT     H243188   6.624   6.105   9.588
14316WAT      O43189   0.682   8.859   6.985
14316WAT     H143190   0.601   8.806   7.009
14316WAT     H243191   0.764   8.808   7.011
14317WAT      O43192   6.048   8.597   4.794
14317WAT     H143193   6.051   8.515   4.851
14317WAT     H243194   6.118   8.589   4.723
14318WAT      O43195   3.199   1.424   7.269
14318WAT     H143196   3.202   1.386   7.177
14318WAT     H243197   3.263   1.375   7.328
14319WAT      O43198   4.871   1.906   8.887
14319WAT     H143199   4.796   1.870   8.831
14319WAT     H243200   4.834   1.961   8.961
14320WAT      O43201   5.213   2.897   0.753
14320WAT     H143202   5.133   2.956   0.749
14320WAT     H243203   5.192   2.810   0.709
14321WAT      O43204   0.297   6.121   1.513
14321WAT     H143205   0.353   6.148   1.435
14321WAT     H243206   0.207   6.163   1.505
14322WAT      O43207   1.128   3.241   9.351
14322WAT     H143208   1.114   3.289   9.265
14322WAT     H243209   1.216   3.267   9.390
14323WAT      O43210   1.943   0.421   7.709
14323WAT     H143211   1.942   0.439   7.807
14323WAT     H243212   1.952   0.323   7.693
14324WAT      O43213   0.427   7.107   6.350
14324WAT     H143214   0.396   7.129   6.442
14324WAT     H243215   0.457   7.012   6.347
14325WAT      O43216   2.967   8.772   8.068
14325WAT     H143217   2.867   8.765   8.074
14325WAT     H243218   3.008   8.684   8.091
14326WAT      O43219   5.128   5.327   1.980
14326WAT     H143220   5.138   5.281   1.892
14326WAT     H243221   5.198   5.292   2.043
14327WAT      O43222   1.417   4.120   5.510
14327WAT     H143223   1.407   4.028   5.548
14327WAT     H243224   1.329   4.149   5.472
14328WAT      O43225   0.200   9.002   5.663
14328WAT     H143226   0.295   9.008   5.693
14328WAT     H243227   0.193   9.030   5.567
14329WAT      O43228   1.140   7.547   0.318
14329WAT     H143229   1.123   7.461   0.366
14329WAT     H243230   1.076   7.557   0.242
14330WAT      O43231   7.706   6.592   1.595
14330WAT     H143232   7.655   6.673   1.567
14330WAT     H243233   7.752   6.552   1.515
14331WAT      O43234   0.010   8.340   8.751
14331WAT     H143235   0.046   8.433   8.746
14331WAT     H243236  -0.077   8.341   8.800
14332WAT      O43237   6.574   6.676   9.864
14332WAT     H143238   6.659   6.716   9.898
14332WAT     H243239   6.587   6.577   9.853
14333WAT      O43240   6.475   0.115   0.620
14333WAT     H143241   6.454   0.047   0.690
14333WAT     H243242   6.572   0.108   0.595
14334WAT      O43243   7.284   6.188   0.605
14334WAT     H143244   7.358   6.249   0.631
14334WAT     H243245   7.233   6.160   0.686
14335WAT      O43246   7.920   1.164   1.484
14335WAT     H143247   7.845   1.097   1.484
14335WAT     H243248   8.007   1.117   1.470
14336WAT      O43249   2.391   8.309   2.206
14336WAT     H143250   2.486   8.336   2.190
14336WAT     H243251   2.332   8.389   2.199
14337WAT      O43252   7.491   6.290   0.769
14337WAT     H143253   7.589   6.268   0.773
14337WAT     H243254   7.445   6.253   0.850
14338WAT      O43255   3.838   1.230   5.943
14338WAT     H143256   3.896   1.309   5.923
14338WAT     H243257   3.876   1.180   6.020
14339WAT      O43258   6.328   9.525   1.238
14339WAT     H143259   6.300   9.621   1.244
14339WAT     H243260   6.352   9.504   1.143
14340WAT      O43261   8.391   1.086   2.777
14340WAT     H143262   8.324   1.012   2.790
14340WAT     H243263   8.455   1.087   2.854
14341WAT      O43264   7.193   5.223   9.240
14341WAT     H143265   7.164   5.190   9.151
14341WAT     H243266   7.257   5.299   9.228
14342WAT      O43267   3.270   3.405   5.790
14342WAT     H143268   3.265   3.337   5.717
14342WAT     H243269   3.286   3.495   5.751
14343WAT      O43270   9.494   7.706   1.293
14343WAT     H143271   9.585   7.666   1.278
14343WAT     H243272   9.457   7.672   1.380
14344WAT      O43273   7.572   4.337   3.734
14344WAT     H143274   7.536   4.430   3.742
14344WAT     H243275   7.665   4.335   3.770
14345WAT      O43276   8.121   0.883   0.094
14345WAT     H143277   8.113   0.796   0.142
14345WAT     H243278   8.060   0.951   0.136
14346WAT      O43279   6.050   8.574   6.629
14346WAT     H143280   5.964   8.559   6.581
14346WAT     H243281   6.121   8.516   6.588
14347WAT      O43282   2.277   5.375   5.739
14347WAT     H143283   2.346   5.344   5.673
14347WAT     H243284   2.322   5.430   5.810
14348WAT      O43285   2.696   4.342   6.997
14348WAT     H143286   2.679   4.244   6.982
14348WAT     H243287   2.730   4.357   7.089
14349WAT      O43288   4.539   0.419   4.432
14349WAT     H143289   4.480   0.446   4.508
14349WAT     H243290   4.531   0.321   4.417
14350WAT      O43291   3.412   2.936   3.589
14350WAT     H143292   3.405   2.939   3.489
14350WAT     H243293   3.455   3.020   3.622
14351WAT      O43294   5.273   0.362   3.051
14351WAT     H143295   5.219   0.302   3.110
14351WAT     H243296   5.359   0.384   3.095
14352WAT      O43297   6.040   5.531   2.607
14352WAT     H143298   5.943   5.520   2.586
14352WAT     H243299   6.053   5.527   2.706
14353WAT      O43300   4.201   3.638   4.608
14353WAT     H143301   4.142   3.567   4.645
14353WAT     H243302   4.162   3.674   4.523
14354WAT      O43303   0.574   9.817   7.558
14354WAT     H143304   0.545   9.847   7.467
14354WAT     H243305   0.494   9.796   7.613
14355WAT      O43306   2.423   2.413   1.986
14355WAT     H143307   2.327   2.394   1.968
14355WAT     H243308   2.431   2.496   2.040
14356WAT      O43309   6.012   2.328   4.169
14356WAT     H143310   6.007   2.398   4.240
14356WAT     H243311   6.102   2.284   4.172
14357WAT      O43312   7.431   4.198   0.571
14357WAT     H143313   7.424   4.162   0.664
14357WAT     H243314   7.372   4.278   0.561
14358WAT      O43315   7.002   1.437   4.539
14358WAT     H143316   6.997   1.450   4.638
14358WAT     H243317   7.047   1.350   4.519
14359WAT      O43318   8.401   7.905   5.979
14359WAT     H143319   8.439   7.986   6.024
14359WAT     H243320   8.366   7.931   5.889
14360WAT      O43321   4.027   2.308   6.440
14360WAT     H143322   4.116   2.315   6.485
14360WAT     H243323   3.955   2.312   6.509
14361WAT      O43324   4.332   2.355   1.585
14361WAT     H143325   4.354   2.258   1.594
14361WAT     H243326   4.385   2.395   1.511
14362WAT      O43327   7.364   7.505   5.212
14362WAT     H143328   7.282   7.490   5.156
14362WAT     H243329   7.438   7.446   5.179
14363WAT      O43330   9.195   7.273   6.756
14363WAT     H143331   9.158   7.182   6.741
14363WAT     H243332   9.136   7.322   6.821
14364WAT      O43333   8.782   0.717   6.402
14364WAT     H143334   8.834   0.687   6.481
14364WAT     H243335   8.734   0.802   6.424
14365WAT      O43336   2.450   1.058   2.766
14365WAT     H143337   2.462   1.091   2.860
14365WAT     H243338   2.362   1.088   2.731
14366WAT      O43339   3.810   5.251   0.922
14366WAT     H143340   3.811   5.210   0.831
14366WAT     H243341   3.749   5.200   0.981
14367WAT      O43342   0.732   0.096   0.944
14367WAT     H143343   0.680   0.112   0.861
14367WAT     H243344   0.675   0.115   1.024
14368WAT      O43345   1.484   6.049   7.023
14368WAT     H143346   1.400   6.033   6.971
14368WAT     H243347   1.483   6.142   7.060
14369WAT      O43348   0.082   1.648   6.738
14369WAT     H143349   0.032   1.708   6.676
14369WAT     H243350   0.106   1.563   6.692
14370WAT      O43351   2.641   2.826   1.337
14370WAT     H143352   2.672   2.737   1.304
14370WAT     H243353   2.542   2.826   1.347
14371WAT      O43354   9.330   7.974   6.285
14371WAT     H143355   9.263   7.927   6.227
14371WAT     H243356   9.326   7.936   6.377
14372WAT      O43357   8.518   7.863   9.119
14372WAT     H143358   8.615   7.877   9.140
14372WAT     H243359   8.493   7.768   9.139
14373WAT      O43360   0.570   6.442   9.210
14373WAT     H143361   0.505   6.390   9.154
14373WAT     H243362   0.552   6.540   9.200
14374WAT      O43363   5.670   9.147   9.638
14374WAT     H143364   5.666   9.180   9.732
14374WAT     H243365   5.674   9.225   9.575
14375WAT      O43366   9.751   0.495   6.175
14375WAT     H143367   9.745   0.445   6.089
14375WAT     H243368   9.831   0.465   6.226
14376WAT      O43369   9.855   1.655   8.828
14376WAT     H143370   9.921   1.583   8.853
14376WAT     H243371   9.874   1.737   8.881
14377WAT      O43372   5.538   1.214   8.273
14377WAT     H143373   5.604   1.216   8.348
14377WAT     H243374   5.567   1.147   8.205
14378WAT      O43375   2.353   4.427   7.451
14378WAT     H143376   2.259   4.402   7.477
14378WAT     H243377   2.395   4.479   7.525
14379WAT      O43378   6.901   9.503   9.678
14379WAT     H143379   6.892   9.601   9.695
14379WAT     H243380   6.868   9.452   9.757
14380WAT      O43381   6.426   9.432   9.524
14380WAT     H143382   6.506   9.469   9.572
14380WAT     H243383   6.406   9.341   9.560
14381WAT      O43384   1.245   9.740   2.960
14381WAT     H143385   1.178   9.808   2.929
14381WAT     H243386   1.271   9.682   2.882
14382WAT      O43387   5.247   7.628   7.725
14382WAT     H143388   5.183   7.551   7.731
14382WAT     H243389   5.319   7.617   7.794
14383WAT      O43390   6.639   7.283   5.687
14383WAT     H143391   6.696   7.283   5.769
14383WAT     H243392   6.558   7.339   5.703
14384WAT      O43393   7.100   4.969   6.451
14384WAT     H143394   7.018   5.024   6.464
14384WAT     H243395   7.181   5.024   6.471
14385WAT      O43396   6.484   7.368   6.196
14385WAT     H143397   6.555   7.326   6.252
14385WAT     H243398   6.455   7.454   6.239
14386WAT      O43399   8.015   4.406   4.408
14386WAT     H143400   8.036   4.313   4.439
14386WAT     H243401   7.927   4.406   4.361
14387WAT      O43402   9.390   7.076   5.466
14387WAT     H143403   9.389   6.997   5.527
14387WAT     H243404   9.346   7.052   5.380
14388WAT      O43405   1.328   2.615   9.166
14388WAT     H143406   1.240   2.648   9.199
14388WAT     H243407   1.336   2.632   9.068
14389WAT      O43408   5.201   9.693   4.208
14389WAT     H143409   5.186   9.611   4.153
14389WAT     H243410   5.287   9.685   4.258
14390WAT      O43411   1.742   8.603   7.664
14390WAT     H143412   1.705   8.609   7.757
14390WAT     H243413   1.734   8.692   7.620
14391WAT      O43414   0.209   4.951   4.944
14391WAT     H143415   0.151   5.013   4.891
14391WAT     H243416   0.302   4.987   4.949
14392WAT      O43417   9.073   6.281   0.993
14392WAT     H143418   9.119   6.210   1.046
14392WAT     H243419   9.080   6.368   1.041
14393WAT      O43420   5.215   5.638   3.817
14393WAT     H143421   5.220   5.665   3.913
14393WAT     H243422   5.171   5.548   3.810
14394WAT      O43423   8.108   4.846   0.464
14394WAT     H143424   8.030   4.875   0.519
14394WAT     H243425   8.101   4.748   0.446
14395WAT      O43426   7.575   5.742   5.548
14395WAT     H143427   7.491   5.711   5.594
14395WAT     H243428   7.648   5.753   5.616
14396WAT      O43429   0.022   2.052   9.669
14396WAT     H143430   0.122   2.057   9.662
14396WAT     H243431  -0.015   2.144   9.682
14397WAT      O43432   7.287   7.510   0.589
14397WAT     H143433   7.276   7.584   0.523
14397WAT     H243434   7.383   7.481   0.592
14398WAT      O43435   8.039   7.684   9.771
14398WAT     H143436   7.940   7.670   9.781
14398WAT     H243437   8.057   7.728   9.683
14399WAT      O43438   5.618   1.226   7.888
14399WAT     H143439   5.570   1.145   7.853
14399WAT     H243440   5.697   1.197   7.942
14400WAT      O43441   9.370   9.610   4.969
14400WAT     H143442   9.331   9.683   4.913
14400WAT     H243443   9.384   9.529   4.914
14401WAT      O43444   9.417   7.544   5.290
14401WAT     H143445   9.405   7.620   5.354
14401WAT     H243446   9.433   7.579   5.198
14402WAT      O43447   0.064   4.022   1.196
14402WAT     H143448  -0.003   4.052   1.263
14402WAT     H243449   0.143   4.084   1.197
14403WAT      O43450   7.637   7.916   4.661
14403WAT     H143451   7.623   7.931   4.759
14403WAT     H243452   7.634   7.819   4.641
14404WAT      O43453   0.658   1.356   8.120
14404WAT     H143454   0.588   1.296   8.080
14404WAT     H243455   0.746   1.308   8.121
14405WAT      O43456   5.746   7.959   6.447
14405WAT     H143457   5.822   7.910   6.489
14405WAT     H243458   5.731   7.925   6.355
14406WAT      O43459   5.701   7.020   6.890
14406WAT     H143460   5.728   7.103   6.939
14406WAT     H243461   5.629   6.974   6.941
14407WAT      O43462   3.751   8.567   5.539
14407WAT     H143463   3.758   8.522   5.450
14407WAT     H243464   3.746   8.498   5.611
14408WAT      O43465   7.570   7.248   9.070
14408WAT     H143466   7.637   7.313   9.034
14408WAT     H243467   7.565   7.167   9.011
14409WAT      O43468   9.091   0.798   8.250
14409WAT     H143469   9.076   0.896   8.236
14409WAT     H243470   9.181   0.772   8.215
14410WAT      O43471   2.536   7.147   2.419
14410WAT     H143472   2.603   7.096   2.363
14410WAT     H243473   2.522   7.238   2.380
14411WAT      O43474   6.052   8.359   4.945
14411WAT     H143475   5.974   8.300   4.964
14411WAT     H243476   6.066   8.422   5.021
14412WAT      O43477   7.464   2.774   8.173
14412WAT     H143478   7.425   2.826   8.250
14412WAT     H243479   7.419   2.802   8.088
14413WAT      O43480   7.253   0.762   9.432
14413WAT     H143481   7.258   0.815   9.347
14413WAT     H243482   7.157   0.747   9.456
14414WAT      O43483   6.071   2.935   2.430
14414WAT     H143484   6.123   2.852   2.413
14414WAT     H243485   6.024   2.927   2.519
14415WAT      O43486   4.577   3.014   0.480
14415WAT     H143487   4.507   3.059   0.534
14415WAT     H243488   4.641   3.082   0.444
14416WAT      O43489   6.772   4.546   3.876
14416WAT     H143490   6.782   4.646   3.871
14416WAT     H243491   6.688   4.519   3.830
14417WAT      O43492   8.495   9.364   3.285
14417WAT     H143493   8.418   9.323   3.334
14417WAT     H243494   8.555   9.292   3.251
14418WAT      O43495   9.313   5.144   1.588
14418WAT     H143496   9.231   5.179   1.632
14418WAT     H243497   9.391   5.151   1.651
14419WAT      O43498   5.249   2.770   3.928
14419WAT     H143499   5.334   2.718   3.932
14419WAT     H243500   5.206   2.771   4.018
14420WAT      O43501   3.796   3.243   2.057
14420WAT     H143502   3.746   3.323   2.092
14420WAT     H243503   3.735   3.164   2.057
14421WAT      O43504   3.266   1.816   5.843
14421WAT     H143505   3.351   1.857   5.813
14421WAT     H243506   3.194   1.885   5.846
14422WAT      O43507   0.510   2.838   6.566
14422WAT     H143508   0.518   2.937   6.570
14422WAT     H243509   0.414   2.812   6.566
14423WAT      O43510   8.822   9.815   1.996
14423WAT     H143511   8.826   9.730   1.943
14423WAT     H243512   8.844   9.893   1.937
14424WAT      O43513   4.713   8.966   5.933
14424WAT     H143514   4.669   8.939   6.018
14424WAT     H243515   4.753   8.886   5.889
14425WAT      O43516   6.815   5.227   4.447
14425WAT     H143517   6.805   5.301   4.381
14425WAT     H243518   6.728   5.210   4.493
14426WAT      O43519   1.984   4.318   6.464
14426WAT     H143520   1.928   4.286   6.540
14426WAT     H243521   2.028   4.240   6.420
14427WAT      O43522   0.559   3.289   8.325
14427WAT     H143523   0.567   3.240   8.412
14427WAT     H243524   0.474   3.262   8.279
14428WAT      O43525   1.958   4.403   3.184
14428WAT     H143526   1.914   4.331   3.237
14428WAT     H243527   1.910   4.490   3.200
14429WAT      O43528   9.394   8.121   1.112
14429WAT     H143529   9.429   8.080   1.027
14429WAT     H243530   9.357   8.049   1.171
14430WAT      O43531   7.172   4.395   7.142
14430WAT     H143532   7.078   4.373   7.117
14430WAT     H243533   7.171   4.464   7.214
14431WAT      O43534   0.290   5.586   4.079
14431WAT     H143535   0.311   5.502   4.030
14431WAT     H243536   0.355   5.657   4.052
14432WAT      O43537   4.036   3.736   0.853
14432WAT     H143538   4.107   3.769   0.791
14432WAT     H243539   4.025   3.802   0.928
14433WAT      O43540   4.565   8.901   2.994
14433WAT     H143541   4.597   8.923   2.901
14433WAT     H243542   4.644   8.884   3.053
14434WAT      O43543   6.278   2.745   9.096
14434WAT     H143544   6.276   2.787   9.005
14434WAT     H243545   6.317   2.653   9.089
14435WAT      O43546   6.119   5.140   7.459
14435WAT     H143547   6.037   5.132   7.403
14435WAT     H243548   6.127   5.233   7.494
14436WAT      O43549   6.012   8.120   9.229
14436WAT     H143550   5.996   8.208   9.275
14436WAT     H243551   6.046   8.137   9.136
14437WAT      O43552   3.839   4.918   0.422
14437WAT     H143553   3.784   5.001   0.413
14437WAT     H243554   3.780   4.840   0.442
14438WAT      O43555   1.509   0.739   0.587
14438WAT     H143556   1.461   0.668   0.639
14438WAT     H243557   1.596   0.702   0.553
14439WAT      O43558   3.396   8.886   4.877
14439WAT     H143559   3.403   8.951   4.802
14439WAT     H243560   3.300   8.872   4.901
14440WAT      O43561   3.205   0.378   7.253
14440WAT     H143562   3.169   0.325   7.330
14440WAT     H243563   3.142   0.452   7.231
14441WAT      O43564   4.112   3.874   3.155
14441WAT     H143565   4.081   3.861   3.250
14441WAT     H243566   4.175   3.951   3.152
14442WAT      O43567   7.212   7.338   3.448
14442WAT     H143568   7.124   7.291   3.442
14442WAT     H243569   7.284   7.272   3.467
14443WAT      O43570   0.592   7.789   2.242
14443WAT     H143571   0.656   7.805   2.167
14443WAT     H243572   0.633   7.725   2.308
14444WAT      O43573   9.607   3.319   9.794
14444WAT     H143574   9.604   3.374   9.710
14444WAT     H243575   9.519   3.275   9.808
14445WAT      O43576   0.154   1.123   5.265
14445WAT     H143577   0.103   1.039   5.283
14445WAT     H243578   0.252   1.101   5.259
14446WAT      O43579   4.662   1.546   6.762
14446WAT     H143580   4.732   1.502   6.819
14446WAT     H243581   4.573   1.539   6.808
14447WAT      O43582   5.609   5.669   7.229
14447WAT     H143583   5.595   5.686   7.131
14447WAT     H243584   5.572   5.746   7.282
14448WAT      O43585   7.226   6.426   9.580
14448WAT     H143586   7.215   6.521   9.609
14448WAT     H243587   7.248   6.370   9.659
14449WAT      O43588   8.261   3.780   6.775
14449WAT     H143589   8.305   3.698   6.738
14449WAT     H243590   8.165   3.760   6.795
14450WAT      O43591   9.113   2.871   4.936
14450WAT     H143592   9.150   2.930   4.864
14450WAT     H243593   9.053   2.802   4.895
14451WAT      O43594   5.801   1.741   0.117
14451WAT     H143595   5.740   1.671   0.154
14451WAT     H243596   5.864   1.772   0.187
14452WAT      O43597   9.858   3.302   3.870
14452WAT     H143598   9.864   3.341   3.962
14452WAT     H243599   9.935   3.334   3.815
14453WAT      O43600   3.093   9.167   0.507
14453WAT     H143601   3.174   9.227   0.504
14453WAT     H243602   3.081   9.124   0.418
14454WAT      O43603   8.387   8.050   8.661
14454WAT     H143604   8.306   8.003   8.696
14454WAT     H243605   8.439   8.087   8.738
14455WAT      O43606   0.252   0.865   9.759
14455WAT     H143607   0.214   0.820   9.840
14455WAT     H243608   0.317   0.804   9.714
14456WAT      O43609   9.730   7.747   6.851
14456WAT     H143610   9.791   7.679   6.809
14456WAT     H243611   9.658   7.771   6.787
14457WAT      O43612   8.857   4.530   7.289
14457WAT     H143613   8.864   4.430   7.298
14457WAT     H243614   8.948   4.570   7.284
14458WAT      O43615   1.178   2.393   0.644
14458WAT     H143616   1.126   2.460   0.590
14458WAT     H243617   1.210   2.436   0.728
14459WAT      O43618   7.901   0.778   4.808
14459WAT     H143619   7.928   0.845   4.878
14459WAT     H243620   7.812   0.738   4.832
14460WAT      O43621   7.014   1.570   7.866
14460WAT     H143622   7.007   1.628   7.785
14460WAT     H243623   7.109   1.568   7.897
14461WAT      O43624   1.888   4.366   4.755
14461WAT     H143625   1.924   4.286   4.803
14461WAT     H243626   1.942   4.382   4.673
14462WAT      O43627   9.373   5.726   2.319
14462WAT     H143628   9.432   5.649   2.343
14462WAT     H243629   9.409   5.809   2.361
14463WAT      O43630   6.244   7.045   0.273
14463WAT     H143631   6.177   7.092   0.215
14463WAT     H243632   6.232   7.074   0.368
14464WAT      O43633   0.692   6.045   0.491
14464WAT     H143634   0.770   6.091   0.534
14464WAT     H243635   0.608   6.074   0.537
14465WAT      O43636   8.138   0.064   4.176
14465WAT     H143637   8.090   0.146   4.144
14465WAT     H243638   8.160   0.073   4.273
14466WAT      O43639   1.086   5.292   8.924
14466WAT     H143640   1.013   5.311   8.990
14466WAT     H243641   1.169   5.340   8.951
14467WAT      O43642   0.436   4.579   2.830
14467WAT     H143643   0.388   4.622   2.907
14467WAT     H243644   0.491   4.503   2.865
14468WAT      O43645   7.990   9.249   2.810
14468WAT     H143646   7.905   9.197   2.811
14468WAT     H243647   8.022   9.259   2.716
14469WAT      O43648   1.985   3.103   4.056
14469WAT     H143649   2.022   3.043   4.127
14469WAT     H243650   1.985   3.054   3.968
14470WAT      O43651   1.479   6.093   8.035
14470WAT     H143652   1.518   6.150   7.962
14470WAT     H243653   1.549   6.076   8.105
14471WAT      O43654   6.597   3.939   5.196
14471WAT     H143655   6.546   3.962   5.279
14471WAT     H243656   6.695   3.945   5.213
14472WAT      O43657   3.458   9.240   5.442
14472WAT     H143658   3.511   9.162   5.474
14472WAT     H243659   3.392   9.267   5.512
14473WAT      O43660   3.182   1.531   0.892
14473WAT     H143661   3.218   1.460   0.953
14473WAT     H243662   3.085   1.545   0.911
14474WAT      O43663   0.413   5.350   3.860
14474WAT     H143664   0.429   5.259   3.896
14474WAT     H243665   0.473   5.366   3.781
14475WAT      O43666   9.706   2.052   6.534
14475WAT     H143667   9.752   2.109   6.602
14475WAT     H243668   9.730   2.084   6.442
14476WAT      O43669   8.925   6.736   0.271
14476WAT     H143670   8.997   6.804   0.284
14476WAT     H243671   8.941   6.686   0.186
14477WAT      O43672   5.865   4.360   8.828
14477WAT     H143673   5.879   4.287   8.895
14477WAT     H243674   5.945   4.365   8.768
14478WAT      O43675   8.328   2.841   6.246
14478WAT     H143676   8.406   2.869   6.302
14478WAT     H243677   8.243   2.873   6.287
14479WAT      O43678   8.163   8.502   7.888
14479WAT     H143679   8.118   8.448   7.817
14479WAT     H243680   8.184   8.442   7.966
14480WAT      O43681   1.594   0.166   9.083
14480WAT     H143682   1.595   0.131   9.176
14480WAT     H243683   1.510   0.218   9.068
14481WAT      O43684   6.784   6.298   7.750
14481WAT     H143685   6.759   6.313   7.846
14481WAT     H243686   6.866   6.241   7.745
14482WAT      O43687   5.634   2.793   7.851
14482WAT     H143688   5.680   2.707   7.827
14482WAT     H243689   5.535   2.779   7.851
14483WAT      O43690   1.758   7.646   2.075
14483WAT     H143691   1.723   7.734   2.107
14483WAT     H243692   1.711   7.619   1.991
14484WAT      O43693   2.320   0.909   5.868
14484WAT     H143694   2.331   0.956   5.956
14484WAT     H243695   2.224   0.888   5.853
14485WAT      O43696   9.678   0.036   7.222
14485WAT     H143697   9.645   0.086   7.142
14485WAT     H243698   9.617   0.050   7.299
14486WAT      O43699   8.122   2.254   4.001
14486WAT     H143700   8.051   2.183   4.004
14486WAT     H243701   8.172   2.247   3.915
14487WAT      O43702   8.923   6.914   5.480
14487WAT     H143703   8.905   6.911   5.578
14487WAT     H243704   8.970   6.831   5.452
14488WAT      O43705   4.265   2.573   6.160
14488WAT     H143706   4.313   2.590   6.246
14488WAT     H243707   4.233   2.660   6.122
14489WAT      O43708   4.370   8.808   6.915
14489WAT     H143709   4.308   8.841   6.987
14489WAT     H243710   4.413   8.724   6.945
14490WAT      O43711   7.572   6.448   4.957
14490WAT     H143712   7.576   6.351   4.980
14490WAT     H243713   7.615   6.501   5.030
14491WAT      O43714   2.688   8.088   8.717
14491WAT     H143715   2.678   8.027   8.796
14491WAT     H243716   2.657   8.041   8.635
14492WAT      O43717   7.084   2.385   1.054
14492WAT     H143718   7.111   2.414   0.962
14492WAT     H243719   6.985   2.375   1.058
14493WAT      O43720   9.226   3.282   2.560
14493WAT     H143721   9.308   3.335   2.579
14493WAT     H243722   9.239   3.188   2.591
14494WAT      O43723   1.558   6.326   4.808
14494WAT     H143724   1.491   6.277   4.863
14494WAT     H243725   1.642   6.271   4.801
14495WAT      O43726   0.637   1.711   0.238
14495WAT     H143727   0.688   1.685   0.320
14495WAT     H243728   0.679   1.667   0.158
14496WAT      O43729   7.178   1.662   4.584
14496WAT     H143730   7.114   1.592   4.552
14496WAT     H243731   7.184   1.735   4.516
14497WAT      O43732   3.640   1.055   2.503
14497WAT     H143733   3.708   1.124   2.529
14497WAT     H243734   3.665   0.967   2.542
14498WAT      O43735   5.391   5.640   0.471
14498WAT     H143736   5.484   5.606   0.465
14498WAT     H243737   5.326   5.566   0.456
14499WAT      O43738   2.314   2.935   3.881
14499WAT     H143739   2.396   2.982   3.849
14499WAT     H243740   2.239   2.950   3.816
14500WAT      O43741   7.966   2.173   5.417
14500WAT     H143742   7.992   2.269   5.431
14500WAT     H243743   8.034   2.113   5.459
14501WAT      O43744   4.477   9.117   5.476
14501WAT     H143745   4.517   9.066   5.552
14501WAT     H243746   4.547   9.177   5.436
14502WAT      O43747   6.811   7.294   8.273
14502WAT     H143748   6.764   7.209   8.296
14502WAT     H243749   6.796   7.361   8.346
14503WAT      O43750   0.958   6.934   4.560
14503WAT     H143751   0.957   6.837   4.585
14503WAT     H243752   1.040   6.952   4.505
14504WAT      O43753   2.256   2.925   7.591
14504WAT     H143754   2.300   2.989   7.654
14504WAT     H243755   2.325   2.863   7.552
14505WAT      O43756   9.690   3.163   8.940
14505WAT     H143757   9.654   3.248   8.900
14505WAT     H243758   9.695   3.093   8.869
14506WAT      O43759   1.960   7.750   5.695
14506WAT     H143760   1.972   7.731   5.598
14506WAT     H243761   2.044   7.792   5.732
14507WAT      O43762   5.444   0.947   3.232
14507WAT     H143763   5.415   0.861   3.190
14507WAT     H243764   5.461   1.015   3.160
14508WAT      O43765   2.084   0.678   2.040
14508WAT     H143766   2.013   0.749   2.040
14508WAT     H243767   2.125   0.672   1.949
14509WAT      O43768   1.411   7.768   2.858
14509WAT     H143769   1.391   7.831   2.784
14509WAT     H243770   1.419   7.819   2.944
14510WAT      O43771   6.936   1.967   5.730
14510WAT     H143772   6.902   1.957   5.636
14510WAT     H243773   6.861   1.954   5.794
14511WAT      O43774   1.636   7.983   2.504
14511WAT     H143775   1.584   7.974   2.589
14511WAT     H243776   1.616   7.905   2.444
14512WAT      O43777   4.951   0.926   1.443
14512WAT     H143778   4.958   0.929   1.543
14512WAT     H243779   4.951   0.830   1.413
14513WAT      O43780   5.105   1.416   3.207
14513WAT     H143781   5.005   1.428   3.201
14513WAT     H243782   5.128   1.377   3.296
14514WAT      O43783   8.007   5.864   0.565
14514WAT     H143784   8.061   5.934   0.519
14514WAT     H243785   8.037   5.855   0.660
14515WAT      O43786   7.795   2.336   7.999
14515WAT     H143787   7.816   2.328   7.902
14515WAT     H243788   7.791   2.245   8.040
14516WAT      O43789   2.861   3.829   1.157
14516WAT     H143790   2.949   3.811   1.201
14516WAT     H243791   2.877   3.871   1.067
14517WAT      O43792   4.011   8.792   1.163
14517WAT     H143793   3.981   8.735   1.239
14517WAT     H243794   3.993   8.888   1.184
14518WAT      O43795   3.376   2.552   3.800
14518WAT     H143796   3.413   2.496   3.726
14518WAT     H243797   3.425   2.639   3.804
14519WAT      O43798   9.640   0.361   4.229
14519WAT     H143799   9.675   0.419   4.302
14519WAT     H243800   9.592   0.418   4.162
14520WAT      O43801   0.265   5.839   9.565
14520WAT     H143802   0.250   5.799   9.655
14520WAT     H243803   0.352   5.888   9.564
14521WAT      O43804   0.157   2.098   6.314
14521WAT     H143805   0.174   2.056   6.403
14521WAT     H243806   0.060   2.123   6.306
14522WAT      O43807   5.854   9.385   5.073
14522WAT     H143808   5.953   9.395   5.076
14522WAT     H243809   5.818   9.382   5.166
14523WAT      O43810   1.590   7.846   1.649
14523WAT     H143811   1.569   7.929   1.597
14523WAT     H243812   1.635   7.870   1.735
14524WAT      O43813   1.000   4.867   0.775
14524WAT     H143814   0.921   4.818   0.811
14524WAT     H243815   0.997   4.962   0.804
14525WAT      O43816   0.941   4.626   2.004
14525WAT     H143817   0.977   4.533   2.004
14525WAT     H243818   0.841   4.623   2.011
14526WAT      O43819   8.474   0.191   7.175
14526WAT     H143820   8.493   0.095   7.198
14526WAT     H243821   8.462   0.243   7.260
14527WAT      O43822   8.374   6.980   6.106
14527WAT     H143823   8.438   7.023   6.169
14527WAT     H243824   8.425   6.926   6.038
14528WAT      O43825   1.838   5.468   8.873
14528WAT     H143826   1.811   5.470   8.777
14528WAT     H243827   1.857   5.374   8.900
14529WAT      O43828   1.287   4.869   2.472
14529WAT     H143829   1.315   4.876   2.376
14529WAT     H243830   1.204   4.813   2.478
14530WAT      O43831   8.858   2.123   7.761
14530WAT     H143832   8.790   2.156   7.695
14530WAT     H243833   8.905   2.201   7.802
14531WAT      O43834   9.756   5.983   6.440
14531WAT     H143835   9.825   6.050   6.415
14531WAT     H243836   9.800   5.894   6.455
14532WAT      O43837   7.423   0.521   3.856
14532WAT     H143838   7.342   0.502   3.912
14532WAT     H243839   7.442   0.619   3.857
14533WAT      O43840   1.924   8.943   1.219
14533WAT     H143841   1.885   8.853   1.201
14533WAT     H243842   1.867   9.014   1.176
14534WAT      O43843   5.661   0.314   7.751
14534WAT     H143844   5.722   0.361   7.814
14534WAT     H243845   5.712   0.283   7.671
14535WAT      O43846   1.812   3.191   7.796
14535WAT     H143847   1.897   3.218   7.750
14535WAT     H243848   1.758   3.272   7.817
14536WAT      O43849   8.591   5.664   7.567
14536WAT     H143850   8.512   5.615   7.604
14536WAT     H243851   8.635   5.609   7.496
14537WAT      O43852   2.179   6.248   6.200
14537WAT     H143853   2.128   6.323   6.159
14537WAT     H243854   2.167   6.165   6.146
14538WAT      O43855   9.248   5.996   0.718
14538WAT     H143856   9.276   5.908   0.757
14538WAT     H243857   9.329   6.045   0.685
14539WAT      O43858   9.551   5.420   9.660
14539WAT     H143859   9.649   5.440   9.663
14539WAT     H243860   9.538   5.331   9.617
14540WAT      O43861   6.836   0.476   9.760
14540WAT     H143862   6.890   0.553   9.794
14540WAT     H243863   6.740   0.491   9.780
14541WAT      O43864   3.226   1.682   8.981
14541WAT     H143865   3.287   1.637   9.046
14541WAT     H243866   3.179   1.614   8.925
14542WAT      O43867   5.875   0.442   5.699
14542WAT     H143868   5.818   0.361   5.715
14542WAT     H243869   5.948   0.418   5.635
14543WAT      O43870   4.216   0.369   9.580
14543WAT     H143871   4.248   0.329   9.666
14543WAT     H243872   4.119   0.392   9.588
14544WAT      O43873   4.015   2.155   7.088
14544WAT     H143874   4.048   2.139   7.181
14544WAT     H243875   3.985   2.068   7.049
14545WAT      O43876   4.233   4.339   5.366
14545WAT     H143877   4.157   4.404   5.362
14545WAT     H243878   4.279   4.335   5.277
14546WAT      O43879   4.600   9.685   9.327
14546WAT     H143880   4.642   9.637   9.250
14546WAT     H243881   4.557   9.620   9.389
14547WAT      O43882   4.700   8.781   4.056
14547WAT     H143883   4.702   8.834   4.141
14547WAT     H243884   4.786   8.795   4.007
14548WAT      O43885   3.037   3.768   7.949
14548WAT     H143886   3.030   3.678   7.991
14548WAT     H243887   3.027   3.838   8.020
14549WAT      O43888   2.983   8.196   5.971
14549WAT     H143889   2.987   8.133   6.048
14549WAT     H243890   3.041   8.276   5.990
14550WAT      O43891   1.080   0.939   8.433
14550WAT     H143892   1.110   0.937   8.529
14550WAT     H243893   1.143   0.885   8.378
14551WAT      O43894   2.143   6.745   1.471
14551WAT     H143895   2.173   6.702   1.386
14551WAT     H243896   2.195   6.829   1.486
14552WAT      O43897   8.043   5.477   0.879
14552WAT     H143898   8.000   5.558   0.919
14552WAT     H243899   8.009   5.395   0.926
14553WAT      O43900   8.924   5.508   5.492
14553WAT     H143901   8.951   5.529   5.586
14553WAT     H243902   8.975   5.427   5.461
14554WAT      O43903   9.252   8.455   1.582
14554WAT     H143904   9.341   8.455   1.536
14554WAT     H243905   9.224   8.361   1.600
14555WAT      O43906   1.976   7.525   0.324
14555WAT     H143907   1.925   7.605   0.355
14555WAT     H243908   2.040   7.496   0.395
14556WAT      O43909   3.347   6.665   1.842
14556WAT     H143910   3.388   6.582   1.805
14556WAT     H243911   3.251   6.670   1.816
14557WAT      O43912   7.451   9.108   3.348
14557WAT     H143913   7.480   9.171   3.274
14557WAT     H243914   7.479   9.015   3.324
14558WAT      O43915   0.375   5.055   5.772
14558WAT     H143916   0.453   5.096   5.724
14558WAT     H243917   0.379   4.956   5.762
14559WAT      O43918   6.920   4.541   2.277
14559WAT     H143919   7.003   4.595   2.265
14559WAT     H243920   6.885   4.512   2.188
14560WAT      O43921   3.324   5.039   1.431
14560WAT     H143922   3.336   5.046   1.332
14560WAT     H243923   3.250   5.100   1.459
14561WAT      O43924   6.487   4.634   6.092
14561WAT     H143925   6.555   4.633   6.165
14561WAT     H243926   6.490   4.548   6.041
14562WAT      O43927   2.742   7.413   3.966
14562WAT     H143928   2.706   7.482   4.028
14562WAT     H243929   2.764   7.456   3.878
14563WAT      O43930   5.299   6.743   8.029
14563WAT     H143931   5.388   6.712   8.062
14563WAT     H243932   5.254   6.669   7.979
14564WAT      O43933   7.836   4.710   2.753
14564WAT     H143934   7.760   4.646   2.767
14564WAT     H243935   7.832   4.782   2.821
14565WAT      O43936   7.382   7.379   1.982
14565WAT     H143937   7.300   7.423   2.019
14565WAT     H243938   7.390   7.287   2.021
14566WAT      O43939   3.635   5.955   3.750
14566WAT     H143940   3.551   5.948   3.802
14566WAT     H243941   3.654   5.868   3.704
14567WAT      O43942   3.847   2.371   1.925
14567WAT     H143943   3.791   2.294   1.956
14567WAT     H243944   3.879   2.353   1.832
14568WAT      O43945   4.518   8.939   1.554
14568WAT     H143946   4.567   8.966   1.636
14568WAT     H243947   4.548   8.995   1.477
14569WAT      O43948   0.230   6.970   2.824
14569WAT     H143949   0.307   6.909   2.805
14569WAT     H243950   0.263   7.063   2.838
14570WAT      O43951   1.887   8.676   2.362
14570WAT     H143952   1.931   8.662   2.451
14570WAT     H243953   1.867   8.587   2.321
14571WAT      O43954   7.199   4.963   4.711
14571WAT     H143955   7.195   5.063   4.713
14571WAT     H243956   7.136   4.929   4.641
14572WAT      O43957   5.122   6.971   3.010
14572WAT     H143958   5.050   6.915   2.970
14572WAT     H243959   5.112   7.066   2.980
14573WAT      O43960   3.908   2.220   2.445
14573WAT     H143961   3.986   2.229   2.506
14573WAT     H243962   3.915   2.288   2.372
14574WAT      O43963   7.138   5.500   3.779
14574WAT     H143964   7.155   5.407   3.812
14574WAT     H243965   7.045   5.506   3.743
14575WAT      O43966   6.879   9.587   5.269
14575WAT     H143967   6.922   9.555   5.354
14575WAT     H243968   6.933   9.662   5.230
14576WAT      O43969   8.394   4.643   3.543
14576WAT     H143970   8.475   4.589   3.565
14576WAT     H243971   8.420   4.716   3.480
14577WAT      O43972   0.463   5.078   6.472
14577WAT     H143973   0.446   5.036   6.561
14577WAT     H243974   0.387   5.138   6.449
14578WAT      O43975   1.752   6.550   8.348
14578WAT     H143976   1.700   6.465   8.340
14578WAT     H243977   1.839   6.540   8.300
14579WAT      O43978   9.567   7.559   4.289
14579WAT     H143979   9.641   7.500   4.259
14579WAT     H243980   9.566   7.642   4.233
14580WAT      O43981   7.214   6.815   0.745
14580WAT     H143982   7.278   6.892   0.751
14580WAT     H243983   7.188   6.800   0.650
14581WAT      O43984   9.398   0.060   6.864
14581WAT     H143985   9.394   0.017   6.954
14581WAT     H243986   9.324   0.025   6.807
14582WAT      O43987   7.349   4.759   1.653
14582WAT     H143988   7.447   4.761   1.673
14582WAT     H243989   7.324   4.668   1.618
14583WAT      O43990   0.591   5.738   8.918
14583WAT     H143991   0.658   5.676   8.877
14583WAT     H243992   0.500   5.697   8.911
14584WAT      O43993   5.302   3.406   8.930
14584WAT     H143994   5.400   3.402   8.947
14584WAT     H243995   5.259   3.323   8.964
14585WAT      O43996   8.156   6.563   4.109
14585WAT     H143997   8.063   6.584   4.138
14585WAT     H243998   8.202   6.510   4.180
14586WAT      O43999   9.839   7.015   7.886
14586WAT     H144000   9.773   6.948   7.920
14586WAT     H244001   9.905   7.036   7.959
14587WAT      O44002   7.870   0.895   6.213
14587WAT     H144003   7.962   0.899   6.252
14587WAT     H244004   7.876   0.903   6.113
14588WAT      O44005   6.377   0.867   7.130
14588WAT     H144006   6.297   0.810   7.110
14588WAT     H244007   6.455   0.810   7.152
14589WAT      O44008   5.470   1.575   9.257
14589WAT     H144009   5.441   1.670   9.266
14589WAT     H244010   5.562   1.565   9.297
14590WAT      O44011   2.704   4.002   1.295
14590WAT     H144012   2.776   3.947   1.252
14590WAT     H244013   2.620   3.949   1.300
14591WAT      O44014   6.817   8.695   6.193
14591WAT     H144015   6.800   8.793   6.200
14591WAT     H244016   6.782   8.649   6.274
14592WAT      O44017   5.304   6.176   0.582
14592WAT     H144018   5.218   6.182   0.632
14592WAT     H244019   5.381   6.193   0.644
14593WAT      O44020   4.039   5.831   4.042
14593WAT     H144021   3.940   5.849   4.040
14593WAT     H244022   4.080   5.865   3.958
14594WAT      O44023   9.077   5.098   0.602
14594WAT     H144024   9.052   5.078   0.507
14594WAT     H244025   9.169   5.063   0.620
14595WAT      O44026   8.610   6.467   5.244
14595WAT     H144027   8.624   6.561   5.275
14595WAT     H244028   8.525   6.462   5.192
14596WAT      O44029   8.499   7.556   7.371
14596WAT     H144030   8.497   7.507   7.458
14596WAT     H244031   8.500   7.654   7.388
14597WAT      O44032   6.270   9.363   7.730
14597WAT     H144033   6.185   9.334   7.686
14597WAT     H244034   6.259   9.361   7.829
14598WAT      O44035   9.397   4.778   3.450
14598WAT     H144036   9.400   4.700   3.512
14598WAT     H244037   9.411   4.863   3.501
14599WAT      O44038   0.423   9.153   1.170
14599WAT     H144039   0.494   9.207   1.215
14599WAT     H244040   0.405   9.190   1.079
14600WAT      O44041   4.700   4.567   9.422
14600WAT     H144042   4.732   4.644   9.478
14600WAT     H244043   4.604   4.579   9.400
14601WAT      O44044   3.076   1.186   9.759
14601WAT     H144045   3.000   1.156   9.701
14601WAT     H244046   3.102   1.279   9.735
14602WAT      O44047   1.859   3.800   6.715
14602WAT     H144048   1.769   3.843   6.717
14602WAT     H244049   1.855   3.711   6.761
14603WAT      O44050   4.308   6.204   6.177
14603WAT     H144051   4.314   6.197   6.077
14603WAT     H244052   4.214   6.188   6.206
14604WAT      O44053   2.789   7.485   7.257
14604WAT     H144054   2.789   7.422   7.335
14604WAT     H244055   2.880   7.526   7.247
14605WAT      O44056   9.534   1.684   6.395
14605WAT     H144057   9.490   1.595   6.387
14605WAT     H244058   9.634   1.673   6.392
14606WAT      O44059   0.652   7.104   8.892
14606WAT     H144060   0.677   7.116   8.796
14606WAT     H244061   0.568   7.154   8.912
14607WAT      O44062   5.570   6.137   5.130
14607WAT     H144063   5.601   6.151   5.224
14607WAT     H244064   5.473   6.113   5.131
14608WAT      O44065   4.896   6.490   5.820
14608WAT     H144066   4.833   6.551   5.868
14608WAT     H244067   4.959   6.544   5.764
14609WAT      O44068   6.760   1.341   5.679
14609WAT     H144069   6.849   1.365   5.640
14609WAT     H244070   6.773   1.281   5.758
14610WAT      O44071   2.755   3.297   8.109
14610WAT     H144072   2.680   3.238   8.080
14610WAT     H244073   2.834   3.241   8.134
14611WAT      O44074   5.443   1.103   2.991
14611WAT     H144075   5.362   1.161   2.984
14611WAT     H244076   5.509   1.129   2.921
14612WAT      O44077   7.150   1.971   3.787
14612WAT     H144078   7.065   2.017   3.815
14612WAT     H244079   7.131   1.912   3.709
14613WAT      O44080   6.385   5.028   0.056
14613WAT     H144081   6.411   5.109   0.108
14613WAT     H244082   6.388   4.948   0.115
14614WAT      O44083   0.707   3.849   7.851
14614WAT     H144084   0.609   3.871   7.844
14614WAT     H244085   0.732   3.842   7.948
14615WAT      O44086   5.086   1.177   9.535
14615WAT     H144087   5.158   1.153   9.471
14615WAT     H244088   5.010   1.112   9.526
14616WAT      O44089   5.978   3.053   9.478
14616WAT     H144090   5.993   3.061   9.380
14616WAT     H244091   5.885   3.020   9.495
14617WAT      O44092   5.848   5.357   7.563
14617WAT     H144093   5.782   5.426   7.534
14617WAT     H244094   5.906   5.395   7.635
14618WAT      O44095   5.080   2.844   1.650
14618WAT     H144096   5.163   2.889   1.683
14618WAT     H244097   5.010   2.912   1.633
14619WAT      O44098   2.627   3.832   5.944
14619WAT     H144099   2.567   3.911   5.955
14619WAT     H244100   2.604   3.763   6.012
14620WAT      O44101   4.214   2.174   2.829
14620WAT     H144102   4.272   2.229   2.889
14620WAT     H244103   4.118   2.190   2.853
14621WAT      O44104   4.681   1.694   5.318
14621WAT     H144105   4.706   1.688   5.415
14621WAT     H244106   4.687   1.603   5.277
14622WAT      O44107   9.526   2.820   3.525
14622WAT     H144108   9.561   2.907   3.560
14622WAT     H244109   9.513   2.757   3.601
14623WAT      O44110   3.730   2.648   4.357
14623WAT     H144111   3.806   2.605   4.404
14623WAT     H244112   3.699   2.727   4.410
14624WAT      O44113   5.062   2.759   2.374
14624WAT     H144114   5.130   2.762   2.448
14624WAT     H244115   5.071   2.841   2.317
14625WAT      O44116   6.269   2.892   1.259
14625WAT     H144117   6.194   2.948   1.294
14625WAT     H244118   6.271   2.805   1.308
14626WAT      O44119   8.234   8.790   9.184
14626WAT     H144120   8.252   8.736   9.102
14626WAT     H244121   8.320   8.807   9.232
14627WAT      O44122   3.405   2.504   4.739
14627WAT     H144123   3.436   2.593   4.706
14627WAT     H244124   3.315   2.514   4.783
14628WAT      O44125   5.242   5.523   5.849
14628WAT     H144126   5.323   5.464   5.844
14628WAT     H244127   5.270   5.616   5.874
14629WAT      O44128   4.624   1.910   1.264
14629WAT     H144129   4.667   1.989   1.307
14629WAT     H244130   4.525   1.922   1.263
14630WAT      O44131   4.878   1.054   4.753
14630WAT     H144132   4.925   0.972   4.720
14630WAT     H244133   4.833   1.033   4.840
14631WAT      O44134   5.856   9.138   5.496
14631WAT     H144135   5.932   9.195   5.529
14631WAT     H244136   5.891   9.047   5.473
14632WAT      O44137   1.446   2.047   6.958
14632WAT     H144138   1.392   1.963   6.951
14632WAT     H244139   1.481   2.057   7.051
14633WAT      O44140   9.060   7.122   0.121
14633WAT     H144141   9.054   7.074   0.208
14633WAT     H244142   9.139   7.088   0.070
14634WAT      O44143   4.859   1.496   3.302
14634WAT     H144144   4.861   1.466   3.398
14634WAT     H244145   4.839   1.594   3.299
14635WAT      O44146   0.032   4.495   6.500
14635WAT     H144147   0.023   4.553   6.419
14635WAT     H244148   0.077   4.410   6.475
14636WAT      O44149   0.611   8.351   5.955
14636WAT     H144150   0.513   8.351   5.932
14636WAT     H244151   0.630   8.278   6.020
14637WAT      O44152   2.141   7.496   7.446
14637WAT     H144153   2.193   7.572   7.484
14637WAT     H244154   2.175   7.410   7.484
14638WAT      O44155   2.045   3.600   2.500
14638WAT     H144156   1.947   3.606   2.481
14638WAT     H244157   2.071   3.504   2.509
14639WAT      O44158   1.941   2.643   3.495
14639WAT     H144159   1.892   2.583   3.432
14639WAT     H244160   1.879   2.675   3.567
14640WAT      O44161   9.803   2.431   3.494
14640WAT     H144162   9.830   2.375   3.416
14640WAT     H244163   9.761   2.516   3.462
14641WAT      O44164   3.434   4.607   6.129
14641WAT     H144165   3.397   4.517   6.107
14641WAT     H244166   3.386   4.645   6.207
14642WAT      O44167   1.772   3.277   6.673
14642WAT     H144168   1.752   3.284   6.575
14642WAT     H244169   1.810   3.364   6.706
14643WAT      O44170   2.145   5.885   3.017
14643WAT     H144171   2.117   5.924   2.929
14643WAT     H244172   2.065   5.845   3.063
14644WAT      O44173   5.150   1.290   3.974
14644WAT     H144174   5.240   1.275   4.014
14644WAT     H244175   5.080   1.272   4.044
14645WAT      O44176   0.696   5.663   6.868
14645WAT     H144177   0.729   5.575   6.833
14645WAT     H244178   0.774   5.721   6.892
14646WAT      O44179   2.718   2.984   2.556
14646WAT     H144180   2.733   3.082   2.558
14646WAT     H244181   2.621   2.965   2.537
14647WAT      O44182   7.734   4.293   1.611
14647WAT     H144183   7.794   4.293   1.691
14647WAT     H244184   7.786   4.322   1.530
14648WAT      O44185   0.191   4.738   2.524
14648WAT     H144186   0.283   4.700   2.510
14648WAT     H244187   0.123   4.665   2.517
14649WAT      O44188   8.985   5.158   7.091
14649WAT     H144189   8.960   5.250   7.122
14649WAT     H244190   8.912   5.121   7.034
14650WAT      O44191   4.924   4.592   0.416
14650WAT     H144192   4.887   4.517   0.471
14650WAT     H244193   5.024   4.592   0.421
14651WAT      O44194   5.965   0.317   4.694
14651WAT     H144195   6.025   0.395   4.712
14651WAT     H244196   5.894   0.312   4.764
14652WAT      O44197   0.447   0.251   2.856
14652WAT     H144198   0.422   0.341   2.891
14652WAT     H244199   0.415   0.181   2.920
14653WAT      O44200   6.371   6.131   5.498
14653WAT     H144201   6.305   6.073   5.546
14653WAT     H244202   6.443   6.073   5.458
14654WAT      O44203   9.547   3.582   7.921
14654WAT     H144204   9.468   3.522   7.910
14654WAT     H244205   9.517   3.674   7.946
14655WAT      O44206   2.923   4.007   6.660
14655WAT     H144207   2.999   4.051   6.707
14655WAT     H244208   2.953   3.972   6.572
14656WAT      O44209   5.557   7.269   7.504
14656WAT     H144210   5.622   7.253   7.578
14656WAT     H244211   5.514   7.358   7.515
14657WAT      O44212   2.717   3.465   2.843
14657WAT     H144213   2.644   3.533   2.843
14657WAT     H244214   2.791   3.495   2.903
14658WAT      O44215   0.638   9.754   8.138
14658WAT     H144216   0.729   9.712   8.131
14658WAT     H244217   0.579   9.717   8.066
14659WAT      O44218   2.700   7.806   9.455
14659WAT     H144219   2.728   7.805   9.551
14659WAT     H244220   2.715   7.897   9.417
14660WAT      O44221   4.801   0.391   5.369
14660WAT     H144222   4.731   0.319   5.374
14660WAT     H244223   4.875   0.360   5.309
14661WAT      O44224   7.413   5.843   7.863
14661WAT     H144225   7.510   5.864   7.872
14661WAT     H244226   7.366   5.919   7.817
14662WAT      O44227   5.739   2.548   1.822
14662WAT     H144228   5.837   2.540   1.837
14662WAT     H244229   5.705   2.631   1.865
14663WAT      O44230   6.897   3.498   4.736
14663WAT     H144231   6.849   3.535   4.657
14663WAT     H244232   6.950   3.571   4.780
14664WAT      O44233   7.489   3.814   3.145
14664WAT     H144234   7.396   3.794   3.114
14664WAT     H244235   7.553   3.795   3.071
14665WAT      O44236   7.552   8.373   1.840
14665WAT     H144237   7.562   8.377   1.939
14665WAT     H244238   7.641   8.356   1.798
14666WAT      O44239   7.350   7.155   7.717
14666WAT     H144240   7.374   7.173   7.812
14666WAT     H244241   7.334   7.057   7.705
14667WAT      O44242   7.083   9.036   8.151
14667WAT     H144243   7.056   9.132   8.154
14667WAT     H244244   7.098   9.009   8.056
14668WAT      O44245   4.296   3.126   3.313
14668WAT     H144246   4.323   3.051   3.373
14668WAT     H244247   4.341   3.115   3.224
14669WAT      O44248   1.808   6.590   9.859
14669WAT     H144249   1.797   6.567   9.763
14669WAT     H244250   1.727   6.562   9.910
14670WAT      O44251   9.070   1.195   3.757
14670WAT     H144252   9.142   1.167   3.820
14670WAT     H244253   9.089   1.157   3.667
14671WAT      O44254   7.684   2.763   0.140
14671WAT     H144255   7.644   2.844   0.097
14671WAT     H244256   7.692   2.689   0.073
14672WAT      O44257   9.033   6.797   1.102
14672WAT     H144258   9.053   6.817   1.006
14672WAT     H244259   8.949   6.744   1.108
14673WAT      O44260   5.592   9.693   5.896
14673WAT     H144261   5.548   9.753   5.963
14673WAT     H244262   5.539   9.609   5.886
14674WAT      O44263   9.339   3.636   9.603
14674WAT     H144264   9.265   3.571   9.622
14674WAT     H244265   9.319   3.722   9.649
14675WAT      O44266   4.728   0.496   7.752
14675WAT     H144267   4.818   0.487   7.708
14675WAT     H244268   4.706   0.413   7.803
14676WAT      O44269   8.875   0.260   2.978
14676WAT     H144270   8.933   0.198   2.926
14676WAT     H244271   8.916   0.351   2.978
14677WAT      O44272   0.653   6.888   9.698
14677WAT     H144273   0.696   6.978   9.691
14677WAT     H244274   0.724   6.818   9.700
14678WAT      O44275   8.697   0.574   2.984
14678WAT     H144276   8.654   0.638   2.920
14678WAT     H244277   8.796   0.573   2.969
14679WAT      O44278   5.638   1.912   4.954
14679WAT     H144279   5.710   1.940   5.017
14679WAT     H244280   5.552   1.954   4.982
14680WAT      O44281   9.045   4.410   7.600
14680WAT     H144282   9.088   4.408   7.510
14680WAT     H244283   8.952   4.372   7.594
14681WAT      O44284   8.106   6.142   2.940
14681WAT     H144285   8.085   6.226   2.890
14681WAT     H244286   8.033   6.075   2.926
14682WAT      O44287   4.934   5.272   5.606
14682WAT     H144288   4.955   5.300   5.513
14682WAT     H244289   4.892   5.348   5.656
14683WAT      O44290   9.651   6.727   6.610
14683WAT     H144291   9.639   6.728   6.511
14683WAT     H244292   9.570   6.767   6.653
14684WAT      O44293   6.990   5.498   9.506
14684WAT     H144294   7.048   5.451   9.440
14684WAT     H244295   7.018   5.593   9.515
14685WAT      O44296   6.356   1.633   6.863
14685WAT     H144297   6.399   1.720   6.889
14685WAT     H244298   6.320   1.588   6.944
14686WAT      O44299   1.703   8.751   3.995
14686WAT     H144300   1.683   8.825   3.931
14686WAT     H244301   1.703   8.663   3.946
14687WAT      O44302   4.558   3.819   8.816
14687WAT     H144303   4.507   3.883   8.758
14687WAT     H244304   4.508   3.806   8.902
14688WAT      O44305   8.695   8.277   2.224
14688WAT     H144306   8.686   8.321   2.313
14688WAT     H244307   8.776   8.219   2.224
14689WAT      O44308   2.480   2.063   2.551
14689WAT     H144309   2.434   2.012   2.624
14689WAT     H244310   2.577   2.040   2.551
14690WAT      O44311   0.684   0.717   1.049
14690WAT     H144312   0.731   0.632   1.073
14690WAT     H244313   0.687   0.779   1.127
14691WAT      O44314   8.927   7.622   2.277
14691WAT     H144315   8.876   7.559   2.218
14691WAT     H244316   8.989   7.678   2.221
14692WAT      O44317   6.447   0.960   5.078
14692WAT     H144318   6.522   0.950   5.144
14692WAT     H244319   6.403   1.048   5.091
14693WAT      O44320   2.640   0.388   1.859
14693WAT     H144321   2.736   0.371   1.881
14693WAT     H244322   2.634   0.464   1.793
14694WAT      O44323   5.845   0.474   7.893
14694WAT     H144324   5.920   0.495   7.830
14694WAT     H244325   5.862   0.518   7.981
14695WAT      O44326   7.060   3.757   3.549
14695WAT     H144327   7.116   3.831   3.512
14695WAT     H244328   7.119   3.689   3.592
14696WAT      O44329   2.326   5.813   1.773
14696WAT     H144330   2.286   5.808   1.682
14696WAT     H244331   2.260   5.853   1.836
14697WAT      O44332   0.080   3.944   2.500
14697WAT     H144333   0.170   3.903   2.487
14697WAT     H244334   0.040   3.964   2.411
14698WAT      O44335   3.182   7.181   0.868
14698WAT     H144336   3.130   7.267   0.859
14698WAT     H244337   3.123   7.104   0.843
14699WAT      O44338   1.623   3.788   1.715
14699WAT     H144339   1.718   3.814   1.728
14699WAT     H244340   1.586   3.834   1.634
14700WAT      O44341   0.002   0.167   2.461
14700WAT     H144342   0.015   0.223   2.380
14700WAT     H244343   0.049   0.208   2.539
14701WAT      O44344   8.140   2.103   6.973
14701WAT     H144345   8.230   2.097   6.929
14701WAT     H244346   8.104   2.195   6.961
14702WAT      O44347   8.190   1.661   9.812
14702WAT     H144348   8.154   1.752   9.832
14702WAT     H244349   8.237   1.663   9.723
14703WAT      O44350   5.006   9.246   2.848
14703WAT     H144351   5.063   9.323   2.821
14703WAT     H244352   4.971   9.261   2.940
14704WAT      O44353   2.882   2.545   4.925
14704WAT     H144354   2.880   2.615   4.854
14704WAT     H244355   2.793   2.542   4.971
14705WAT      O44356   2.392   7.280   6.015
14705WAT     H144357   2.424   7.319   5.929
14705WAT     H244358   2.361   7.186   6.000
14706WAT      O44359   7.947   6.885   7.128
14706WAT     H144360   8.004   6.960   7.093
14706WAT     H244361   7.894   6.918   7.206
14707WAT      O44362   7.855   6.393   4.795
14707WAT     H144363   7.838   6.296   4.775
14707WAT     H244364   7.802   6.420   4.875
14708WAT      O44365   4.911   8.103   3.855
14708WAT     H144366   4.827   8.096   3.907
14708WAT     H244367   4.984   8.139   3.913
14709WAT      O44368   2.630   7.074   6.759
14709WAT     H144369   2.615   7.136   6.682
14709WAT     H244370   2.553   7.082   6.823
14710WAT      O44371   2.837   9.102   6.557
14710WAT     H144372   2.819   9.196   6.588
14710WAT     H244373   2.782   9.083   6.476
14711WAT      O44374   8.957   7.879   7.018
14711WAT     H144375   8.882   7.846   7.075
14711WAT     H244376   8.966   7.978   7.030
14712WAT      O44377   1.999   7.302   0.988
14712WAT     H144378   1.901   7.297   1.007
14712WAT     H244379   2.024   7.234   0.919
14713WAT      O44380   2.564   2.151   5.692
14713WAT     H144381   2.542   2.209   5.771
14713WAT     H244382   2.663   2.146   5.681
14714WAT      O44383   7.023   9.434   0.456
14714WAT     H144384   7.087   9.376   0.505
14714WAT     H244385   7.044   9.530   0.476
14715WAT      O44386   2.610   7.604   5.005
14715WAT     H144387   2.636   7.696   4.974
14715WAT     H244388   2.690   7.559   5.045
14716WAT      O44389   5.720   7.555   6.280
14716WAT     H144390   5.683   7.635   6.234
14716WAT     H244391   5.807   7.530   6.236
14717WAT      O44392   1.368   9.642   7.963
14717WAT     H144393   1.358   9.727   8.016
14717WAT     H244394   1.312   9.571   8.005
14718WAT      O44395   1.660   2.455   7.309
14718WAT     H144396   1.755   2.470   7.335
14718WAT     H244397   1.636   2.359   7.322
14719WAT      O44398   2.410   2.807   6.116
14719WAT     H144399   2.489   2.866   6.101
14719WAT     H244400   2.341   2.825   6.046
14720WAT      O44401   2.761   0.582   5.846
14720WAT     H144402   2.829   0.545   5.782
14720WAT     H244403   2.807   0.617   5.927
14721WAT      O44404   8.315   1.521   1.041
14721WAT     H144405   8.367   1.501   1.124
14721WAT     H244406   8.255   1.443   1.020
14722WAT      O44407   5.963   5.126   3.784
14722WAT     H144408   6.022   5.189   3.734
14722WAT     H244409   5.869   5.160   3.783
14723WAT      O44410   2.080   1.850   0.750
14723WAT     H144411   2.063   1.761   0.707
14723WAT     H244412   2.040   1.852   0.841
14724WAT      O44413   1.639   8.596   7.920
14724WAT     H144414   1.568   8.633   7.981
14724WAT     H244415   1.707   8.548   7.974
14725WAT      O44416   2.077   0.729   4.690
14725WAT     H144417   1.986   0.692   4.706
14725WAT     H244418   2.093   0.806   4.752
14726WAT      O44419   6.847   4.754   4.807
14726WAT     H144420   6.759   4.750   4.854
14726WAT     H244421   6.832   4.773   4.710
14727WAT      O44422   2.099   0.138   5.175
14727WAT     H144423   2.177   0.196   5.151
14727WAT     H244424   2.119   0.089   5.260
14728WAT      O44425   4.302   8.171   4.823
14728WAT     H144426   4.215   8.219   4.816
14728WAT     H244427   4.313   8.136   4.917
14729WAT      O44428   3.762   7.889   6.932
14729WAT     H144429   3.822   7.856   6.859
14729WAT     H244430   3.669   7.856   6.915
14730WAT      O44431   5.451   5.574   0.888
14730WAT     H144432   5.531   5.518   0.865
14730WAT     H244433   5.368   5.522   0.868
14731WAT      O44434   8.585   6.116   7.664
14731WAT     H144435   8.607   6.051   7.591
14731WAT     H244436   8.513   6.178   7.634
14732WAT      O44437   5.267   8.471   2.642
14732WAT     H144438   5.328   8.532   2.591
14732WAT     H244439   5.172   8.490   2.616
14733WAT      O44440   0.001   1.677   0.216
14733WAT     H144441  -0.015   1.673   0.118
14733WAT     H244442   0.092   1.641   0.237
14734WAT      O44443   3.953   5.121   8.832
14734WAT     H144444   3.941   5.201   8.773
14734WAT     H244445   4.044   5.082   8.817
14735WAT      O44446   4.135   1.844   4.948
14735WAT     H144447   4.183   1.875   5.030
14735WAT     H244448   4.080   1.918   4.911
14736WAT      O44449   7.710   0.033   5.173
14736WAT     H144450   7.714  -0.035   5.100
14736WAT     H244451   7.619   0.074   5.175
14737WAT      O44452   7.963   2.521   8.104
14737WAT     H144453   7.910   2.445   8.066
14737WAT     H244454   7.901   2.583   8.153
14738WAT      O44455   8.322   7.924   0.814
14738WAT     H144456   8.356   7.893   0.725
14738WAT     H244457   8.373   7.879   0.887
14739WAT      O44458   8.665   3.407   4.287
14739WAT     H144459   8.734   3.366   4.227
14739WAT     H244460   8.693   3.500   4.310
14740WAT      O44461   2.099   1.995   9.694
14740WAT     H144462   2.044   2.070   9.730
14740WAT     H244463   2.137   2.021   9.606
14741WAT      O44464   9.520   9.130   4.142
14741WAT     H144465   9.459   9.103   4.068
14741WAT     H244466   9.575   9.051   4.170
14742WAT      O44467   5.332   3.566   5.141
14742WAT     H144468   5.348   3.576   5.239
14742WAT     H244469   5.241   3.600   5.118
14743WAT      O44470   0.812   5.584   2.822
14743WAT     H144471   0.728   5.532   2.802
14743WAT     H244472   0.866   5.594   2.739
14744WAT      O44473   3.321   1.077   6.719
14744WAT     H144474   3.379   1.158   6.710
14744WAT     H244475   3.321   1.026   6.633
14745WAT      O44476   4.877   4.769   3.929
14745WAT     H144477   4.946   4.754   4.000
14745WAT     H244478   4.786   4.758   3.969
14746WAT      O44479   2.645   5.959   4.273
14746WAT     H144480   2.572   6.019   4.306
14746WAT     H244481   2.719   6.014   4.233
14747WAT      O44482   3.846   6.690   9.248
14747WAT     H144483   3.787   6.620   9.207
14747WAT     H244484   3.939   6.655   9.255
14748WAT      O44485   0.223   5.463   0.361
14748WAT     H144486   0.287   5.442   0.287
14748WAT     H244487   0.193   5.558   0.354
14749WAT      O44488   0.783   7.239   2.369
14749WAT     H144489   0.779   7.146   2.404
14749WAT     H244490   0.874   7.258   2.332
14750WAT      O44491   3.895   7.267   6.241
14750WAT     H144492   3.942   7.340   6.191
14750WAT     H244493   3.902   7.284   6.339
14751WAT      O44494   6.811   5.884   9.209
14751WAT     H144495   6.754   5.933   9.144
14751WAT     H244496   6.759   5.866   9.293
14752WAT      O44497   6.428   1.509   9.334
14752WAT     H144498   6.469   1.511   9.243
14752WAT     H244499   6.464   1.585   9.388
14753WAT      O44500   1.489   1.660   9.872
14753WAT     H144501   1.452   1.620   9.789
14753WAT     H244502   1.441   1.745   9.893
14754WAT      O44503   4.173   3.821   6.912
14754WAT     H144504   4.091   3.848   6.861
14754WAT     H244505   4.197   3.893   6.976
14755WAT      O44506   7.265   6.167   9.126
14755WAT     H144507   7.327   6.092   9.103
14755WAT     H244508   7.269   6.185   9.224
14756WAT      O44509   7.357   1.475   3.121
14756WAT     H144510   7.345   1.443   3.027
14756WAT     H244511   7.393   1.569   3.120
14757WAT      O44512   0.706   0.606   6.643
14757WAT     H144513   0.701   0.554   6.729
14757WAT     H244514   0.792   0.656   6.639
14758WAT      O44515   4.998   7.250   0.569
14758WAT     H144516   5.063   7.179   0.542
14758WAT     H244517   5.004   7.327   0.506
14759WAT      O44518   5.252   0.957   8.531
14759WAT     H144519   5.175   0.964   8.594
14759WAT     H244520   5.301   1.044   8.527
14760WAT      O44521   6.306   0.494   9.324
14760WAT     H144522   6.343   0.575   9.279
14760WAT     H244523   6.348   0.412   9.285
14761WAT      O44524   9.563   9.779   7.841
14761WAT     H144525   9.615   9.849   7.889
14761WAT     H244526   9.478   9.818   7.806
14762WAT      O44527   0.196   7.799   4.735
14762WAT     H144528   0.098   7.814   4.746
14762WAT     H244529   0.246   7.863   4.793
14763WAT      O44530   9.607   6.082   3.358
14763WAT     H144531   9.639   5.991   3.330
14763WAT     H244532   9.686   6.141   3.376
14764WAT      O44533   4.490   3.073   6.355
14764WAT     H144534   4.587   3.062   6.377
14764WAT     H244535   4.454   3.152   6.404
14765WAT      O44536   2.226   9.759   6.357
14765WAT     H144537   2.267   9.839   6.314
14765WAT     H244538   2.194   9.696   6.286
14766WAT      O44539   9.775   6.681   9.749
14766WAT     H144540   9.726   6.630   9.819
14766WAT     H244541   9.710   6.725   9.687
14767WAT      O44542   3.068   6.624   6.291
14767WAT     H144543   2.976   6.648   6.258
14767WAT     H244544   3.061   6.544   6.351
14768WAT      O44545   5.031   6.287   3.163
14768WAT     H144546   5.098   6.227   3.120
14768WAT     H244547   5.058   6.305   3.257
14769WAT      O44548   6.457   0.541   2.042
14769WAT     H144549   6.416   0.623   2.082
14769WAT     H244550   6.478   0.558   1.945
14770WAT      O44551   1.074   1.489   6.914
14770WAT     H144552   1.145   1.435   6.868
14770WAT     H244553   0.984   1.454   6.887
14771WAT      O44554   1.555   0.109   0.570
14771WAT     H144555   1.457   0.103   0.587
14771WAT     H244556   1.601   0.028   0.608
14772WAT      O44557   0.462   2.131   2.465
14772WAT     H144558   0.431   2.216   2.508
14772WAT     H244559   0.528   2.086   2.525
14773WAT      O44560   9.300   1.239   5.103
14773WAT     H144561   9.290   1.224   5.202
14773WAT     H244562   9.351   1.324   5.087
14774WAT      O44563   3.469   3.322   8.109
14774WAT     H144564   3.537   3.261   8.151
14774WAT     H244565   3.516   3.398   8.063
14775WAT      O44566   1.359   0.617   7.219
14775WAT     H144567   1.437   0.680   7.215
14775WAT     H244568   1.378   0.537   7.161
14776WAT      O44569   0.912   5.047   6.119
14776WAT     H144570   0.903   4.966   6.178
14776WAT     H244571   0.999   5.092   6.138
14777WAT      O44572   0.981   8.396   7.792
14777WAT     H144573   0.972   8.369   7.888
14777WAT     H244574   0.890   8.403   7.751
14778WAT      O44575   5.218   5.208   9.373
14778WAT     H144576   5.156   5.279   9.339
14778WAT     H244577   5.299   5.203   9.315
14779WAT      O44578   3.008   1.635   3.659
14779WAT     H144579   3.048   1.550   3.693
14779WAT     H244580   2.927   1.658   3.713
14780WAT      O44581   1.729   3.681   8.603
14780WAT     H144582   1.653   3.745   8.606
14780WAT     H244583   1.695   3.589   8.586
14781WAT      O44584   6.215   9.590   6.818
14781WAT     H144585   6.141   9.626   6.760
14781WAT     H244586   6.176   9.553   6.902
14782WAT      O44587   5.932   7.668   3.955
14782WAT     H144588   5.964   7.750   3.908
14782WAT     H244589   5.917   7.595   3.889
14783WAT      O44590   0.020   7.175   7.305
14783WAT     H144591  -0.014   7.147   7.395
14783WAT     H244592   0.034   7.273   7.304
14784WAT      O44593   7.092   4.319   5.588
14784WAT     H144594   7.172   4.371   5.616
14784WAT     H244595   7.059   4.264   5.666
14785WAT      O44596   8.595   5.470   7.204
14785WAT     H144597   8.652   5.504   7.279
14785WAT     H244598   8.552   5.547   7.157
14786WAT      O44599   0.039   3.835   7.811
14786WAT     H144600   0.124   3.801   7.852
14786WAT     H244601   0.059   3.916   7.756
14787WAT      O44602   8.073   2.421   7.321
14787WAT     H144603   7.987   2.472   7.312
14787WAT     H244604   8.053   2.324   7.333
14788WAT      O44605   4.423   0.074   5.555
14788WAT     H144606   4.491   0.147   5.564
14788WAT     H244607   4.385   0.053   5.645
14789WAT      O44608   4.667   5.298   2.104
14789WAT     H144609   4.625   5.302   2.194
14789WAT     H244610   4.759   5.337   2.109
14790WAT      O44611   8.424   5.053   1.476
14790WAT     H144612   8.329   5.021   1.475
14790WAT     H244613   8.434   5.130   1.413
14791WAT      O44614   4.413   4.139   3.909
14791WAT     H144615   4.446   4.214   3.966
14791WAT     H244616   4.415   4.166   3.813
14792WAT      O44617   2.627   8.934   4.694
14792WAT     H144618   2.651   8.893   4.606
14792WAT     H244619   2.646   8.869   4.768
14793WAT      O44620   9.310   2.449   5.274
14793WAT     H144621   9.406   2.428   5.293
14793WAT     H244622   9.260   2.364   5.257
14794WAT      O44623   7.801   2.766   3.064
14794WAT     H144624   7.746   2.800   3.140
14794WAT     H244625   7.881   2.717   3.100
14795WAT      O44626   5.061   6.631   6.610
14795WAT     H144627   4.999   6.553   6.599
14795WAT     H244628   5.149   6.609   6.569
14796WAT      O44629   9.754   7.712   5.124
14796WAT     H144630   9.727   7.621   5.092
14796WAT     H244631   9.840   7.704   5.176
14797WAT      O44632   8.387   6.345   2.765
14797WAT     H144633   8.325   6.371   2.839
14797WAT     H244634   8.333   6.319   2.685
14798WAT      O44635   7.447   6.888   8.267
14798WAT     H144636   7.434   6.941   8.184
14798WAT     H244637   7.513   6.815   8.250
14799WAT      O44638   3.687   7.757   2.888
14799WAT     H144639   3.733   7.844   2.874
14799WAT     H244640   3.588   7.769   2.873
14800WAT      O44641   4.292   3.911   1.081
14800WAT     H144642   4.195   3.927   1.062
14800WAT     H244643   4.340   3.892   0.996
14801WAT      O44644   8.100   8.725   7.733
14801WAT     H144645   8.121   8.638   7.778
14801WAT     H244646   8.029   8.773   7.785
14802WAT      O44647   3.260   3.652   8.225
14802WAT     H144648   3.182   3.677   8.283
14802WAT     H244649   3.238   3.569   8.174
14803WAT      O44650   3.668   9.323   2.508
14803WAT     H144651   3.744   9.280   2.557
14803WAT     H244652   3.694   9.416   2.482
14804WAT      O44653   3.158   4.032   8.024
14804WAT     H144654   3.163   4.066   7.930
14804WAT     H244655   3.248   3.998   8.051
14805WAT      O44656   1.483   7.847   7.881
14805WAT     H144657   1.455   7.834   7.786
14805WAT     H244658   1.512   7.942   7.893
14806WAT      O44659   5.001   0.928   0.760
14806WAT     H144660   4.947   0.981   0.825
14806WAT     H244661   5.040   0.990   0.691
14807WAT      O44662   9.842   7.562   1.842
14807WAT     H144663   9.794   7.499   1.781
14807WAT     H244664   9.794   7.567   1.930
14808WAT      O44665   3.233   7.033   5.281
14808WAT     H144666   3.220   6.936   5.261
14808WAT     H244667   3.326   7.049   5.313
14809WAT      O44668   0.583   9.454   8.762
14809WAT     H144669   0.501   9.492   8.803
14809WAT     H244670   0.664   9.486   8.812
14810WAT      O44671   1.823   0.189   5.383
14810WAT     H144672   1.725   0.182   5.363
14810WAT     H244673   1.861   0.098   5.399
14811WAT      O44674   5.566   9.481   4.946
14811WAT     H144675   5.602   9.445   5.032
14811WAT     H244676   5.476   9.442   4.928
14812WAT      O44677   3.005   4.435   6.679
14812WAT     H144678   2.991   4.413   6.583
14812WAT     H244679   2.958   4.520   6.702
14813WAT      O44680   0.412   3.886   6.975
14813WAT     H144681   0.365   3.852   6.893
14813WAT     H244682   0.397   3.984   6.983
14814WAT      O44683   8.457   3.623   1.696
14814WAT     H144684   8.371   3.653   1.653
14814WAT     H244685   8.516   3.582   1.627
14815WAT      O44686   7.612   5.516   6.537
14815WAT     H144687   7.605   5.587   6.607
14815WAT     H244688   7.606   5.426   6.580
14816WAT      O44689   1.983   5.750   2.092
14816WAT     H144690   1.906   5.808   2.066
14816WAT     H244691   1.982   5.667   2.036
14817WAT      O44692   0.743   9.036   0.504
14817WAT     H144693   0.704   9.037   0.412
14817WAT     H244694   0.819   8.972   0.508
14818WAT      O44695   3.269   1.699   5.018
14818WAT     H144696   3.276   1.721   5.115
14818WAT     H244697   3.317   1.613   5.001
14819WAT      O44698   0.115   6.388   2.172
14819WAT     H144699   0.137   6.299   2.211
14819WAT     H244700   0.062   6.442   2.237
14820WAT      O44701   1.119   6.513   6.334
14820WAT     H144702   1.124   6.414   6.342
14820WAT     H244703   1.179   6.556   6.402
14821WAT      O44704   7.063   7.258   5.681
14821WAT     H144705   7.056   7.163   5.711
14821WAT     H244706   7.081   7.317   5.760
14822WAT      O44707   4.126   7.866   1.731
14822WAT     H144708   4.039   7.907   1.701
14822WAT     H244709   4.107   7.790   1.792
14823WAT      O44710   8.828   6.359   9.406
14823WAT     H144711   8.859   6.444   9.448
14823WAT     H244712   8.865   6.281   9.456
14824WAT      O44713   3.061   4.049   0.213
14824WAT     H144714   3.040   4.127   0.271
14824WAT     H244715   3.083   3.970   0.270
14825WAT      O44716   4.080   3.174   7.797
14825WAT     H144717   4.035   3.178   7.708
14825WAT     H244718   4.012   3.185   7.870
14826WAT      O44719   9.726   5.661   4.443
14826WAT     H144720   9.712   5.750   4.398
14826WAT     H244721   9.820   5.630   4.426
14827WAT      O44722   4.398   1.570   5.700
14827WAT     H144723   4.386   1.498   5.768
14827WAT     H244724   4.443   1.532   5.619
14828WAT      O44725   8.216   4.338   0.258
14828WAT     H144726   8.264   4.343   0.170
14828WAT     H244727   8.117   4.347   0.243
14829WAT      O44728   4.934   5.222   9.845
14829WAT     H144729   4.940   5.269   9.757
14829WAT     H244730   4.978   5.276   9.916
14830WAT      O44731   4.336   8.103   6.761
14830WAT     H144732   4.424   8.151   6.755
14830WAT     H244733   4.342   8.031   6.830
14831WAT      O44734   3.555   0.928   6.893
14831WAT     H144735   3.494   0.995   6.935
14831WAT     H244736   3.565   0.850   6.955
14832WAT      O44737   9.158   7.503   1.313
14832WAT     H144738   9.221   7.425   1.316
14832WAT     H244739   9.188   7.567   1.242
14833WAT      O44740   8.417   2.955   5.667
14833WAT     H144741   8.384   2.892   5.738
14833WAT     H244742   8.385   3.047   5.687
14834WAT      O44743   8.827   1.514   5.480
14834WAT     H144744   8.909   1.479   5.526
14834WAT     H244745   8.816   1.466   5.392
14835WAT      O44746   1.697   4.292   2.563
14835WAT     H144747   1.620   4.233   2.586
14835WAT     H244748   1.666   4.387   2.561
14836WAT      O44749   4.582   2.764   3.537
14836WAT     H144750   4.487   2.736   3.543
14836WAT     H244751   4.605   2.787   3.442
14837WAT      O44752   7.677   8.162   0.574
14837WAT     H144753   7.739   8.228   0.532
14837WAT     H244754   7.589   8.207   0.592
14838WAT      O44755   0.167   0.484   0.706
14838WAT     H144756   0.186   0.542   0.785
14838WAT     H244757   0.196   0.390   0.725
14839WAT      O44758   3.339   4.880   2.076
14839WAT     H144759   3.346   4.787   2.039
14839WAT     H244760   3.327   4.876   2.175
14840WAT      O44761   1.901   5.790   0.521
14840WAT     H144762   1.815   5.785   0.470
14840WAT     H244763   1.978   5.773   0.459
14841WAT      O44764   9.129   7.704   9.505
14841WAT     H144765   9.187   7.629   9.472
14841WAT     H244766   9.186   7.781   9.534
14842WAT      O44767   7.319   8.761   1.690
14842WAT     H144768   7.287   8.783   1.598
14842WAT     H244769   7.395   8.696   1.685
14843WAT      O44770   2.778   9.137   5.536
14843WAT     H144771   2.738   9.049   5.509
14843WAT     H244772   2.746   9.160   5.628
14844WAT      O44773   5.829   3.771   0.206
14844WAT     H144774   5.871   3.693   0.161
14844WAT     H244775   5.781   3.741   0.289
14845WAT      O44776   6.858   0.665   1.534
14845WAT     H144777   6.941   0.719   1.551
14845WAT     H244778   6.778   0.724   1.539
14846WAT      O44779   7.360   2.414   2.431
14846WAT     H144780   7.297   2.355   2.380
14846WAT     H244781   7.319   2.504   2.443
14847WAT      O44782   3.478   3.520   7.449
14847WAT     H144783   3.428   3.511   7.363
14847WAT     H244784   3.431   3.469   7.521
14848WAT      O44785   9.401   5.567   8.026
14848WAT     H144786   9.368   5.599   8.115
14848WAT     H244787   9.471   5.630   7.992
14849WAT      O44788   9.770   1.772   2.468
14849WAT     H144789   9.729   1.787   2.378
14849WAT     H244790   9.723   1.696   2.513
14850WAT      O44791   5.795   7.761   8.718
14850WAT     H144792   5.791   7.858   8.697
14850WAT     H244793   5.776   7.746   8.815
14851WAT      O44794   3.945   7.942   0.376
14851WAT     H144795   3.855   7.942   0.333
14851WAT     H244796   3.945   7.878   0.454
14852WAT      O44797   5.852   8.100   5.596
14852WAT     H144798   5.753   8.087   5.607
14852WAT     H244799   5.895   8.010   5.585
14853WAT      O44800   8.056   4.792   1.728
14853WAT     H144801   7.970   4.837   1.705
14853WAT     H244802   8.042   4.693   1.731
14854WAT      O44803   9.411   2.046   1.005
14854WAT     H144804   9.470   2.048   0.924
14854WAT     H244805   9.339   1.978   0.993
14855WAT      O44806   9.494   8.888   4.604
14855WAT     H144807   9.567   8.897   4.537
14855WAT     H244808   9.417   8.947   4.580
14856WAT      O44809   5.639   5.990   0.287
14856WAT     H144810   5.646   6.057   0.361
14856WAT     H244811   5.691   5.908   0.313
14857WAT      O44812   7.276   7.880   1.841
14857WAT     H144813   7.268   7.964   1.895
14857WAT     H244814   7.318   7.901   1.752
14858WAT      O44815   6.287   6.645   7.890
14858WAT     H144816   6.221   6.713   7.857
14858WAT     H244817   6.263   6.619   7.984
14859WAT      O44818   6.057   2.187   6.414
14859WAT     H144819   6.112   2.224   6.339
14859WAT     H244820   5.960   2.192   6.389
14860WAT      O44821   7.755   4.405   7.289
14860WAT     H144822   7.697   4.432   7.366
14860WAT     H244823   7.843   4.371   7.324
14861WAT      O44824   2.247   9.335   6.514
14861WAT     H144825   2.227   9.354   6.610
14861WAT     H244826   2.231   9.238   6.494
14862WAT      O44827   6.401   0.860   8.273
14862WAT     H144828   6.327   0.916   8.309
14862WAT     H244829   6.426   0.791   8.340
14863WAT      O44830   2.737   2.001   1.481
14863WAT     H144831   2.816   2.057   1.505
14863WAT     H244832   2.727   1.998   1.381
14864WAT      O44833   6.705   4.936   7.912
14864WAT     H144834   6.791   4.903   7.876
14864WAT     H244835   6.660   4.864   7.965
14865WAT      O44836   1.601   5.194   4.981
14865WAT     H144837   1.661   5.242   5.045
14865WAT     H244838   1.509   5.189   5.018
14866WAT      O44839   1.173   2.579   7.629
14866WAT     H144840   1.183   2.575   7.728
14866WAT     H244841   1.198   2.490   7.589
14867WAT      O44842   8.530   6.740   3.971
14867WAT     H144843   8.497   6.646   3.978
14867WAT     H244844   8.539   6.779   4.063
14868WAT      O44845   8.729   9.262   0.945
14868WAT     H144846   8.694   9.172   0.919
14868WAT     H244847   8.701   9.283   1.038
14869WAT      O44848   7.840   9.136   7.935
14869WAT     H144849   7.758   9.188   7.912
14869WAT     H244850   7.915   9.199   7.954
14870WAT      O44851   0.055   3.900   9.193
14870WAT     H144852  -0.035   3.857   9.202
14870WAT     H244853   0.116   3.838   9.144
14871WAT      O44854   0.367   0.427   4.852
14871WAT     H144855   0.451   0.482   4.848
14871WAT     H244856   0.288   0.487   4.855
14872WAT      O44857   9.086   7.613   4.124
14872WAT     H144858   8.994   7.638   4.153
14872WAT     H244859   9.128   7.691   4.077
14873WAT      O44860   6.484   2.095   9.755
14873WAT     H144861   6.434   2.118   9.671
14873WAT     H244862   6.512   1.999   9.752
14874WAT      O44863   8.300   1.279   7.532
14874WAT     H144864   8.298   1.287   7.632
14874WAT     H244865   8.211   1.247   7.499
14875WAT      O44866   3.278   3.929   6.614
14875WAT     H144867   3.327   4.006   6.657
14875WAT     H244868   3.241   3.958   6.526
14876WAT      O44869   2.005   9.069   6.338
14876WAT     H144870   2.025   9.163   6.363
14876WAT     H244871   1.964   9.067   6.247
14877WAT      O44872   5.335   1.021   6.578
14877WAT     H144873   5.349   1.098   6.516
14877WAT     H244874   5.346   1.051   6.673
14878WAT      O44875   8.285   2.328   7.140
14878WAT     H144876   8.251   2.280   7.060
14878WAT     H244877   8.207   2.356   7.198
14879WAT      O44878   9.573   3.678   8.936
14879WAT     H144879   9.591   3.581   8.918
14879WAT     H244880   9.580   3.730   8.850
14880WAT      O44881   5.034   6.762   2.850
14880WAT     H144882   5.077   6.781   2.761
14880WAT     H244883   4.986   6.675   2.846
14881WAT      O44884   4.463   7.735   3.485
14881WAT     H144885   4.552   7.694   3.465
14881WAT     H244886   4.465   7.832   3.462
14882WAT      O44887   3.825   0.417   4.915
14882WAT     H144888   3.744   0.366   4.884
14882WAT     H244889   3.890   0.353   4.956
14883WAT      O44890   5.831   3.483   9.651
14883WAT     H144891   5.766   3.548   9.690
14883WAT     H244892   5.924   3.512   9.672
14884WAT      O44893   3.818   8.462   4.201
14884WAT     H144894   3.876   8.404   4.259
14884WAT     H244895   3.790   8.410   4.120
14885WAT      O44896   9.027   7.972   5.025
14885WAT     H144897   8.966   7.897   5.003
14885WAT     H244898   9.041   7.976   5.124
14886WAT      O44899   5.820   2.872   8.070
14886WAT     H144900   5.748   2.856   8.004
14886WAT     H244901   5.814   2.966   8.104
14887WAT      O44902   1.837   5.930   4.822
14887WAT     H144903   1.790   5.929   4.734
14887WAT     H244904   1.925   5.883   4.813
14888WAT      O44905   4.033   2.724   4.487
14888WAT     H144906   4.115   2.711   4.431
14888WAT     H244907   3.986   2.637   4.498
14889WAT      O44908   5.944   5.082   1.965
14889WAT     H144909   5.959   5.038   1.876
14889WAT     H244910   5.865   5.143   1.959
14890WAT      O44911   2.835   6.133   4.195
14890WAT     H144912   2.838   6.221   4.242
14890WAT     H244913   2.925   6.113   4.156
14891WAT      O44914   9.633   1.478   5.729
14891WAT     H144915   9.533   1.472   5.730
14891WAT     H244916   9.668   1.446   5.641
14892WAT      O44917   8.097   5.014   4.579
14892WAT     H144918   8.007   5.027   4.539
14892WAT     H244919   8.090   5.014   4.679
14893WAT      O44920   0.621   2.224   4.685
14893WAT     H144921   0.568   2.239   4.768
14893WAT     H244922   0.560   2.220   4.606
14894WAT      O44923   8.884   0.424   8.444
14894WAT     H144924   8.837   0.363   8.509
14894WAT     H244925   8.914   0.371   8.365
14895WAT      O44926   3.074   5.764   4.587
14895WAT     H144927   3.054   5.676   4.629
14895WAT     H244928   3.103   5.751   4.492
14896WAT      O44929   8.152   4.980   1.485
14896WAT     H144930   8.059   4.984   1.450
14896WAT     H244931   8.177   4.884   1.504
14897WAT      O44932   1.648   9.800   7.318
14897WAT     H144933   1.646   9.881   7.377
14897WAT     H244934   1.594   9.727   7.360
14898WAT      O44935   7.576   1.317   0.639
14898WAT     H144936   7.532   1.310   0.549
14898WAT     H244937   7.665   1.272   0.636
14899WAT      O44938   9.582   4.027   7.795
14899WAT     H144939   9.645   4.061   7.865
14899WAT     H244940   9.626   3.953   7.745
14900WAT      O44941   8.778   4.911   7.303
14900WAT     H144942   8.719   4.843   7.260
14900WAT     H244943   8.872   4.900   7.269
14901WAT      O44944   8.866   2.081   6.307
14901WAT     H144945   8.798   2.078   6.380
14901WAT     H244946   8.956   2.098   6.347
14902WAT      O44947   3.073   8.976   5.219
14902WAT     H144948   3.067   9.029   5.303
14902WAT     H244949   3.120   9.029   5.149
14903WAT      O44950   2.633   7.247   8.673
14903WAT     H144951   2.593   7.337   8.658
14903WAT     H244952   2.562   7.177   8.663
14904WAT      O44953   3.165   6.306   9.259
14904WAT     H144954   3.130   6.391   9.221
14904WAT     H244955   3.259   6.292   9.229
14905WAT      O44956   3.275   5.425   2.489
14905WAT     H144957   3.374   5.440   2.478
14905WAT     H244958   3.226   5.510   2.468
14906WAT      O44959   1.031   3.418   7.455
14906WAT     H144960   1.094   3.426   7.378
14906WAT     H244961   1.000   3.323   7.463
14907WAT      O44962   1.904   1.095   0.458
14907WAT     H144963   1.854   1.009   0.443
14907WAT     H244964   1.913   1.143   0.371
14908WAT      O44965   5.910   3.926   7.224
14908WAT     H144966   5.932   3.847   7.282
14908WAT     H244967   5.991   3.952   7.172
14909WAT      O44968   3.034   9.434   8.371
14909WAT     H144969   3.100   9.461   8.441
14909WAT     H244970   2.942   9.459   8.400
14910WAT      O44971   8.145   5.720   4.887
14910WAT     H144972   8.215   5.774   4.840
14910WAT     H244973   8.062   5.717   4.831
14911WAT      O44974   6.250   3.710   9.516
14911WAT     H144975   6.244   3.807   9.536
14911WAT     H244976   6.222   3.694   9.421
14912WAT      O44977   9.774   1.417   5.942
14912WAT     H144978   9.852   1.478   5.948
14912WAT     H244979   9.719   1.440   5.861
14913WAT      O44980   3.803   9.091   6.853
14913WAT     H144981   3.853   9.050   6.930
14913WAT     H244982   3.825   9.188   6.848
14914WAT      O44983   5.520   6.559   3.490
14914WAT     H144984   5.453   6.525   3.555
14914WAT     H244985   5.510   6.510   3.403
14915WAT      O44986   7.217   1.248   2.235
14915WAT     H144987   7.171   1.203   2.312
14915WAT     H244988   7.226   1.183   2.159
14916WAT      O44989   9.005   8.578   0.714
14916WAT     H144990   8.920   8.534   0.741
14916WAT     H244991   9.052   8.523   0.645
14917WAT      O44992   3.343   1.035   2.733
14917WAT     H144993   3.313   1.022   2.639
14917WAT     H244994   3.271   1.004   2.796
14918WAT      O44995   1.526   9.526   4.633
14918WAT     H144996   1.592   9.495   4.564
14918WAT     H244997   1.449   9.462   4.636
14919WAT      O44998   4.928   6.553   8.758
14919WAT     H144999   4.916   6.490   8.682
14919WAT     H245000   4.841   6.595   8.782
14920WAT      O45001   4.226   6.756   6.011
14920WAT     H145002   4.160   6.701   6.063
14920WAT     H245003   4.176   6.824   5.957
14921WAT      O45004   1.175   6.675   4.658
14921WAT     H145005   1.249   6.739   4.681
14921WAT     H245006   1.211   6.582   4.655
14922WAT      O45007   5.716   3.189   2.283
14922WAT     H145008   5.616   3.192   2.291
14922WAT     H245009   5.746   3.253   2.213
14923WAT      O45010   3.533   4.066   6.084
14923WAT     H145011   3.631   4.082   6.096
14923WAT     H245012   3.516   3.967   6.080
14924WAT      O45013   9.376   3.137   9.743
14924WAT     H145014   9.337   3.092   9.824
14924WAT     H245015   9.461   3.091   9.718
14925WAT      O45016   8.682   3.935   1.788
14925WAT     H145017   8.755   3.866   1.786
14925WAT     H245018   8.593   3.890   1.776
14926WAT      O45019   1.420   2.839   4.413
14926WAT     H145020   1.411   2.788   4.328
14926WAT     H245021   1.394   2.780   4.490
14927WAT      O45022   5.931   4.586   9.764
14927WAT     H145023   6.029   4.604   9.763
14927WAT     H245024   5.908   4.528   9.842
14928WAT      O45025   1.375   6.557   6.545
14928WAT     H145026   1.417   6.606   6.469
14928WAT     H245027   1.354   6.463   6.516
14929WAT      O45028   6.812   3.086   8.721
14929WAT     H145029   6.808   3.182   8.750
14929WAT     H245030   6.728   3.062   8.673
14930WAT      O45031   5.384   9.040   8.341
14930WAT     H145032   5.362   9.136   8.363
14930WAT     H245033   5.467   9.013   8.390
14931WAT      O45034   5.988   7.316   5.306
14931WAT     H145035   6.017   7.367   5.386
14931WAT     H245036   5.929   7.372   5.249
14932WAT      O45037   0.034   5.889   2.719
14932WAT     H145038   0.120   5.843   2.699
14932WAT     H245039   0.047   5.954   2.794
14933WAT      O45040   4.530   1.984   0.284
14933WAT     H145041   4.434   1.959   0.272
14933WAT     H245042   4.573   1.999   0.195
14934WAT      O45043   3.269   1.935   3.488
14934WAT     H145044   3.169   1.925   3.487
14934WAT     H245045   3.309   1.866   3.427
14935WAT      O45046   1.125   8.757   6.959
14935WAT     H145047   1.195   8.775   6.890
14935WAT     H245048   1.089   8.843   6.995
14936WAT      O45049   5.521   8.582   6.508
14936WAT     H145050   5.478   8.626   6.587
14936WAT     H245051   5.497   8.631   6.425
14937WAT      O45052   5.826   1.046   3.677
14937WAT     H145053   5.830   1.109   3.754
14937WAT     H245054   5.901   0.980   3.684
14938WAT      O45055   7.944   5.117   9.182
14938WAT     H145056   7.872   5.048   9.194
14938WAT     H245057   7.957   5.136   9.085
14939WAT      O45058   7.649   9.459   2.816
14939WAT     H145059   7.595   9.375   2.828
14939WAT     H245060   7.690   9.484   2.904
14940WAT      O45061   8.333   5.825   3.287
14940WAT     H145062   8.348   5.915   3.245
14940WAT     H245063   8.249   5.785   3.249
14941WAT      O45064   1.669   9.093   0.635
14941WAT     H145065   1.705   9.022   0.575
14941WAT     H245066   1.595   9.056   0.691
14942WAT      O45067   3.507   7.552   6.077
14942WAT     H145068   3.589   7.580   6.028
14942WAT     H245069   3.467   7.472   6.033
14943WAT      O45070   7.456   5.032   5.039
14943WAT     H145071   7.471   5.070   5.130
14943WAT     H245072   7.421   5.104   4.978
14944WAT      O45073   2.526   3.743   2.500
14944WAT     H145074   2.432   3.731   2.467
14944WAT     H245075   2.590   3.730   2.425
14945WAT      O45076   8.242   8.286   7.440
14945WAT     H145077   8.320   8.345   7.457
14945WAT     H245078   8.213   8.295   7.345
14946WAT      O45079   8.659   6.709   2.980
14946WAT     H145080   8.625   6.787   2.927
14946WAT     H245081   8.630   6.624   2.935
14947WAT      O45082   2.242   2.296   4.883
14947WAT     H145083   2.214   2.353   4.806
14947WAT     H245084   2.331   2.326   4.916
14948WAT      O45085   9.031   1.617   8.549
14948WAT     H145086   8.998   1.523   8.556
14948WAT     H245087   9.013   1.651   8.457
14949WAT      O45088   1.400   3.882   7.880
14949WAT     H145089   1.383   3.886   7.782
14949WAT     H245090   1.368   3.967   7.922
14950WAT      O45091   2.616   0.879   0.145
14950WAT     H145092   2.708   0.875   0.104
14950WAT     H245093   2.548   0.852   0.077
14951WAT      O45094   3.235   3.770   8.776
14951WAT     H145095   3.217   3.869   8.782
14951WAT     H245096   3.220   3.728   8.865
14952WAT      O45097   5.359   2.998   8.740
14952WAT     H145098   5.342   2.925   8.805
14952WAT     H245099   5.281   3.006   8.677
14953WAT      O45100   9.788   5.953   5.295
14953WAT     H145101   9.690   5.956   5.274
14953WAT     H245102   9.825   6.045   5.296
14954WAT      O45103   4.270   3.287   1.976
14954WAT     H145104   4.318   3.375   1.972
14954WAT     H245105   4.172   3.302   1.968
14955WAT      O45106   8.656   2.165   7.572
14955WAT     H145107   8.624   2.101   7.502
14955WAT     H245108   8.682   2.251   7.528
14956WAT      O45109   6.896   1.040   2.570
14956WAT     H145110   6.865   1.132   2.595
14956WAT     H245111   6.937   1.042   2.478
14957WAT      O45112   8.398   8.580   7.721
14957WAT     H145113   8.473   8.540   7.668
14957WAT     H245114   8.340   8.507   7.756
14958WAT      O45115   6.876   0.173   5.298
14958WAT     H145116   6.794   0.122   5.269
14958WAT     H245117   6.868   0.196   5.395
14959WAT      O45118   8.891   0.346   0.640
14959WAT     H145119   8.906   0.315   0.734
14959WAT     H245120   8.822   0.418   0.640
14960WAT      O45121   1.670   1.776   7.007
14960WAT     H145122   1.682   1.736   6.916
14960WAT     H245123   1.574   1.767   7.034
14961WAT      O45124   7.248   3.309   7.415
14961WAT     H145125   7.294   3.342   7.332
14961WAT     H245126   7.173   3.371   7.438
14962WAT      O45127   3.646   2.325   8.089
14962WAT     H145128   3.554   2.294   8.114
14962WAT     H245129   3.666   2.296   7.996
14963WAT      O45130   1.224   6.493   9.093
14963WAT     H145131   1.201   6.417   9.152
14963WAT     H245132   1.226   6.462   8.998
14964WAT      O45133   3.034   1.336   5.882
14964WAT     H145134   3.048   1.432   5.854
14964WAT     H245135   3.100   1.312   5.952
14965WAT      O45136   7.115   6.462   8.716
14965WAT     H145137   7.017   6.465   8.698
14965WAT     H245138   7.131   6.455   8.815
14966WAT      O45139   1.325   5.453   1.673
14966WAT     H145140   1.226   5.449   1.656
14966WAT     H245141   1.351   5.378   1.734
14967WAT      O45142   2.996   6.432   0.226
14967WAT     H145143   3.068   6.488   0.266
14967WAT     H245144   2.964   6.475   0.141
14968WAT      O45145   6.647   4.273   0.777
14968WAT     H145146   6.716   4.230   0.836
14968WAT     H245147   6.576   4.315   0.834
14969WAT      O45148   2.594   6.967   0.885
14969WAT     H145149   2.686   6.932   0.866
14969WAT     H245150   2.558   7.011   0.803
14970WAT      O45151   1.830   2.954   6.939
14970WAT     H145152   1.749   2.907   6.976
14970WAT     H245153   1.906   2.944   7.002
14971WAT      O45154   3.562   5.436   8.431
14971WAT     H145155   3.504   5.427   8.350
14971WAT     H245156   3.654   5.465   8.404
14972WAT      O45157   5.352   1.412   9.493
14972WAT     H145158   5.390   1.470   9.421
14972WAT     H245159   5.272   1.457   9.533
14973WAT      O45160   3.221   2.160   8.388
14973WAT     H145161   3.272   2.081   8.421
14973WAT     H245162   3.246   2.241   8.441
14974WAT      O45163   5.754   9.349   5.307
14974WAT     H145164   5.725   9.433   5.354
14974WAT     H245165   5.776   9.279   5.375
14975WAT      O45166   1.232   5.545   4.551
14975WAT     H145167   1.136   5.560   4.527
14975WAT     H245168   1.237   5.496   4.638
14976WAT      O45169   7.661   7.163   9.303
14976WAT     H145170   7.596   7.136   9.373
14976WAT     H245171   7.612   7.182   9.217
14977WAT      O45172   1.403   6.823   2.271
14977WAT     H145173   1.360   6.801   2.184
14977WAT     H245174   1.456   6.907   2.262
14978WAT      O45175   2.452   7.165   4.379
14978WAT     H145176   2.464   7.163   4.280
14978WAT     H245177   2.463   7.259   4.413
14979WAT      O45178   7.858   5.564   2.860
14979WAT     H145179   7.775   5.520   2.824
14979WAT     H245180   7.898   5.623   2.790
14980WAT      O45181   0.840   9.192   8.017
14980WAT     H145182   0.878   9.259   8.082
14980WAT     H245183   0.859   9.100   8.050
14981WAT      O45184   8.027   5.641   8.952
14981WAT     H145185   7.940   5.677   8.918
14981WAT     H245186   8.094   5.715   8.958
14982WAT      O45187   8.997   2.464   8.902
14982WAT     H145188   9.044   2.377   8.917
14982WAT     H245189   8.921   2.472   8.967
14983WAT      O45190   9.128   3.966   2.380
14983WAT     H145191   9.128   3.872   2.413
14983WAT     H245192   9.065   4.021   2.435
14984WAT      O45193   6.569   5.119   7.105
14984WAT     H145194   6.527   5.097   7.193
14984WAT     H245195   6.618   5.039   7.071
14985WAT      O45196   3.850   7.822   4.487
14985WAT     H145197   3.866   7.875   4.570
14985WAT     H245198   3.925   7.757   4.474
14986WAT      O45199   6.890   1.993   9.498
14986WAT     H145200   6.844   1.907   9.518
14986WAT     H245201   6.988   1.978   9.491
14987WAT      O45202   4.935   2.175   6.123
14987WAT     H145203   4.893   2.133   6.043
14987WAT     H245204   4.896   2.136   6.206
14988WAT      O45205   1.454   2.977   1.339
14988WAT     H145206   1.469   2.910   1.266
14988WAT     H245207   1.359   3.010   1.334
14989WAT      O45208   9.643   0.693   0.439
14989WAT     H145209   9.719   0.755   0.420
14989WAT     H245210   9.647   0.665   0.535
14990WAT      O45211   4.772   7.663   5.018
14990WAT     H145212   4.813   7.717   5.092
14990WAT     H245213   4.815   7.689   4.931
14991WAT      O45214   3.914   4.559   7.739
14991WAT     H145215   3.986   4.510   7.788
14991WAT     H245216   3.913   4.655   7.768
14992WAT      O45217   0.974   6.097   2.446
14992WAT     H145218   1.073   6.110   2.453
14992WAT     H245219   0.930   6.184   2.426
14993WAT      O45220   3.265   3.059   8.667
14993WAT     H145221   3.175   3.042   8.629
14993WAT     H245222   3.288   2.986   8.731
14994WAT      O45223   4.194   2.814   6.081
14994WAT     H145224   4.119   2.839   6.020
14994WAT     H245225   4.271   2.876   6.066
14995WAT      O45226   5.705   9.686   2.930
14995WAT     H145227   5.629   9.751   2.931
14995WAT     H245228   5.757   9.697   2.845
14996WAT      O45229   5.732   6.224   7.607
14996WAT     H145230   5.678   6.264   7.681
14996WAT     H245231   5.768   6.136   7.635
14997WAT      O45232   4.802   7.456   8.349
14997WAT     H145233   4.772   7.549   8.326
14997WAT     H245234   4.806   7.446   8.448
14998WAT      O45235   3.709   4.299   3.994
14998WAT     H145236   3.667   4.360   3.928
14998WAT     H245237   3.708   4.205   3.959
14999WAT      O45238   1.136   5.497   2.231
14999WAT     H145239   1.231   5.464   2.226
14999WAT     H245240   1.132   5.575   2.294
15000WAT      O45241   4.449   0.171   9.093
15000WAT     H145242   4.483   0.231   9.021
15000WAT     H245243   4.525   0.139   9.149
15001WAT      O45244   0.436   8.708   9.230
15001WAT     H145245   0.379   8.688   9.151
15001WAT     H245246   0.406   8.653   9.308
15002WAT      O45247   7.994   6.791   9.127
15002WAT     H145248   8.049   6.811   9.209
15002WAT     H245249   7.898   6.810   9.147
15003WAT      O45250   6.599   3.276   2.676
15003WAT     H145251   6.534   3.346   2.647
15003WAT     H245252   6.549   3.200   2.719
15004WAT      O45253   5.562   1.553   8.570
15004WAT     H145254   5.620   1.474   8.548
15004WAT     H245255   5.594   1.633   8.520
15005WAT      O45256   1.758   2.987   4.281
15005WAT     H145257   1.711   2.965   4.367
15005WAT     H245258   1.692   2.987   4.206
15006WAT      O45259   2.297   6.700   8.118
15006WAT     H145260   2.366   6.635   8.150
15006WAT     H245261   2.209   6.678   8.158
15007WAT      O45262   4.123   6.811   3.566
15007WAT     H145263   4.221   6.822   3.587
15007WAT     H245264   4.103   6.850   3.476
15008WAT      O45265   2.377   2.532   6.159
15008WAT     H145266   2.284   2.535   6.123
15008WAT     H245267   2.418   2.623   6.154
15009WAT      O45268   3.061   9.453   0.539
15009WAT     H145269   3.046   9.360   0.504
15009WAT     H245270   3.098   9.510   0.466
15010WAT      O45271   3.868   4.797   3.691
15010WAT     H145272   3.814   4.713   3.697
15010WAT     H245273   3.951   4.778   3.638
15011WAT      O45274   2.165   3.803   5.601
15011WAT     H145275   2.205   3.877   5.547
15011WAT     H245276   2.217   3.719   5.588
15012WAT      O45277   9.052   0.822   4.530
15012WAT     H145278   8.962   0.785   4.553
15012WAT     H245279   9.104   0.838   4.615
15013WAT      O45280   1.438   1.074   1.600
15013WAT     H145281   1.499   1.059   1.523
15013WAT     H245282   1.372   0.999   1.606
15014WAT      O45283   4.647   3.121   3.323
15014WAT     H145284   4.699   3.201   3.354
15014WAT     H245285   4.633   3.127   3.225
15015WAT      O45286   5.767   7.692   9.002
15015WAT     H145287   5.820   7.611   9.026
15015WAT     H245288   5.771   7.758   9.077
15016WAT      O45289   7.741   7.268   8.438
15016WAT     H145290   7.834   7.298   8.422
15016WAT     H245291   7.728   7.176   8.400
15017WAT      O45292   6.458   9.196   2.328
15017WAT     H145293   6.472   9.112   2.379
15017WAT     H245294   6.425   9.175   2.236
15018WAT      O45295   3.112   3.640   5.161
15018WAT     H145296   3.130   3.579   5.085
15018WAT     H245297   3.099   3.733   5.127
15019WAT      O45298   5.141   1.968   3.614
15019WAT     H145299   5.136   1.966   3.515
15019WAT     H245300   5.225   1.923   3.645
15020WAT      O45301   1.656   5.201   9.209
15020WAT     H145302   1.639   5.146   9.128
15020WAT     H245303   1.754   5.219   9.217
15021WAT      O45304   5.627   1.827   1.868
15021WAT     H145305   5.719   1.857   1.896
15021WAT     H245306   5.634   1.769   1.787
15022WAT      O45307   4.978   3.795   2.050
15022WAT     H145308   4.964   3.844   1.963
15022WAT     H245309   5.057   3.834   2.097
15023WAT      O45310   0.468   0.214   8.833
15023WAT     H145311   0.420   0.253   8.912
15023WAT     H245312   0.561   0.188   8.859
15024WAT      O45313   2.827   8.533   2.463
15024WAT     H145314   2.768   8.573   2.393
15024WAT     H245315   2.916   8.511   2.423
15025WAT      O45316   6.927   0.019   2.962
15025WAT     H145317   6.908   0.001   2.866
15025WAT     H245318   6.993   0.094   2.970
15026WAT      O45319   3.443   1.072   7.257
15026WAT     H145320   3.381   1.035   7.188
15026WAT     H245321   3.524   1.109   7.212
15027WAT      O45322   1.367   1.121   3.879
15027WAT     H145323   1.314   1.201   3.906
15027WAT     H245324   1.305   1.051   3.844
15028WAT      O45325   7.763   7.802   3.076
15028WAT     H145326   7.773   7.827   3.172
15028WAT     H245327   7.673   7.761   3.062
15029WAT      O45328   7.552   6.951   7.538
15029WAT     H145329   7.462   6.918   7.567
15029WAT     H245330   7.618   6.936   7.612
15030WAT      O45331   6.065   4.173   4.025
15030WAT     H145332   6.005   4.181   3.946
15030WAT     H245333   6.159   4.192   3.997
15031WAT      O45334   0.352   2.562   7.836
15031WAT     H145335   0.330   2.651   7.796
15031WAT     H245336   0.275   2.530   7.890
15032WAT      O45337   7.233   2.695   2.381
15032WAT     H145338   7.254   2.750   2.461
15032WAT     H245339   7.136   2.674   2.379
15033WAT      O45340   6.245   3.859   2.381
15033WAT     H145341   6.231   3.761   2.392
15033WAT     H245342   6.306   3.892   2.453
15034WAT      O45343   5.973   7.745   6.889
15034WAT     H145344   6.061   7.760   6.934
15034WAT     H245345   5.988   7.733   6.791
15035WAT      O45346   6.713   4.563   9.015
15035WAT     H145347   6.662   4.516   9.087
15035WAT     H245348   6.652   4.581   8.937
15036WAT      O45349   4.165   1.012   8.040
15036WAT     H145350   4.262   1.026   8.023
15036WAT     H245351   4.145   1.032   8.136
15037WAT      O45352   0.986   4.391   3.445
15037WAT     H145353   0.926   4.407   3.366
15037WAT     H245354   1.073   4.354   3.413
15038WAT      O45355   2.516   7.013   3.577
15038WAT     H145356   2.443   7.006   3.645
15038WAT     H245357   2.566   6.927   3.573
15039WAT      O45358   2.746   5.151   6.604
15039WAT     H145359   2.752   5.198   6.692
15039WAT     H245360   2.671   5.085   6.606
15040WAT      O45361   1.679   3.261   2.060
15040WAT     H145362   1.609   3.325   2.027
15040WAT     H245363   1.748   3.247   1.988
15041WAT      O45364   4.393   4.601   4.553
15041WAT     H145365   4.374   4.668   4.624
15041WAT     H245366   4.470   4.632   4.497
15042WAT      O45367   9.638   2.413   0.709
15042WAT     H145368   9.591   2.478   0.649
15042WAT     H245369   9.725   2.452   0.739
15043WAT      O45370   8.049   5.188   5.326
15043WAT     H145371   8.129   5.127   5.323
15043WAT     H245372   8.046   5.242   5.242
15044WAT      O45373   2.365   6.722   0.029
15044WAT     H145374   2.330   6.810  -0.001
15044WAT     H245375   2.295   6.652   0.015
15045WAT      O45376   1.807   5.238   0.626
15045WAT     H145377   1.758   5.213   0.542
15045WAT     H245378   1.753   5.304   0.678
15046WAT      O45379   8.257   8.646   5.166
15046WAT     H145380   8.357   8.641   5.172
15046WAT     H245381   8.221   8.554   5.153
15047WAT      O45382   1.574   8.325   6.550
15047WAT     H145383   1.576   8.230   6.583
15047WAT     H245384   1.602   8.387   6.623
15048WAT      O45385   6.872   5.760   5.153
15048WAT     H145386   6.778   5.737   5.128
15048WAT     H245387   6.876   5.783   5.250
15049WAT      O45388   8.895   8.556   2.571
15049WAT     H145389   8.811   8.504   2.579
15049WAT     H245390   8.880   8.637   2.514
15050WAT      O45391   6.143   7.829   8.316
15050WAT     H145392   6.203   7.790   8.385
15050WAT     H245393   6.198   7.880   8.249
15051WAT      O45394   2.664   1.386   4.845
15051WAT     H145395   2.735   1.415   4.910
15051WAT     H245396   2.623   1.467   4.804
15052WAT      O45397   8.839   8.606   6.233
15052WAT     H145398   8.850   8.549   6.152
15052WAT     H245399   8.803   8.551   6.308
15053WAT      O45400   9.765   3.248   6.199
15053WAT     H145401   9.822   3.325   6.168
15053WAT     H245402   9.681   3.246   6.146
15054WAT      O45403   0.977   1.107   6.422
15054WAT     H145404   0.902   1.151   6.373
15054WAT     H245405   0.959   1.111   6.520
15055WAT      O45406   7.230   9.756   2.547
15055WAT     H145407   7.144   9.734   2.594
15055WAT     H245408   7.211   9.808   2.464
15056WAT      O45409   6.377   7.840   4.696
15056WAT     H145410   6.373   7.740   4.689
15056WAT     H245411   6.448   7.865   4.762
15057WAT      O45412   6.684   4.846   6.363
15057WAT     H145413   6.699   4.883   6.455
15057WAT     H245414   6.614   4.901   6.316
15058WAT      O45415   0.266   3.494   0.108
15058WAT     H145416   0.324   3.475   0.029
15058WAT     H245417   0.181   3.442   0.099
15059WAT      O45418   0.890   3.587   4.683
15059WAT     H145419   0.891   3.687   4.690
15059WAT     H245420   0.870   3.548   4.773
15060WAT      O45421   2.653   6.986   1.165
15060WAT     H145422   2.650   7.070   1.111
15060WAT     H245423   2.713   6.919   1.120
15061WAT      O45424   8.357   9.782   2.596
15061WAT     H145425   8.333   9.818   2.686
15061WAT     H245426   8.375   9.684   2.603
15062WAT      O45427   5.935   5.041   7.682
15062WAT     H145428   5.835   5.051   7.682
15062WAT     H245429   5.967   5.027   7.589
15063WAT      O45430   1.654   7.743   3.448
15063WAT     H145431   1.695   7.653   3.455
15063WAT     H245432   1.581   7.742   3.380
15064WAT      O45433   3.414   8.681   6.302
15064WAT     H145434   3.426   8.583   6.319
15064WAT     H245435   3.445   8.703   6.210
15065WAT      O45436   1.688   4.284   8.092
15065WAT     H145437   1.754   4.248   8.026
15065WAT     H245438   1.679   4.221   8.168
15066WAT      O45439   3.350   2.782   6.745
15066WAT     H145440   3.322   2.814   6.654
15066WAT     H245441   3.301   2.697   6.766
15067WAT      O45442   0.436   6.547   2.331
15067WAT     H145443   0.403   6.641   2.331
15067WAT     H245444   0.482   6.528   2.244
15068WAT      O45445   6.112   8.145   5.786
15068WAT     H145446   6.155   8.219   5.838
15068WAT     H245447   6.081   8.180   5.697
15069WAT      O45448   0.070   8.670   4.810
15069WAT     H145449  -0.015   8.676   4.757
15069WAT     H245450   0.126   8.595   4.775
15070WAT      O45451   3.763   0.105   1.777
15070WAT     H145452   3.684   0.085   1.718
15070WAT     H245453   3.741   0.078   1.871
15071WAT      O45454   1.799   7.077   5.880
15071WAT     H145455   1.708   7.040   5.861
15071WAT     H245456   1.867   7.005   5.867
15072WAT      O45457   8.408   1.618   5.215
15072WAT     H145458   8.371   1.706   5.245
15072WAT     H245459   8.366   1.545   5.268
15073WAT      O45460   6.467   0.544   4.913
15073WAT     H145461   6.434   0.637   4.924
15073WAT     H245462   6.414   0.483   4.972
15074WAT      O45463   6.974   3.261   6.586
15074WAT     H145464   6.886   3.216   6.573
15074WAT     H245465   7.047   3.202   6.553
15075WAT      O45466   5.681   1.911   3.518
15075WAT     H145467   5.661   1.987   3.578
15075WAT     H245468   5.775   1.918   3.484
15076WAT      O45469   2.826   6.802   1.041
15076WAT     H145470   2.826   6.752   0.954
15076WAT     H245471   2.920   6.828   1.063
15077WAT      O45472   4.438   0.632   6.255
15077WAT     H145473   4.498   0.624   6.335
15077WAT     H245474   4.494   0.645   6.173
15078WAT      O45475   5.574   5.400   2.213
15078WAT     H145476   5.559   5.307   2.179
15078WAT     H245477   5.561   5.465   2.138
15079WAT      O45478   5.348   9.084   9.422
15079WAT     H145479   5.321   9.181   9.420
15079WAT     H245480   5.382   9.061   9.513
15080WAT      O45481   2.529   0.750   1.456
15080WAT     H145482   2.615   0.795   1.479
15080WAT     H245483   2.543   0.651   1.452
15081WAT      O45484   7.372   8.682   4.205
15081WAT     H145485   7.327   8.623   4.272
15081WAT     H245486   7.365   8.641   4.114
15082WAT      O45487   7.223   8.086   2.000
15082WAT     H145488   7.230   8.178   1.962
15082WAT     H245489   7.284   8.079   2.080
15083WAT      O45490   7.416   2.424   0.734
15083WAT     H145491   7.496   2.377   0.697
15083WAT     H245492   7.399   2.390   0.827
15084WAT      O45493   0.398   6.494   2.897
15084WAT     H145494   0.411   6.494   2.997
15084WAT     H245495   0.485   6.510   2.852
15085WAT      O45496   1.057   1.675   2.032
15085WAT     H145497   1.118   1.694   2.108
15085WAT     H245498   0.966   1.711   2.052
15086WAT      O45499   1.900   4.799   5.305
15086WAT     H145500   1.988   4.813   5.258
15086WAT     H245501   1.846   4.732   5.254
15087WAT      O45502   8.131   8.642   0.419
15087WAT     H145503   8.207   8.607   0.363
15087WAT     H245504   8.046   8.598   0.390
15088WAT      O45505   2.645   0.030   8.864
15088WAT     H145506   2.733   0.049   8.909
15088WAT     H245507   2.661   0.009   8.767
15089WAT      O45508   6.623   9.286   9.775
15089WAT     H145509   6.714   9.325   9.757
15089WAT     H245510   6.604   9.289   9.873
15090WAT      O45511   8.254   2.112   7.546
15090WAT     H145512   8.310   2.036   7.516
15090WAT     H245513   8.312   2.183   7.587
15091WAT      O45514   0.385   6.184   4.890
15091WAT     H145515   0.318   6.220   4.955
15091WAT     H245516   0.469   6.238   4.896
15092WAT      O45517   8.540   8.703   0.072
15092WAT     H145518   8.584   8.614   0.071
15092WAT     H245519   8.609   8.775   0.073
15093WAT      O45520   6.180   5.271   9.829
15093WAT     H145521   6.172   5.177   9.861
15093WAT     H245522   6.175   5.273   9.729
15094WAT      O45523   1.619   9.206   5.283
15094WAT     H145524   1.581   9.226   5.373
15094WAT     H245525   1.676   9.124   5.288
15095WAT      O45526   1.873   6.316   1.435
15095WAT     H145527   1.813   6.396   1.437
15095WAT     H245528   1.819   6.233   1.432
15096WAT      O45529   0.944   5.389   4.391
15096WAT     H145530   0.992   5.307   4.423
15096WAT     H245531   0.849   5.385   4.420
15097WAT      O45532   0.587   4.191   8.409
15097WAT     H145533   0.543   4.280   8.394
15097WAT     H245534   0.521   4.129   8.452
15098WAT      O45535   9.718   4.118   1.318
15098WAT     H145536   9.662   4.193   1.283
15098WAT     H245537   9.664   4.034   1.320
15099WAT      O45538   2.886   7.183   3.914
15099WAT     H145539   2.965   7.154   3.969
15099WAT     H245540   2.855   7.272   3.946
15100WAT      O45541   1.577   5.598   4.215
15100WAT     H145542   1.674   5.579   4.229
15100WAT     H245543   1.561   5.696   4.213
15101WAT      O45544   3.273   5.684   3.467
15101WAT     H145545   3.221   5.724   3.392
15101WAT     H245546   3.254   5.585   3.471
15102WAT      O45547   0.637   5.347   9.053
15102WAT     H145548   0.566   5.353   8.982
15102WAT     H245549   0.658   5.251   9.071
15103WAT      O45550   6.889   3.422   7.918
15103WAT     H145551   6.907   3.475   7.835
15103WAT     H245552   6.809   3.459   7.964
15104WAT      O45553   3.366   6.638   5.115
15104WAT     H145554   3.378   6.714   5.051
15104WAT     H245555   3.329   6.559   5.066
15105WAT      O45556   9.696   8.611   7.638
15105WAT     H145557   9.762   8.639   7.707
15105WAT     H245558   9.743   8.566   7.562
15106WAT      O45559   0.774   6.464   8.630
15106WAT     H145560   0.862   6.504   8.655
15106WAT     H245561   0.700   6.518   8.671
15107WAT      O45562   3.045   9.584   6.528
15107WAT     H145563   2.976   9.610   6.461
15107WAT     H245564   3.016   9.612   6.620
15108WAT      O45565   8.129   4.764   0.844
15108WAT     H145566   8.123   4.860   0.819
15108WAT     H245567   8.201   4.751   0.912
15109WAT      O45568   3.082   8.905   9.776
15109WAT     H145569   3.124   8.856   9.852
15109WAT     H245570   3.013   8.968   9.811
15110WAT      O45571   1.035   5.941   6.720
15110WAT     H145572   1.076   6.026   6.686
15110WAT     H245573   0.992   5.892   6.644
15111WAT      O45574   7.112   8.154   4.153
15111WAT     H145575   7.119   8.100   4.237
15111WAT     H245576   7.199   8.150   4.104
15112WAT      O45577   3.972   6.752   2.671
15112WAT     H145578   3.921   6.834   2.647
15112WAT     H245579   4.025   6.768   2.754
15113WAT      O45580   5.241   7.034   3.737
15113WAT     H145581   5.308   7.019   3.810
15113WAT     H245582   5.289   7.060   3.653
15114WAT      O45583   3.106   1.472   0.420
15114WAT     H145584   3.027   1.526   0.449
15114WAT     H245585   3.180   1.483   0.486
15115WAT      O45586   4.840   7.865   6.945
15115WAT     H145587   4.820   7.918   7.027
15115WAT     H245588   4.919   7.805   6.963
15116WAT      O45589   7.574   1.780   1.960
15116WAT     H145590   7.649   1.772   1.893
15116WAT     H245591   7.495   1.728   1.927
15117WAT      O45592   1.343   3.798   6.982
15117WAT     H145593   1.403   3.720   6.999
15117WAT     H245594   1.294   3.822   7.066
15118WAT      O45595   1.004   3.127   6.682
15118WAT     H145596   1.075   3.059   6.662
15118WAT     H245597   0.914   3.087   6.665
15119WAT      O45598   9.732   9.826   0.923
15119WAT     H145599   9.634   9.827   0.904
15119WAT     H245600   9.750   9.884   1.003
15120WAT      O45601   7.326   4.782   4.352
15120WAT     H145602   7.259   4.712   4.379
15120WAT     H245603   7.314   4.804   4.255
15121WAT      O45604   7.681   4.695   0.913
15121WAT     H145605   7.765   4.658   0.953
15121WAT     H245606   7.669   4.660   0.820
15122WAT      O45607   6.943   7.859   4.471
15122WAT     H145608   6.866   7.859   4.535
15122WAT     H245609   6.965   7.765   4.445
15123WAT      O45610   0.958   3.929   0.884
15123WAT     H145611   1.003   3.996   0.825
15123WAT     H245612   0.918   3.976   0.963
15124WAT      O45613   3.290   7.662   7.729
15124WAT     H145614   3.234   7.627   7.805
15124WAT     H245615   3.315   7.585   7.670
15125WAT      O45616   0.895   1.840   4.498
15125WAT     H145617   0.914   1.912   4.565
15125WAT     H245618   0.890   1.752   4.545
15126WAT      O45619   1.508   4.486   9.463
15126WAT     H145620   1.473   4.403   9.507
15126WAT     H245621   1.432   4.549   9.445
15127WAT      O45622   8.232   2.102   3.496
15127WAT     H145623   8.164   2.029   3.489
15127WAT     H245624   8.321   2.062   3.517
15128WAT      O45625   7.023   8.178   2.728
15128WAT     H145626   6.996   8.198   2.823
15128WAT     H245627   7.073   8.092   2.725
15129WAT      O45628   6.440   8.545   6.303
15129WAT     H145629   6.502   8.480   6.260
15129WAT     H245630   6.432   8.524   6.401
15130WAT      O45631   7.149   2.942   9.110
15130WAT     H145632   7.217   2.950   9.182
15130WAT     H245633   7.119   3.034   9.083
15131WAT      O45634   2.464   9.534   0.613
15131WAT     H145635   2.512   9.613   0.575
15131WAT     H245636   2.498   9.450   0.570
15132WAT      O45637   1.403   6.015   8.557
15132WAT     H145638   1.389   6.005   8.655
15132WAT     H245639   1.350   6.092   8.523
15133WAT      O45640   5.776   0.142   2.794
15133WAT     H145641   5.780   0.205   2.717
15133WAT     H245642   5.828   0.060   2.773
15134WAT      O45643   7.166   4.433   9.754
15134WAT     H145644   7.265   4.421   9.753
15134WAT     H245645   7.140   4.492   9.830
15135WAT      O45646   5.674   5.177   7.705
15135WAT     H145647   5.657   5.145   7.612
15135WAT     H245648   5.715   5.268   7.702
15136WAT      O45649   3.098   0.063   4.630
15136WAT     H145650   3.164   0.098   4.697
15136WAT     H245651   3.146   0.009   4.561
15137WAT      O45652   1.259   2.058   8.398
15137WAT     H145653   1.340   2.106   8.363
15137WAT     H245654   1.262   1.962   8.369
15138WAT      O45655   4.249   3.170   2.507
15138WAT     H145656   4.262   3.269   2.499
15138WAT     H245657   4.188   3.151   2.584
15139WAT      O45658   8.263   5.268   5.632
15139WAT     H145659   8.193   5.338   5.617
15139WAT     H245660   8.330   5.301   5.697
15140WAT      O45661   9.439   9.663   4.147
15140WAT     H145662   9.455   9.645   4.244
15140WAT     H245663   9.378   9.741   4.137
15141WAT      O45664   9.377   4.510   9.655
15141WAT     H145665   9.382   4.511   9.555
15141WAT     H245666   9.437   4.439   9.691
15142WAT      O45667   6.535   8.508   4.245
15142WAT     H145668   6.436   8.520   4.257
15142WAT     H245669   6.577   8.596   4.224
15143WAT      O45670   1.461   8.312   1.072
15143WAT     H145671   1.399   8.256   1.017
15143WAT     H245672   1.435   8.408   1.064
15144WAT      O45673   0.156   5.083   8.777
15144WAT     H145674   0.069   5.067   8.823
15144WAT     H245675   0.195   4.995   8.747
15145WAT      O45676   1.806   7.482   2.847
15145WAT     H145677   1.747   7.439   2.915
15145WAT     H245678   1.901   7.476   2.876
15146WAT      O45679   6.338   5.675   9.776
15146WAT     H145680   6.287   5.760   9.761
15146WAT     H245681   6.291   5.619   9.844
15147WAT      O45682   0.712   6.746   2.423
15147WAT     H145683   0.752   6.826   2.468
15147WAT     H245684   0.657   6.694   2.488
15148WAT      O45685   5.948   0.090   1.195
15148WAT     H145686   5.949  -0.004   1.229
15148WAT     H245687   5.896   0.148   1.258
15149WAT      O45688   9.177   6.833   2.182
15149WAT     H145689   9.086   6.869   2.162
15149WAT     H245690   9.236   6.907   2.214
15150WAT      O45691   8.931   2.972   9.715
15150WAT     H145692   8.884   3.057   9.690
15150WAT     H245693   8.892   2.937   9.800
15151WAT      O45694   1.325   1.959   4.179
15151WAT     H145695   1.282   1.891   4.238
15151WAT     H245696   1.295   1.945   4.085
15152WAT      O45697   0.376   6.670   3.769
15152WAT     H145698   0.420   6.748   3.813
15152WAT     H245699   0.287   6.698   3.731
15153WAT      O45700   0.491   6.741   7.225
15153WAT     H145701   0.555   6.751   7.150
15153WAT     H245702   0.525   6.673   7.290
15154WAT      O45703   0.461   9.058   3.473
15154WAT     H145704   0.542   9.001   3.460
15154WAT     H245705   0.482   9.133   3.536
15155WAT      O45706   1.260   6.851   1.690
15155WAT     H145707   1.239   6.927   1.751
15155WAT     H245708   1.308   6.885   1.609
15156WAT      O45709   0.561   5.722   0.900
15156WAT     H145710   0.514   5.788   0.959
15156WAT     H245711   0.557   5.755   0.805
15157WAT      O45712   8.453   3.901   4.584
15157WAT     H145713   8.378   3.847   4.547
15157WAT     H245714   8.497   3.850   4.658
15158WAT      O45715   1.699   2.280   8.230
15158WAT     H145716   1.747   2.313   8.311
15158WAT     H245717   1.714   2.343   8.154
15159WAT      O45718   9.598   6.640   0.973
15159WAT     H145719   9.657   6.721   0.961
15159WAT     H245720   9.505   6.670   0.991
15160WAT      O45721   1.297   4.961   3.453
15160WAT     H145722   1.242   4.880   3.472
15160WAT     H245723   1.264   5.037   3.509
15161WAT      O45724   6.933   0.223   6.621
15161WAT     H145725   7.030   0.209   6.641
15161WAT     H245726   6.920   0.226   6.522
15162WAT      O45727   1.053   5.801   4.762
15162WAT     H145728   0.967   5.763   4.728
15162WAT     H245729   1.083   5.749   4.842
15163WAT      O45730   6.098   4.076   3.369
15163WAT     H145731   6.167   4.007   3.348
15163WAT     H245732   6.048   4.101   3.286
15164WAT      O45733   7.943   9.580   1.530
15164WAT     H145734   8.035   9.553   1.559
15164WAT     H245735   7.883   9.581   1.610
15165WAT      O45736   3.990   5.823   8.873
15165WAT     H145737   3.908   5.826   8.930
15165WAT     H245738   4.040   5.909   8.881
15166WAT      O45739   1.409   6.267   7.343
15166WAT     H145740   1.481   6.266   7.413
15166WAT     H245741   1.364   6.178   7.339
15167WAT      O45742   7.139   6.631   6.554
15167WAT     H145743   7.118   6.537   6.526
15167WAT     H245744   7.156   6.633   6.653
15168WAT      O45745   3.557   5.239   4.982
15168WAT     H145746   3.507   5.153   4.989
15168WAT     H245747   3.541   5.279   4.892
15169WAT      O45748   7.157   0.359   5.648
15169WAT     H145749   7.240   0.312   5.679
15169WAT     H245750   7.169   0.458   5.657
15170WAT      O45751   6.814   9.046   9.173
15170WAT     H145752   6.777   9.127   9.127
15170WAT     H245753   6.854   9.073   9.261
15171WAT      O45754   9.054   9.730   7.450
15171WAT     H145755   9.090   9.788   7.524
15171WAT     H245756   9.076   9.634   7.470
15172WAT      O45757   2.614   5.193   6.836
15172WAT     H145758   2.593   5.285   6.804
15172WAT     H245759   2.530   5.145   6.860
15173WAT      O45760   0.508   3.511   7.773
15173WAT     H145761   0.606   3.526   7.759
15173WAT     H245762   0.495   3.437   7.840
15174WAT      O45763   9.440   4.751   4.627
15174WAT     H145764   9.525   4.732   4.676
15174WAT     H245765   9.448   4.720   4.533
15175WAT      O45766   2.532   3.853   6.435
15175WAT     H145767   2.520   3.858   6.534
15175WAT     H245768   2.581   3.769   6.411
15176WAT      O45769   0.387   4.557   1.195
15176WAT     H145770   0.472   4.553   1.142
15176WAT     H245771   0.387   4.484   1.264
15177WAT      O45772   2.707   5.142   3.022
15177WAT     H145773   2.740   5.058   2.979
15177WAT     H245774   2.613   5.160   2.993
15178WAT      O45775   9.678   5.036   3.831
15178WAT     H145776   9.731   5.097   3.771
15178WAT     H245777   9.737   5.003   3.905
15179WAT      O45778   9.470   8.447   8.174
15179WAT     H145779   9.458   8.546   8.175
15179WAT     H245780   9.398   8.404   8.228
15180WAT      O45781   3.892   5.514   3.332
15180WAT     H145782   3.984   5.476   3.348
15180WAT     H245783   3.898   5.587   3.264
15181WAT      O45784   3.987   7.990   2.497
15181WAT     H145785   3.907   8.050   2.489
15181WAT     H245786   3.985   7.921   2.425
15182WAT      O45787   7.802   9.413   1.997
15182WAT     H145788   7.792   9.487   1.931
15182WAT     H245789   7.830   9.330   1.950
15183WAT      O45790   4.696   5.599   8.022
15183WAT     H145791   4.597   5.589   8.016
15183WAT     H245792   4.722   5.691   7.994
15184WAT      O45793   0.773   4.558   6.688
15184WAT     H145794   0.682   4.589   6.661
15184WAT     H245795   0.839   4.632   6.675
15185WAT      O45796   8.389   6.375   2.189
15185WAT     H145797   8.429   6.463   2.214
15185WAT     H245798   8.341   6.384   2.102
15186WAT      O45799   8.015   5.360   7.809
15186WAT     H145800   7.976   5.369   7.901
15186WAT     H245801   8.007   5.447   7.761
15187WAT      O45802   5.356   1.705   8.473
15187WAT     H145803   5.410   1.636   8.521
15187WAT     H245804   5.344   1.677   8.378
15188WAT      O45805   6.506   5.040   6.301
15188WAT     H145806   6.467   5.084   6.382
15188WAT     H245807   6.516   5.108   6.228
15189WAT      O45808   9.594   3.459   4.894
15189WAT     H145809   9.495   3.472   4.899
15189WAT     H245810   9.614   3.372   4.847
15190WAT      O45811   2.845   9.765   7.942
15190WAT     H145812   2.900   9.752   7.860
15190WAT     H245813   2.755   9.723   7.930
15191WAT      O45814   8.394   1.950   7.883
15191WAT     H145815   8.349   2.039   7.879
15191WAT     H245816   8.337   1.886   7.935
15192WAT      O45817   7.281   3.408   1.066
15192WAT     H145818   7.363   3.371   1.024
15192WAT     H245819   7.227   3.334   1.106
15193WAT      O45820   5.813   9.543   8.480
15193WAT     H145821   5.715   9.523   8.481
15193WAT     H245822   5.848   9.535   8.387
15194WAT      O45823   9.397   2.158   5.771
15194WAT     H145824   9.315   2.160   5.829
15194WAT     H245825   9.371   2.165   5.675
15195WAT      O45826   5.552   9.257   9.174
15195WAT     H145827   5.568   9.339   9.119
15195WAT     H245828   5.476   9.205   9.135
15196WAT      O45829   0.036   6.795   2.043
15196WAT     H145830  -0.038   6.762   2.102
15196WAT     H245831  -0.002   6.819   1.954
15197WAT      O45832   1.613   0.008   7.062
15197WAT     H145833   1.522  -0.007   7.025
15197WAT     H245834   1.620  -0.033   7.153
15198WAT      O45835   9.432   8.362   9.342
15198WAT     H145836   9.467   8.269   9.329
15198WAT     H245837   9.451   8.416   9.260
15199WAT      O45838   7.399   8.483   6.697
15199WAT     H145839   7.447   8.519   6.617
15199WAT     H245840   7.403   8.550   6.772
15200WAT      O45841   2.559   0.551   4.197
15200WAT     H145842   2.513   0.514   4.277
15200WAT     H245843   2.649   0.507   4.187
15201WAT      O45844   8.015   4.477   2.615
15201WAT     H145845   8.015   4.572   2.646
15201WAT     H245846   7.928   4.434   2.639
15202WAT      O45847   8.784   5.299   9.722
15202WAT     H145848   8.868   5.348   9.743
15202WAT     H245849   8.802   5.231   9.650
15203WAT      O45850   2.440   5.227   2.679
15203WAT     H145851   2.390   5.255   2.761
15203WAT     H245852   2.537   5.216   2.700
15204WAT      O45853   8.936   4.945   1.675
15204WAT     H145854   8.876   5.024   1.664
15204WAT     H245855   8.897   4.866   1.627
15205WAT      O45856   7.459   8.221   9.594
15205WAT     H145857   7.469   8.143   9.655
15205WAT     H245858   7.367   8.260   9.604
15206WAT      O45859   2.631   5.473   5.745
15206WAT     H145860   2.590   5.398   5.798
15206WAT     H245861   2.691   5.435   5.675
15207WAT      O45862   8.481   3.895   3.593
15207WAT     H145863   8.491   3.862   3.499
15207WAT     H245864   8.410   3.843   3.639
15208WAT      O45865   7.955   6.217   2.146
15208WAT     H145866   8.022   6.213   2.220
15208WAT     H245867   7.988   6.161   2.069
15209WAT      O45868   7.590   0.840   7.827
15209WAT     H145869   7.615   0.757   7.877
15209WAT     H245870   7.645   0.846   7.743
15210WAT      O45871   1.052   6.607   6.990
15210WAT     H145872   1.011   6.608   6.899
15210WAT     H245873   1.134   6.550   6.989
15211WAT      O45874   3.365   1.071   4.193
15211WAT     H145875   3.401   1.140   4.131
15211WAT     H245876   3.398   1.089   4.286
15212WAT      O45877   5.494   6.001   3.069
15212WAT     H145878   5.421   6.069   3.080
15212WAT     H245879   5.555   6.029   2.994
15213WAT      O45880   0.491   3.347   4.424
15213WAT     H145881   0.425   3.363   4.351
15213WAT     H245882   0.583   3.363   4.389
15214WAT      O45883   2.531   7.962   8.533
15214WAT     H145884   2.547   7.864   8.517
15214WAT     H245885   2.441   7.987   8.495
15215WAT      O45886   4.082   2.137   7.370
15215WAT     H145887   4.164   2.108   7.419
15215WAT     H245888   4.014   2.169   7.436
15216WAT      O45889   0.412   8.355   8.622
15216WAT     H145890   0.349   8.317   8.689
15216WAT     H245891   0.492   8.392   8.668
15217WAT      O45892   4.330   1.168   5.793
15217WAT     H145893   4.359   1.245   5.849
15217WAT     H245894   4.406   1.138   5.735
15218WAT      O45895   8.176   9.240   1.916
15218WAT     H145896   8.250   9.255   1.982
15218WAT     H245897   8.156   9.326   1.869
15219WAT      O45898   7.382   2.532   4.746
15219WAT     H145899   7.396   2.582   4.660
15219WAT     H245900   7.443   2.569   4.816
15220WAT      O45901   6.260   3.235   8.257
15220WAT     H145902   6.279   3.176   8.335
15220WAT     H245903   6.330   3.221   8.187
15221WAT      O45904   3.539   9.590   3.319
15221WAT     H145905   3.457   9.647   3.323
15221WAT     H245906   3.512   9.495   3.304
15222WAT      O45907   2.114   5.298   5.310
15222WAT     H145908   2.179   5.222   5.302
15222WAT     H245909   2.044   5.288   5.239
15223WAT      O45910   1.559   0.696   7.717
15223WAT     H145911   1.610   0.730   7.796
15223WAT     H245912   1.486   0.761   7.694
15224WAT      O45913   7.181   0.799   4.036
15224WAT     H145914   7.253   0.816   3.969
15224WAT     H245915   7.093   0.831   4.001
15225WAT      O45916   6.683   1.523   9.067
15225WAT     H145917   6.680   1.623   9.064
15225WAT     H245918   6.601   1.486   9.025
15226WAT      O45919   5.640   3.132   0.857
15226WAT     H145920   5.563   3.114   0.918
15226WAT     H245921   5.681   3.221   0.879
15227WAT      O45922   8.934   0.840   3.805
15227WAT     H145923   9.006   0.825   3.738
15227WAT     H245924   8.907   0.936   3.804
15228WAT      O45925   5.437   6.368   6.680
15228WAT     H145926   5.534   6.363   6.704
15228WAT     H245927   5.391   6.285   6.712
15229WAT      O45928   0.812   5.798   1.887
15229WAT     H145929   0.854   5.889   1.894
15229WAT     H245930   0.842   5.741   1.963
15230WAT      O45931   8.144   4.957   5.892
15230WAT     H145932   8.133   4.862   5.862
15230WAT     H245933   8.102   4.968   5.982
15231WAT      O45934   8.381   5.469   6.157
15231WAT     H145935   8.322   5.440   6.081
15231WAT     H245936   8.337   5.445   6.244
15232WAT      O45937   1.341   7.556   2.731
15232WAT     H145938   1.360   7.633   2.791
15232WAT     H245939   1.243   7.548   2.716
15233WAT      O45940   4.408   0.437   4.700
15233WAT     H145941   4.343   0.510   4.678
15233WAT     H245942   4.359   0.351   4.710
15234WAT      O45943   7.350   6.100   5.856
15234WAT     H145944   7.387   6.085   5.948
15234WAT     H245945   7.420   6.141   5.798
15235WAT      O45946   9.218   7.948   6.882
15235WAT     H145947   9.136   7.928   6.934
15235WAT     H245948   9.216   8.044   6.852
15236WAT      O45949   5.088   8.844   8.008
15236WAT     H145950   5.046   8.820   8.095
15236WAT     H245951   5.188   8.843   8.017
15237WAT      O45952   8.459   3.526   3.908
15237WAT     H145953   8.446   3.596   3.979
15237WAT     H245954   8.436   3.436   3.945
15238WAT      O45955   6.904   6.623   0.503
15238WAT     H145956   6.889   6.626   0.602
15238WAT     H245957   6.851   6.549   0.463
15239WAT      O45958   7.775   6.427   3.416
15239WAT     H145959   7.774   6.327   3.424
15239WAT     H245960   7.863   6.456   3.377
15240WAT      O45961   2.177   3.032   9.196
15240WAT     H145962   2.079   3.019   9.185
15240WAT     H245963   2.226   2.978   9.128
15241WAT      O45964   9.606   7.244   9.885
15241WAT     H145965   9.604   7.144   9.882
15241WAT     H245966   9.518   7.280   9.852
15242WAT      O45967   1.531   8.164   0.268
15242WAT     H145968   1.548   8.244   0.325
15242WAT     H245969   1.588   8.169   0.186
15243WAT      O45970   0.553   0.593   8.847
15243WAT     H145971   0.464   0.583   8.802
15243WAT     H245972   0.546   0.562   8.942
15244WAT      O45973   2.134   3.769   0.026
15244WAT     H145974   2.042   3.730   0.031
15244WAT     H245975   2.129   3.863  -0.006
15245WAT      O45976   2.722   3.395   5.112
15245WAT     H145977   2.802   3.347   5.076
15245WAT     H245978   2.734   3.493   5.102
15246WAT      O45979   3.386   2.735   2.899
15246WAT     H145980   3.467   2.706   2.848
15246WAT     H245981   3.394   2.707   2.994
15247WAT      O45982   9.161   0.449   0.185
15247WAT     H145983   9.168   0.546   0.162
15247WAT     H245984   9.132   0.439   0.280
15248WAT      O45985   2.254   0.039   6.738
15248WAT     H145986   2.245   0.048   6.838
15248WAT     H245987   2.261  -0.058   6.714
15249WAT      O45988   5.345   6.370   2.917
15249WAT     H145989   5.308   6.421   2.840
15249WAT     H245990   5.396   6.432   2.977
15250WAT      O45991   5.915   5.956   4.934
15250WAT     H145992   5.917   6.053   4.910
15250WAT     H245993   5.836   5.938   4.993
15251WAT      O45994   6.385   0.182   0.162
15251WAT     H145995   6.298   0.136   0.144
15251WAT     H245996   6.369   0.278   0.181
15252WAT      O45997   3.943   0.681   2.165
15252WAT     H145998   4.039   0.711   2.164
15252WAT     H245999   3.916   0.661   2.259
15253WAT      O46000   4.894   9.566   7.476
15253WAT     H146001   4.960   9.629   7.519
15253WAT     H246002   4.856   9.506   7.546
15254WAT      O46003   6.101   2.638   1.059
15254WAT     H146004   6.157   2.698   1.117
15254WAT     H246005   6.041   2.582   1.116
15255WAT      O46006   2.521   0.533   0.556
15255WAT     H146007   2.500   0.630   0.571
15255WAT     H246008   2.477   0.502   0.472
15256WAT      O46009   5.438   0.881   8.709
15256WAT     H146010   5.483   0.930   8.784
15256WAT     H246011   5.342   0.906   8.706
15257WAT      O46012   2.097   5.408   7.652
15257WAT     H146013   2.052   5.491   7.619
15257WAT     H246014   2.034   5.357   7.709
15258WAT      O46015   2.972   7.068   5.421
15258WAT     H146016   2.950   6.974   5.446
15258WAT     H246017   3.063   7.071   5.380
15259WAT      O46018   8.048   3.187   8.506
15259WAT     H146019   8.138   3.165   8.467
15259WAT     H246020   7.978   3.130   8.464
15260WAT      O46021   3.634   4.745   5.076
15260WAT     H146022   3.720   4.697   5.061
15260WAT     H246023   3.616   4.807   5.000
15261WAT      O46024   5.955   1.756   6.848
15261WAT     H146025   5.932   1.748   6.751
15261WAT     H246026   6.046   1.797   6.857
15262WAT      O46027   3.495   6.287   3.723
15262WAT     H146028   3.520   6.384   3.726
15262WAT     H246029   3.499   6.249   3.816
15263WAT      O46030   6.211   3.839   3.753
15263WAT     H146031   6.262   3.903   3.696
15263WAT     H246032   6.200   3.752   3.705
15264WAT      O46033   5.572   7.294   8.419
15264WAT     H146034   5.613   7.227   8.481
15264WAT     H246035   5.587   7.266   8.325
15265WAT      O46036   4.447   0.772   2.193
15265WAT     H146037   4.369   0.776   2.255
15265WAT     H246038   4.511   0.845   2.215
15266WAT      O46039   2.144   1.732   2.584
15266WAT     H146040   2.125   1.735   2.682
15266WAT     H246041   2.135   1.823   2.546
15267WAT      O46042   8.228   9.614   8.809
15267WAT     H146043   8.318   9.659   8.814
15267WAT     H246044   8.166   9.657   8.875
15268WAT      O46045   5.737   3.396   1.019
15268WAT     H146046   5.830   3.387   1.055
15268WAT     H246047   5.672   3.359   1.085
15269WAT      O46048   5.004   1.842   0.176
15269WAT     H146049   4.924   1.861   0.232
15269WAT     H246050   5.034   1.927   0.131
15270WAT      O46051   5.569   4.046   6.529
15270WAT     H146052   5.569   4.005   6.437
15270WAT     H246053   5.634   4.122   6.532
15271WAT      O46054   2.522   5.562   7.050
15271WAT     H146055   2.454   5.635   7.044
15271WAT     H246056   2.517   5.518   7.139
15272WAT      O46057   9.659   5.316   2.901
15272WAT     H146058   9.740   5.334   2.958
15272WAT     H246059   9.680   5.244   2.835
15273WAT      O46060   0.928   9.830   9.201
15273WAT     H146061   0.946   9.823   9.103
15273WAT     H246062   0.921   9.738   9.240
15274WAT      O46063   0.033   1.633   7.939
15274WAT     H146064   0.072   1.550   7.980
15274WAT     H246065   0.086   1.712   7.968
15275WAT      O46066   9.613   3.104   6.934
15275WAT     H146067   9.697   3.074   6.889
15275WAT     H246068   9.586   3.036   7.002
15276WAT      O46069   3.930   3.574   2.150
15276WAT     H146070   3.835   3.544   2.158
15276WAT     H246071   3.966   3.597   2.241
15277WAT      O46072   4.202   9.060   0.634
15277WAT     H146073   4.231   9.128   0.566
15277WAT     H246074   4.283   9.020   0.676
15278WAT      O46075   7.617   8.989   1.227
15278WAT     H146076   7.560   9.065   1.258
15278WAT     H246077   7.714   9.015   1.234
15279WAT      O46078   7.915   6.412   5.225
15279WAT     H146079   8.002   6.456   5.244
15279WAT     H246080   7.862   6.469   5.162
15280WAT      O46081   0.475   3.929   9.678
15280WAT     H146082   0.430   3.865   9.616
15280WAT     H246083   0.458   3.902   9.772
15281WAT      O46084   1.987   6.261   3.262
15281WAT     H146085   2.007   6.332   3.195
15281WAT     H246086   2.071   6.213   3.285
15282WAT      O46087   6.197   2.292   2.257
15282WAT     H146088   6.149   2.319   2.340
15282WAT     H246089   6.291   2.325   2.259
15283WAT      O46090   8.650   6.038   6.918
15283WAT     H146091   8.578   6.105   6.937
15283WAT     H246092   8.630   5.993   6.831
15284WAT      O46093   7.019   7.406   2.820
15284WAT     H146094   7.066   7.373   2.902
15284WAT     H246095   7.020   7.506   2.820
15285WAT      O46096   3.822   9.502   1.092
15285WAT     H146097   3.747   9.553   1.135
15285WAT     H246098   3.908   9.551   1.108
15286WAT      O46099   6.355   2.666   6.854
15286WAT     H146100   6.331   2.671   6.757
15286WAT     H246101   6.445   2.707   6.868
15287WAT      O46102   9.854   2.253   6.688
15287WAT     H146103   9.797   2.296   6.758
15287WAT     H246104   9.940   2.303   6.679
15288WAT      O46105   8.592   2.941   8.813
15288WAT     H146106   8.550   2.855   8.786
15288WAT     H246107   8.619   2.992   8.731
15289WAT      O46108   2.153   4.056   6.641
15289WAT     H146109   2.163   4.068   6.542
15289WAT     H246110   2.222   4.110   6.688
15290WAT      O46111   2.261   5.593   0.898
15290WAT     H146112   2.204   5.669   0.927
15290WAT     H246113   2.221   5.507   0.930
15291WAT      O46114   0.340   3.444   3.073
15291WAT     H146115   0.312   3.535   3.043
15291WAT     H246116   0.258   3.388   3.089
15292WAT      O46117   8.243   7.189   4.372
15292WAT     H146118   8.274   7.126   4.301
15292WAT     H246119   8.205   7.271   4.330
15293WAT      O46120   4.266   5.956   2.322
15293WAT     H146121   4.335   5.930   2.254
15293WAT     H246122   4.207   6.027   2.283
15294WAT      O46123   8.992   0.300   8.856
15294WAT     H146124   9.021   0.268   8.765
15294WAT     H246125   8.900   0.337   8.850
15295WAT      O46126   5.398   2.393   5.822
15295WAT     H146127   5.428   2.467   5.762
15295WAT     H246128   5.304   2.411   5.853
15296WAT      O46129   3.204   6.092   9.402
15296WAT     H146130   3.193   6.170   9.341
15296WAT     H246131   3.250   6.017   9.353
15297WAT      O46132   8.755   4.725   4.730
15297WAT     H146133   8.832   4.789   4.734
15297WAT     H246134   8.669   4.775   4.741
15298WAT      O46135   0.679   4.745   9.108
15298WAT     H146136   0.742   4.668   9.118
15298WAT     H246137   0.585   4.712   9.104
15299WAT      O46138   5.974   7.968   1.207
15299WAT     H146139   5.927   8.027   1.140
15299WAT     H246140   5.994   8.021   1.290
15300WAT      O46141   4.707   7.390   7.642
15300WAT     H146142   4.693   7.393   7.741
15300WAT     H246143   4.627   7.429   7.596
15301WAT      O46144   0.805   7.786   5.862
15301WAT     H146145   0.722   7.808   5.811
15301WAT     H246146   0.863   7.726   5.806
15302WAT      O46147   1.386   0.165   6.014
15302WAT     H146148   1.480   0.196   6.001
15302WAT     H246149   1.325   0.244   6.024
15303WAT      O46150   1.477   5.281   5.647
15303WAT     H146151   1.439   5.349   5.585
15303WAT     H246152   1.560   5.242   5.608
15304WAT      O46153   6.384   2.842   8.579
15304WAT     H146154   6.355   2.912   8.514
15304WAT     H246155   6.387   2.753   8.533
15305WAT      O46156   5.637   7.141   4.532
15305WAT     H146157   5.646   7.110   4.437
15305WAT     H246158   5.540   7.146   4.557
15306WAT      O46159   2.010   9.301   2.677
15306WAT     H146160   1.917   9.268   2.664
15306WAT     H246161   2.033   9.364   2.603
15307WAT      O46162   8.408   6.115   1.459
15307WAT     H146163   8.445   6.078   1.374
15307WAT     H246164   8.323   6.164   1.440
15308WAT      O46165   1.664   0.426   2.023
15308WAT     H146166   1.595   0.498   2.010
15308WAT     H246167   1.643   0.349   1.964
15309WAT      O46168   6.230   4.715   6.021
15309WAT     H146169   6.228   4.800   6.074
15309WAT     H246170   6.295   4.651   6.063
15310WAT      O46171   6.601   0.046   5.616
15310WAT     H146172   6.573  -0.017   5.544
15310WAT     H246173   6.604  -0.002   5.703
15311WAT      O46174   3.461   5.330   1.735
15311WAT     H146175   3.505   5.378   1.660
15311WAT     H246176   3.529   5.278   1.787
15312WAT      O46177   5.713   7.800   6.931
15312WAT     H146178   5.812   7.794   6.915
15312WAT     H246179   5.680   7.890   6.901
15313WAT      O46180   7.934   0.409   9.388
15313WAT     H146181   7.869   0.382   9.459
15313WAT     H246182   8.024   0.369   9.408
15314WAT      O46183   3.998   1.354   3.042
15314WAT     H146184   4.001   1.421   3.117
15314WAT     H246185   3.994   1.402   2.954
15315WAT      O46186   7.493   6.236   2.360
15315WAT     H146187   7.545   6.276   2.285
15315WAT     H246188   7.397   6.229   2.333
15316WAT      O46189   4.610   1.883   4.081
15316WAT     H146190   4.548   1.922   4.150
15316WAT     H246191   4.559   1.869   3.996
15317WAT      O46192   5.036   0.420   3.712
15317WAT     H146193   5.069   0.482   3.783
15317WAT     H246194   5.110   0.402   3.647
15318WAT      O46195   1.345   2.046   6.242
15318WAT     H146196   1.419   1.998   6.289
15318WAT     H246197   1.368   2.056   6.145
15319WAT      O46198   1.202   4.012   8.840
15319WAT     H146199   1.185   4.106   8.867
15319WAT     H246200   1.268   3.970   8.903
15320WAT      O46201   3.881   2.897   1.604
15320WAT     H146202   3.861   2.946   1.689
15320WAT     H246203   3.934   2.815   1.624
15321WAT      O46204   8.143   0.786   5.155
15321WAT     H146205   8.165   0.708   5.097
15321WAT     H246206   8.095   0.855   5.101
15322WAT      O46207   1.305   7.592   7.168
15322WAT     H146208   1.349   7.527   7.231
15322WAT     H246209   1.207   7.594   7.186
15323WAT      O46210   2.438   5.793   7.756
15323WAT     H146211   2.356   5.851   7.760
15323WAT     H246212   2.497   5.823   7.681
15324WAT      O46213   8.141   5.652   8.376
15324WAT     H146214   8.194   5.570   8.394
15324WAT     H246215   8.142   5.671   8.278
15325WAT      O46216   3.269   0.907   5.159
15325WAT     H146217   3.361   0.880   5.187
15325WAT     H246218   3.213   0.826   5.142
15326WAT      O46219   2.031   2.097   2.180
15326WAT     H146220   2.116   2.105   2.127
15326WAT     H246221   2.053   2.095   2.278
15327WAT      O46222   2.210   9.642   9.601
15327WAT     H146223   2.260   9.662   9.686
15327WAT     H246224   2.171   9.550   9.607
15328WAT      O46225   4.454   9.643   8.483
15328WAT     H146226   4.488   9.556   8.448
15328WAT     H246227   4.360   9.657   8.453
15329WAT      O46228   9.113   9.419   4.688
15329WAT     H146229   9.121   9.518   4.685
15329WAT     H246230   9.083   9.385   4.599
15330WAT      O46231   1.868   9.077   8.997
15330WAT     H146232   1.890   8.994   8.946
15330WAT     H246233   1.940   9.095   9.064
15331WAT      O46234   0.360   7.224   4.604
15331WAT     H146235   0.375   7.261   4.696
15331WAT     H246236   0.448   7.211   4.559
15332WAT      O46237   7.750   1.977   2.717
15332WAT     H146238   7.651   1.991   2.709
15332WAT     H246239   7.798   2.039   2.655
15333WAT      O46240   6.932   3.103   3.063
15333WAT     H146241   6.982   3.051   3.132
15333WAT     H246242   6.994   3.128   2.988
15334WAT      O46243   7.124   2.469   1.829
15334WAT     H146244   7.151   2.529   1.754
15334WAT     H246245   7.166   2.500   1.914
15335WAT      O46246   6.637   9.550   9.342
15335WAT     H146247   6.701   9.500   9.400
15335WAT     H246248   6.543   9.521   9.361
15336WAT      O46249   7.155   5.234   6.975
15336WAT     H146250   7.229   5.237   6.908
15336WAT     H246251   7.189   5.193   7.060
15337WAT      O46252   1.170   9.241   3.163
15337WAT     H146253   1.204   9.329   3.131
15337WAT     H246254   1.075   9.230   3.135
15338WAT      O46255   2.043   4.096   0.727
15338WAT     H146256   1.988   4.146   0.794
15338WAT     H246257   2.005   4.109   0.635
15339WAT      O46258   7.135   1.949   2.687
15339WAT     H146259   7.213   2.004   2.657
15339WAT     H246260   7.085   1.915   2.608
15340WAT      O46261   3.789   2.966   9.432
15340WAT     H146262   3.840   2.909   9.367
15340WAT     H246263   3.779   3.058   9.394
15341WAT      O46264   7.489   5.776   9.347
15341WAT     H146265   7.572   5.832   9.350
15341WAT     H246266   7.508   5.687   9.388
15342WAT      O46267   8.317   7.740   5.349
15342WAT     H146268   8.370   7.823   5.336
15342WAT     H246269   8.250   7.753   5.422
15343WAT      O46270   1.899   1.576   2.908
15343WAT     H146271   1.838   1.620   2.841
15343WAT     H246272   1.845   1.545   2.986
15344WAT      O46273   8.619   1.398   5.122
15344WAT     H146274   8.633   1.374   5.025
15344WAT     H246275   8.522   1.416   5.138
15345WAT      O46276   9.788   0.797   0.086
15345WAT     H146277   9.730   0.716   0.097
15345WAT     H246278   9.884   0.770   0.091
15346WAT      O46279   3.839   5.930   5.281
15346WAT     H146280   3.774   5.887   5.343
15346WAT     H246281   3.803   5.929   5.188
15347WAT      O46282   9.347   9.446   3.185
15347WAT     H146283   9.430   9.436   3.130
15347WAT     H246284   9.278   9.380   3.154
15348WAT      O46285   4.107   1.316   1.056
15348WAT     H146286   4.113   1.409   1.021
15348WAT     H246287   4.020   1.275   1.027
15349WAT      O46288   3.031   4.453   4.600
15349WAT     H146289   3.031   4.537   4.654
15349WAT     H246290   3.041   4.476   4.503
15350WAT      O46291   7.989   5.591   7.630
15350WAT     H146292   8.028   5.682   7.648
15350WAT     H246293   7.899   5.601   7.588
15351WAT      O46294   3.156   5.907   9.808
15351WAT     H146295   3.242   5.856   9.812
15351WAT     H246296   3.112   5.907   9.897
15352WAT      O46297   1.406   5.277   7.858
15352WAT     H146298   1.427   5.321   7.771
15352WAT     H246299   1.478   5.299   7.924
15353WAT      O46300   3.534   4.063   9.819
15353WAT     H146301   3.506   3.978   9.864
15353WAT     H246302   3.616   4.099   9.863
15354WAT      O46303   8.464   4.886   0.808
15354WAT     H146304   8.415   4.842   0.883
15354WAT     H246305   8.399   4.914   0.737
15355WAT      O46306   0.999   9.615   3.769
15355WAT     H146307   1.018   9.638   3.674
15355WAT     H246308   1.082   9.579   3.812
15356WAT      O46309   1.192   6.359   5.737
15356WAT     H146310   1.292   6.359   5.736
15356WAT     H246311   1.159   6.450   5.709
15357WAT      O46312   5.528   3.503   6.549
15357WAT     H146313   5.628   3.499   6.550
15357WAT     H246314   5.491   3.411   6.537
15358WAT      O46315   9.619   5.701   1.769
15358WAT     H146316   9.643   5.610   1.734
15358WAT     H246317   9.664   5.716   1.857
15359WAT      O46318   0.924   2.935   3.822
15359WAT     H146319   0.893   3.026   3.847
15359WAT     H246320   0.885   2.909   3.734
15360WAT      O46321   8.806   7.773   6.147
15360WAT     H146322   8.811   7.675   6.127
15360WAT     H246323   8.882   7.799   6.207
15361WAT      O46324   2.020   6.828   4.630
15361WAT     H146325   2.117   6.813   4.650
15361WAT     H246326   2.005   6.925   4.613
15362WAT      O46327   8.757   5.794   3.255
15362WAT     H146328   8.779   5.840   3.342
15362WAT     H246329   8.726   5.863   3.189
15363WAT      O46330   8.313   0.200   2.542
15363WAT     H146331   8.220   0.199   2.505
15363WAT     H246332   8.341   0.106   2.563
15364WAT      O46333   4.042   6.935   0.648
15364WAT     H146334   4.119   6.983   0.606
15364WAT     H246335   4.011   6.986   0.728
15365WAT      O46336   5.244   2.595   5.480
15365WAT     H146337   5.309   2.625   5.410
15365WAT     H246338   5.190   2.518   5.446
15366WAT      O46339   3.181   0.450   2.886
15366WAT     H146340   3.204   0.546   2.866
15366WAT     H246341   3.139   0.409   2.806
15367WAT      O46342   7.201   8.450   9.321
15367WAT     H146343   7.207   8.478   9.225
15367WAT     H246344   7.229   8.526   9.380
15368WAT      O46345   3.739   3.019   0.090
15368WAT     H146346   3.833   2.989   0.078
15368WAT     H246347   3.692   3.019   0.001
15369WAT      O46348   4.793   4.394   8.452
15369WAT     H146349   4.736   4.316   8.425
15369WAT     H246350   4.736   4.464   8.495
15370WAT      O46351   3.770   2.607   5.242
15370WAT     H146352   3.851   2.608   5.183
15370WAT     H246353   3.704   2.674   5.207
15371WAT      O46354   7.749   5.809   6.860
15371WAT     H146355   7.782   5.804   6.765
15371WAT     H246356   7.805   5.749   6.917
15372WAT      O46357   6.036   4.447   0.582
15372WAT     H146358   5.971   4.518   0.610
15372WAT     H246359   6.055   4.456   0.485
15373WAT      O46360   4.715   3.064   9.200
15373WAT     H146361   4.664   3.060   9.286
15373WAT     H246362   4.660   3.110   9.130
15374WAT      O46363   9.064   5.519   1.723
15374WAT     H146364   9.056   5.619   1.721
15374WAT     H246365   9.088   5.489   1.815
15375WAT      O46366   2.037   4.576   1.804
15375WAT     H146367   2.087   4.650   1.759
15375WAT     H246368   2.019   4.502   1.738
15376WAT      O46369   5.801   8.269   5.326
15376WAT     H146370   5.827   8.354   5.372
15376WAT     H246371   5.724   8.227   5.374
15377WAT      O46372   6.185   0.715   0.565
15377WAT     H146373   6.104   0.759   0.526
15377WAT     H246374   6.257   0.784   0.579
15378WAT      O46375   8.646   2.207   5.612
15378WAT     H146376   8.725   2.171   5.661
15378WAT     H246377   8.581   2.245   5.678
15379WAT      O46378   0.427   6.765   7.765
15379WAT     H146379   0.490   6.712   7.823
15379WAT     H246380   0.408   6.853   7.808
15380WAT      O46381   5.767   8.708   0.451
15380WAT     H146382   5.691   8.715   0.386
15380WAT     H246383   5.853   8.716   0.402
15381WAT      O46384   6.478   2.574   1.769
15381WAT     H146385   6.387   2.544   1.797
15381WAT     H246386   6.516   2.635   1.838
15382WAT      O46387   6.388   0.297   3.994
15382WAT     H146388   6.302   0.333   4.031
15382WAT     H246389   6.398   0.202   4.021
15383WAT      O46390   4.057   3.916   5.691
15383WAT     H146391   4.009   3.830   5.671
15383WAT     H246392   4.139   3.922   5.634
15384WAT      O46393   1.713   1.336   2.770
15384WAT     H146394   1.649   1.408   2.798
15384WAT     H246395   1.718   1.332   2.671
15385WAT      O46396   3.671   3.760   8.119
15385WAT     H146397   3.746   3.775   8.184
15385WAT     H246398   3.597   3.825   8.138
15386WAT      O46399   1.422   2.118   1.183
15386WAT     H146400   1.395   2.118   1.087
15386WAT     H246401   1.463   2.206   1.206
15387WAT      O46402   5.166   9.361   6.110
15387WAT     H146403   5.101   9.352   6.185
15387WAT     H246404   5.159   9.452   6.070
15388WAT      O46405   5.099   1.733   8.192
15388WAT     H146406   5.064   1.821   8.225
15388WAT     H246407   5.057   1.712   8.104
15389WAT      O46408   7.023   0.720   8.668
15389WAT     H146409   6.956   0.778   8.622
15389WAT     H246410   7.002   0.715   8.765
15390WAT      O46411   2.832   5.397   9.147
15390WAT     H146412   2.734   5.384   9.129
15390WAT     H246413   2.872   5.309   9.172
15391WAT      O46414   9.170   3.424   7.412
15391WAT     H146415   9.140   3.495   7.477
15391WAT     H246416   9.267   3.438   7.391
15392WAT      O46417   4.105   7.586   9.094
15392WAT     H146418   4.190   7.630   9.065
15392WAT     H246419   4.121   7.488   9.105
15393WAT      O46420   8.044   8.685   6.403
15393WAT     H146421   8.044   8.654   6.308
15393WAT     H246422   8.136   8.711   6.430
15394WAT      O46423   0.639   4.652   9.876
15394WAT     H146424   0.662   4.598   9.795
15394WAT     H246425   0.690   4.738   9.875
15395WAT      O46426   3.247   4.303   1.897
15395WAT     H146427   3.179   4.246   1.850
15395WAT     H246428   3.321   4.325   1.835
15396WAT      O46429   1.362   6.887   7.319
15396WAT     H146430   1.416   6.872   7.402
15396WAT     H246431   1.409   6.952   7.259
15397WAT      O46432   8.571   0.674   9.696
15397WAT     H146433   8.633   0.749   9.719
15397WAT     H246434   8.557   0.617   9.777
15398WAT      O46435   0.633   9.297   5.446
15398WAT     H146436   0.674   9.208   5.464
15398WAT     H246437   0.682   9.367   5.499
15399WAT      O46438   8.845   8.339   8.151
15399WAT     H146439   8.786   8.415   8.178
15399WAT     H246440   8.789   8.267   8.109
15400WAT      O46441   1.728   3.011   9.575
15400WAT     H146442   1.689   3.102   9.562
15400WAT     H246443   1.807   3.016   9.636
15401WAT      O46444   2.864   4.713   3.257
15401WAT     H146445   2.912   4.700   3.170
15401WAT     H246446   2.815   4.801   3.255
15402WAT      O46447   2.510   3.790   4.251
15402WAT     H146448   2.466   3.845   4.322
15402WAT     H246449   2.608   3.811   4.249
15403WAT      O46450   2.427   8.054   9.480
15403WAT     H146451   2.471   8.033   9.567
15403WAT     H246452   2.492   8.101   9.420
15404WAT      O46453   7.730   8.842   3.681
15404WAT     H146454   7.660   8.842   3.752
15404WAT     H246455   7.713   8.766   3.617
15405WAT      O46456   5.262   0.098   4.487
15405WAT     H146457   5.208   0.084   4.404
15405WAT     H246458   5.294   0.010   4.522
15406WAT      O46459   1.536   2.989   5.569
15406WAT     H146460   1.618   2.955   5.523
15406WAT     H246461   1.499   2.918   5.629
15407WAT      O46462   1.105   0.594   3.981
15407WAT     H146463   1.177   0.533   4.014
15407WAT     H246464   1.022   0.580   4.035
15408WAT      O46465   3.406   9.272   0.213
15408WAT     H146466   3.348   9.273   0.131
15408WAT     H246467   3.484   9.211   0.198
15409WAT      O46468   7.167   4.546   4.474
15409WAT     H146469   7.075   4.567   4.509
15409WAT     H246470   7.182   4.447   4.478
15410WAT      O46471   1.084   1.762   1.550
15410WAT     H146472   1.057   1.848   1.508
15410WAT     H246473   1.100   1.775   1.647
15411WAT      O46474   5.426   9.332   0.275
15411WAT     H146475   5.405   9.359   0.369
15411WAT     H246476   5.364   9.258   0.247
15412WAT      O46477   4.238   6.348   8.707
15412WAT     H146478   4.206   6.284   8.776
15412WAT     H246479   4.309   6.305   8.651
15413WAT      O46480   6.555   1.512   5.601
15413WAT     H146481   6.629   1.449   5.625
15413WAT     H246482   6.573   1.552   5.511
15414WAT      O46483   5.026   4.873   4.309
15414WAT     H146484   5.072   4.804   4.253
15414WAT     H246485   5.087   4.951   4.323
15415WAT      O46486   6.997   6.865   2.204
15415WAT     H146487   7.095   6.884   2.218
15415WAT     H246488   6.944   6.909   2.276
15416WAT      O46489   0.179   2.555   2.184
15416WAT     H146490   0.198   2.559   2.282
15416WAT     H246491   0.228   2.478   2.144
15417WAT      O46492   5.179   9.071   7.184
15417WAT     H146493   5.097   9.014   7.173
15417WAT     H246494   5.230   9.073   7.099
15418WAT      O46495   6.252   6.645   8.738
15418WAT     H146496   6.327   6.579   8.732
15418WAT     H246497   6.166   6.599   8.712
15419WAT      O46498   0.106   9.354   5.122
15419WAT     H146499   0.101   9.365   5.221
15419WAT     H246500   0.116   9.443   5.079
15420WAT      O46501   5.326   6.154   3.332
15420WAT     H146502   5.266   6.212   3.387
15420WAT     H246503   5.290   6.149   3.238
15421WAT      O46504   1.511   4.965   9.733
15421WAT     H146505   1.551   4.900   9.668
15421WAT     H246506   1.511   5.056   9.693
15422WAT      O46507   6.075   0.984   1.826
15422WAT     H146508   6.152   1.034   1.786
15422WAT     H246509   6.051   1.026   1.914
15423WAT      O46510   4.760   6.009   6.893
15423WAT     H146511   4.676   5.979   6.847
15423WAT     H246512   4.741   6.025   6.990
15424WAT      O46513   4.270   8.750   3.771
15424WAT     H146514   4.233   8.826   3.718
15424WAT     H246515   4.350   8.781   3.823
15425WAT      O46516   9.166   1.261   5.765
15425WAT     H146517   9.231   1.190   5.737
15425WAT     H246518   9.133   1.241   5.857
15426WAT      O46519   7.690   9.326   6.757
15426WAT     H146520   7.684   9.230   6.786
15426WAT     H246521   7.610   9.376   6.791
15427WAT      O46522   3.431   6.205   4.766
15427WAT     H146523   3.422   6.196   4.667
15427WAT     H246524   3.418   6.116   4.809
15428WAT      O46525   0.351   9.624   3.332
15428WAT     H146526   0.369   9.531   3.366
15428WAT     H246527   0.411   9.688   3.379
15429WAT      O46528   2.634   6.936   9.159
15429WAT     H146529   2.684   6.989   9.228
15429WAT     H246530   2.537   6.960   9.163
15430WAT      O46531   9.457   8.944   3.489
15430WAT     H146532   9.525   9.014   3.510
15430WAT     H246533   9.492   8.883   3.418
15431WAT      O46534   9.470   6.110   0.618
15431WAT     H146535   9.558   6.107   0.667
15431WAT     H246536   9.477   6.174   0.541
15432WAT      O46537   4.401   7.488   2.198
15432WAT     H146538   4.455   7.427   2.256
15432WAT     H246539   4.381   7.572   2.249
15433WAT      O46540   9.754   8.030   4.185
15433WAT     H146541   9.713   7.939   4.194
15433WAT     H246542   9.854   8.021   4.182
15434WAT      O46543   4.196   8.041   4.256
15434WAT     H146544   4.243   8.091   4.329
15434WAT     H246545   4.211   7.943   4.268
15435WAT      O46546   8.846   0.823   3.017
15435WAT     H146547   8.847   0.887   2.939
15435WAT     H246548   8.899   0.741   2.994
15436WAT      O46549   9.837   2.016   5.276
15436WAT     H146550   9.773   2.075   5.325
15436WAT     H246551   9.826   1.922   5.307
15437WAT      O46552   2.964   9.078   4.945
15437WAT     H146553   2.927   9.113   5.031
15437WAT     H246554   3.062   9.095   4.941
15438WAT      O46555   6.020   1.129   8.734
15438WAT     H146556   5.937   1.181   8.716
15438WAT     H246557   6.056   1.093   8.648
15439WAT      O46558   9.161   2.256   8.867
15439WAT     H146559   9.184   2.261   8.770
15439WAT     H246560   9.130   2.164   8.890
15440WAT      O46561   2.342   0.477   2.641
15440WAT     H146562   2.295   0.461   2.727
15440WAT     H246563   2.322   0.569   2.608
15441WAT      O46564   3.704   9.838   0.954
15441WAT     H146565   3.716   9.897   1.034
15441WAT     H246566   3.791   9.831   0.904
15442WAT      O46567   0.715   0.679   2.478
15442WAT     H146568   0.722   0.596   2.533
15442WAT     H246569   0.691   0.756   2.537
15443WAT      O46570   2.270   1.432   2.851
15443WAT     H146571   2.196   1.494   2.827
15443WAT     H246572   2.262   1.348   2.797
15444WAT      O46573   6.381   2.026   3.964
15444WAT     H146574   6.337   1.940   3.988
15444WAT     H246575   6.364   2.094   4.036
15445WAT      O46576   6.029   8.986   0.287
15445WAT     H146577   5.967   9.031   0.352
15445WAT     H246578   5.990   8.898   0.258
15446WAT      O46579   0.965   8.464   6.196
15446WAT     H146580   0.971   8.517   6.112
15446WAT     H246581   0.944   8.369   6.174
15447WAT      O46582   4.756   7.052   5.434
15447WAT     H146583   4.656   7.046   5.437
15447WAT     H246584   4.789   7.105   5.512
15448WAT      O46585   5.636   2.455   8.684
15448WAT     H146586   5.692   2.529   8.722
15448WAT     H246587   5.690   2.403   8.618
15449WAT      O46588   1.655   4.741   8.032
15449WAT     H146589   1.730   4.804   8.010
15449WAT     H246590   1.693   4.655   8.066
15450WAT      O46591   9.256   9.838   5.748
15450WAT     H146592   9.355   9.832   5.761
15450WAT     H246593   9.219   9.745   5.741
15451WAT      O46594   7.566   3.208   6.129
15451WAT     H146595   7.629   3.274   6.088
15451WAT     H246596   7.610   3.163   6.207
15452WAT      O46597   9.329   8.834   1.791
15452WAT     H146598   9.241   8.872   1.820
15452WAT     H246599   9.351   8.754   1.848
15453WAT      O46600   1.832   7.700   6.804
15453WAT     H146601   1.754   7.760   6.825
15453WAT     H246602   1.804   7.605   6.811
15454WAT      O46603   0.458   1.117   9.272
15454WAT     H146604   0.424   1.079   9.358
15454WAT     H246605   0.442   1.215   9.270
15455WAT      O46606   6.993   2.328   4.919
15455WAT     H146607   7.071   2.269   4.944
15455WAT     H246608   7.023   2.397   4.853
15456WAT      O46609   8.395   4.881   2.993
15456WAT     H146610   8.305   4.856   3.029
15456WAT     H246611   8.384   4.939   2.912
15457WAT      O46612   2.925   2.043   9.569
15457WAT     H146613   2.991   2.055   9.494
15457WAT     H246614   2.913   2.130   9.616
15458WAT      O46615   4.477   3.016   6.910
15458WAT     H146616   4.488   2.990   6.814
15458WAT     H246617   4.420   3.098   6.916
15459WAT      O46618   7.227   3.447   2.159
15459WAT     H146619   7.308   3.502   2.137
15459WAT     H246620   7.249   3.350   2.148
15460WAT      O46621   4.833   4.532   3.116
15460WAT     H146622   4.913   4.472   3.109
15460WAT     H246623   4.799   4.553   3.025
15461WAT      O46624   3.303   7.305   0.520
15461WAT     H146625   3.376   7.296   0.452
15461WAT     H246626   3.233   7.235   0.503
15462WAT      O46627   6.747   7.488   2.520
15462WAT     H146628   6.714   7.513   2.611
15462WAT     H246629   6.842   7.519   2.509
15463WAT      O46630   2.698   3.022   6.301
15463WAT     H146631   2.707   3.117   6.331
15463WAT     H246632   2.768   3.002   6.233
15464WAT      O46633   3.365   5.997   9.086
15464WAT     H146634   3.266   5.997   9.070
15464WAT     H246635   3.394   6.088   9.114
15465WAT      O46636   0.355   4.182   5.168
15465WAT     H146637   0.387   4.174   5.263
15465WAT     H246638   0.264   4.141   5.161
15466WAT      O46639   8.305   5.663   2.192
15466WAT     H146640   8.270   5.757   2.186
15466WAT     H246641   8.233   5.603   2.227
15467WAT      O46642   6.948   5.195   5.404
15467WAT     H146643   6.937   5.215   5.307
15467WAT     H246644   7.015   5.122   5.416
15468WAT      O46645   1.840   9.525   4.225
15468WAT     H146646   1.754   9.512   4.176
15468WAT     H246647   1.915   9.529   4.158
15469WAT      O46648   6.620   0.900   5.677
15469WAT     H146649   6.604   0.998   5.692
15469WAT     H246650   6.684   0.888   5.601
15470WAT      O46651   2.476   5.922   2.506
15470WAT     H146652   2.461   5.849   2.572
15470WAT     H246653   2.511   5.884   2.420
15471WAT      O46654   1.977   5.353   1.656
15471WAT     H146655   2.012   5.321   1.568
15471WAT     H246656   1.996   5.451   1.667
15472WAT      O46657   0.870   6.550   5.106
15472WAT     H146658   0.964   6.580   5.091
15472WAT     H246659   0.816   6.562   5.023
15473WAT      O46660   2.366   1.171   1.278
15473WAT     H146661   2.449   1.171   1.333
15473WAT     H246662   2.304   1.242   1.313
15474WAT      O46663   4.192   1.680   7.572
15474WAT     H146664   4.112   1.722   7.615
15474WAT     H246665   4.218   1.732   7.491
15475WAT      O46666   9.456   0.894   4.474
15475WAT     H146667   9.373   0.924   4.428
15475WAT     H246668   9.535   0.913   4.416
15476WAT      O46669   2.959   7.518   2.675
15476WAT     H146670   2.873   7.488   2.632
15476WAT     H246671   3.036   7.497   2.615
15477WAT      O46672   1.039   4.511   5.113
15477WAT     H146673   1.086   4.598   5.098
15477WAT     H246674   1.020   4.468   5.024
15478WAT      O46675   9.307   9.517   6.708
15478WAT     H146676   9.360   9.520   6.792
15478WAT     H246677   9.284   9.422   6.685
15479WAT      O46678   4.833   0.922   5.717
15479WAT     H146679   4.793   0.882   5.799
15479WAT     H246680   4.764   0.977   5.669
15480WAT      O46681   5.357   8.693   5.515
15480WAT     H146682   5.390   8.607   5.475
15480WAT     H246683   5.299   8.673   5.594
15481WAT      O46684   4.779   1.098   3.708
15481WAT     H146685   4.691   1.053   3.725
15481WAT     H246686   4.845   1.069   3.777
15482WAT      O46687   8.569   7.790   6.292
15482WAT     H146688   8.655   7.794   6.241
15482WAT     H246689   8.545   7.883   6.322
15483WAT      O46690   9.409   8.699   0.733
15483WAT     H146691   9.477   8.764   0.768
15483WAT     H246692   9.456   8.618   0.698
15484WAT      O46693   8.447   6.740   8.523
15484WAT     H146694   8.486   6.814   8.578
15484WAT     H246695   8.380   6.778   8.459
15485WAT      O46696   2.665   3.081   7.409
15485WAT     H146697   2.605   3.161   7.413
15485WAT     H246698   2.751   3.102   7.454
15486WAT      O46699   1.109   1.424   9.660
15486WAT     H146700   1.035   1.360   9.680
15486WAT     H246701   1.170   1.429   9.738
15487WAT      O46702   6.197   2.111   2.557
15487WAT     H146703   6.193   2.026   2.504
15487WAT     H246704   6.109   2.127   2.601
15488WAT      O46705   9.407   3.164   3.406
15488WAT     H146706   9.430   3.255   3.371
15488WAT     H246707   9.329   3.171   3.469
15489WAT      O46708   1.369   3.420   9.267
15489WAT     H146709   1.377   3.508   9.315
15489WAT     H246710   1.284   3.419   9.215
15490WAT      O46711   3.790   5.783   6.411
15490WAT     H146712   3.781   5.741   6.320
15490WAT     H246713   3.715   5.846   6.426
15491WAT      O46714   3.674   0.235   4.326
15491WAT     H146715   3.701   0.140   4.313
15491WAT     H246716   3.717   0.292   4.256
15492WAT      O46717   4.002   2.970   0.029
15492WAT     H146718   4.073   3.038   0.046
15492WAT     H246719   4.007   2.938  -0.065
15493WAT      O46720   5.147   0.060   9.498
15493WAT     H146721   5.131   0.158   9.513
15493WAT     H246722   5.106   0.008   9.573
15494WAT      O46723   6.201   5.867   1.441
15494WAT     H146724   6.213   5.862   1.342
15494WAT     H246725   6.148   5.789   1.472
15495WAT      O46726   7.727   3.062   3.903
15495WAT     H146727   7.720   3.161   3.912
15495WAT     H246728   7.703   3.035   3.810
15496WAT      O46729   2.483   9.347   5.387
15496WAT     H146730   2.578   9.319   5.377
15496WAT     H246731   2.429   9.310   5.311
15497WAT      O46732   2.135   4.300   1.492
15497WAT     H146733   2.160   4.208   1.461
15497WAT     H246734   2.096   4.294   1.584
15498WAT      O46735   7.687   2.041   5.149
15498WAT     H146736   7.755   1.992   5.204
15498WAT     H246737   7.732   2.114   5.098
15499WAT      O46738   4.022   5.608   1.667
15499WAT     H146739   3.941   5.628   1.722
15499WAT     H246740   3.999   5.539   1.598
15500WAT      O46741   6.297   6.325   0.351
15500WAT     H146742   6.350   6.249   0.312
15500WAT     H246743   6.359   6.400   0.375
15501WAT      O46744   3.462   9.542   0.734
15501WAT     H146745   3.479   9.531   0.636
15501WAT     H246746   3.429   9.456   0.772
15502WAT      O46747   5.286   9.516   5.406
15502WAT     H146748   5.246   9.507   5.497
15502WAT     H246749   5.384   9.533   5.414
15503WAT      O46750   3.592   6.669   4.801
15503WAT     H146751   3.541   6.587   4.774
15503WAT     H246752   3.529   6.744   4.818
15504WAT      O46753   4.684   8.317   0.305
15504WAT     H146754   4.774   8.304   0.263
15504WAT     H246755   4.618   8.341   0.234
15505WAT      O46756   9.081   9.010   4.392
15505WAT     H146757   9.108   9.018   4.296
15505WAT     H246758   9.006   8.944   4.400
15506WAT      O46759   5.781   0.448   6.169
15506WAT     H146760   5.719   0.388   6.220
15506WAT     H246761   5.770   0.542   6.200
15507WAT      O46762   7.362   5.234   5.239
15507WAT     H146763   7.457   5.263   5.227
15507WAT     H246764   7.315   5.298   5.300
15508WAT      O46765   6.227   8.287   9.467
15508WAT     H146766   6.236   8.277   9.368
15508WAT     H246767   6.252   8.380   9.494
15509WAT      O46768   7.795   5.229   0.336
15509WAT     H146769   7.840   5.319   0.340
15509WAT     H246770   7.862   5.160   0.311
15510WAT      O46771   1.985   8.940   3.858
15510WAT     H146772   2.057   8.887   3.903
15510WAT     H246773   2.018   8.975   3.771
15511WAT      O46774   8.450   2.613   6.781
15511WAT     H146775   8.545   2.590   6.759
15511WAT     H246776   8.446   2.651   6.873
15512WAT      O46777   8.845   3.264   4.144
15512WAT     H146778   8.927   3.245   4.197
15512WAT     H246779   8.849   3.217   4.056
15513WAT      O46780   7.761   8.086   8.478
15513WAT     H146781   7.690   8.093   8.549
15513WAT     H246782   7.790   7.991   8.470
15514WAT      O46783   0.201   9.112   8.145
15514WAT     H146784   0.117   9.058   8.147
15514WAT     H246785   0.203   9.174   8.223
15515WAT      O46786   5.136   6.364   3.393
15515WAT     H146787   5.057   6.411   3.433
15515WAT     H246788   5.202   6.432   3.361
15516WAT      O46789   8.519   8.785   8.411
15516WAT     H146790   8.484   8.784   8.318
15516WAT     H246791   8.562   8.874   8.429
15517WAT      O46792   5.034   7.658   2.045
15517WAT     H146793   5.051   7.675   2.142
15517WAT     H246794   5.072   7.733   1.991
15518WAT      O46795   5.223   2.630   1.798
15518WAT     H146796   5.310   2.600   1.836
15518WAT     H246797   5.236   2.717   1.749
15519WAT      O46798   3.430   9.053   4.641
15519WAT     H146799   3.460   9.016   4.553
15519WAT     H246800   3.330   9.051   4.646
15520WAT      O46801   7.119   8.017   7.379
15520WAT     H146802   7.193   8.074   7.414
15520WAT     H246803   7.128   8.007   7.280
15521WAT      O46804   2.365   2.108   3.170
15521WAT     H146805   2.292   2.166   3.206
15521WAT     H246806   2.371   2.119   3.070
15522WAT      O46807   0.007   4.904   0.217
15522WAT     H146808  -0.036   4.979   0.268
15522WAT     H246809   0.012   4.929   0.120
15523WAT      O46810   3.993   5.346   4.517
15523WAT     H146811   3.976   5.373   4.423
15523WAT     H246812   3.924   5.280   4.546
15524WAT      O46813   6.077   8.154   4.404
15524WAT     H146814   6.056   8.057   4.398
15524WAT     H246815   6.171   8.166   4.435
15525WAT      O46816   5.197   2.344   3.667
15525WAT     H146817   5.207   2.263   3.610
15525WAT     H246818   5.103   2.349   3.701
15526WAT      O46819   6.552   2.093   1.863
15526WAT     H146820   6.565   2.150   1.944
15526WAT     H246821   6.526   2.000   1.891
15527WAT      O46822   3.251   2.015   8.078
15527WAT     H146823   3.214   2.008   7.985
15527WAT     H246824   3.191   1.967   8.141
15528WAT      O46825   7.452   6.612   5.460
15528WAT     H146826   7.399   6.648   5.382
15528WAT     H246827   7.550   6.625   5.442
15529WAT      O46828   3.796   6.967   9.177
15529WAT     H146829   3.817   6.870   9.185
15529WAT     H246830   3.754   6.999   9.261
15530WAT      O46831   7.059   7.264   9.353
15530WAT     H146832   6.967   7.239   9.383
15530WAT     H246833   7.052   7.319   9.269
15531WAT      O46834   1.706   7.743   1.318
15531WAT     H146835   1.708   7.662   1.260
15531WAT     H246836   1.799   7.780   1.327
15532WAT      O46837   7.405   8.599   4.581
15532WAT     H146838   7.341   8.676   4.585
15532WAT     H246839   7.376   8.536   4.509
15533WAT      O46840   6.666   2.689   5.143
15533WAT     H146841   6.754   2.721   5.178
15533WAT     H246842   6.631   2.617   5.202
15534WAT      O46843   6.183   9.784   7.566
15534WAT     H146844   6.239   9.854   7.522
15534WAT     H246845   6.227   9.695   7.555
15535WAT      O46846   9.481   4.315   3.357
15535WAT     H146847   9.572   4.355   3.362
15535WAT     H246848   9.483   4.222   3.393
15536WAT      O46849   2.689   5.410   0.944
15536WAT     H146850   2.780   5.374   0.922
15536WAT     H246851   2.696   5.507   0.968
15537WAT      O46852   3.937   4.652   8.967
15537WAT     H146853   4.008   4.589   8.997
15537WAT     H246854   3.906   4.626   8.875
15538WAT      O46855   5.640   5.404   0.781
15538WAT     H146856   5.713   5.417   0.714
15538WAT     H246857   5.586   5.324   0.755
15539WAT      O46858   5.569   5.080   8.642
15539WAT     H146859   5.488   5.129   8.673
15539WAT     H246860   5.546   4.983   8.628
15540WAT      O46861   5.082   1.259   0.367
15540WAT     H146862   5.127   1.328   0.310
15540WAT     H246863   4.987   1.248   0.336
15541WAT      O46864   8.945   3.856   0.681
15541WAT     H146865   8.972   3.784   0.616
15541WAT     H246866   8.924   3.940   0.631
15542WAT      O46867   2.239   7.710   8.893
15542WAT     H146868   2.186   7.755   8.821
15542WAT     H246869   2.336   7.722   8.875
15543WAT      O46870   1.677   2.567   8.073
15543WAT     H146871   1.667   2.479   8.029
15543WAT     H246872   1.645   2.639   8.012
15544WAT      O46873   8.163   2.115   5.817
15544WAT     H146874   8.196   2.208   5.835
15544WAT     H246875   8.219   2.074   5.745
15545WAT      O46876   5.931   8.410   1.111
15545WAT     H146877   5.896   8.496   1.147
15545WAT     H246878   5.877   8.334   1.148
15546WAT      O46879   6.267   7.938   5.667
15546WAT     H146880   6.232   8.022   5.708
15546WAT     H246881   6.363   7.950   5.642
15547WAT      O46882   9.760   0.264   8.520
15547WAT     H146883   9.851   0.276   8.559
15547WAT     H246884   9.754   0.317   8.435
15548WAT      O46885   1.990   3.790   0.384
15548WAT     H146886   2.011   3.702   0.341
15548WAT     H246887   2.001   3.782   0.483
15549WAT      O46888   5.106   8.288   6.665
15549WAT     H146889   5.137   8.196   6.644
15549WAT     H246890   5.108   8.344   6.582
15550WAT      O46891   1.929   3.613   4.707
15550WAT     H146892   1.912   3.558   4.626
15550WAT     H246893   1.850   3.671   4.725
15551WAT      O46894   3.897   5.153   2.821
15551WAT     H146895   3.962   5.189   2.755
15551WAT     H246896   3.905   5.202   2.907
15552WAT      O46897   3.545   1.614   2.945
15552WAT     H146898   3.604   1.533   2.938
15552WAT     H246899   3.550   1.666   2.859
15553WAT      O46900   0.909   9.270   0.414
15553WAT     H146901   0.876   9.212   0.488
15553WAT     H246902   0.832   9.303   0.360
15554WAT      O46903   1.335   7.105   5.059
15554WAT     H146904   1.375   7.184   5.014
15554WAT     H246905   1.297   7.132   5.147
15555WAT      O46906   6.256   0.610   8.035
15555WAT     H146907   6.321   0.597   8.110
15555WAT     H246908   6.177   0.662   8.068
15556WAT      O46909   6.006   4.697   5.018
15556WAT     H146910   5.985   4.792   4.996
15556WAT     H246911   5.936   4.637   4.978
15557WAT      O46912   1.425   3.413   0.893
15557WAT     H146913   1.367   3.369   0.962
15557WAT     H246914   1.415   3.512   0.900
15558WAT      O46915   3.667   1.613   6.550
15558WAT     H146916   3.575   1.574   6.553
15558WAT     H246917   3.715   1.579   6.469
15559WAT      O46918   7.735   5.566   0.376
15559WAT     H146919   7.758   5.605   0.465
15559WAT     H246920   7.818   5.525   0.337
15560WAT      O46921   6.136   9.565   3.174
15560WAT     H146922   6.233   9.589   3.163
15560WAT     H246923   6.089   9.639   3.221
15561WAT      O46924   5.617   6.108   0.554
15561WAT     H146925   5.578   6.188   0.600
15561WAT     H246926   5.557   6.029   0.566
15562WAT      O46927   8.650   2.416   5.379
15562WAT     H146928   8.676   2.350   5.449
15562WAT     H246929   8.669   2.509   5.411
15563WAT      O46930   7.408   2.754   5.744
15563WAT     H146931   7.404   2.854   5.744
15563WAT     H246932   7.457   2.723   5.663
15564WAT      O46933   6.872   9.404   2.570
15564WAT     H146934   6.875   9.485   2.511
15564WAT     H246935   6.913   9.425   2.658
15565WAT      O46936   9.112   4.191   8.356
15565WAT     H146937   9.101   4.100   8.397
15565WAT     H246938   9.166   4.183   8.272
15566WAT      O46939   6.598   4.625   4.891
15566WAT     H146940   6.511   4.673   4.897
15566WAT     H246941   6.586   4.541   4.839
15567WAT      O46942   8.771   7.646   2.011
15567WAT     H146943   8.745   7.663   1.916
15567WAT     H246944   8.845   7.707   2.037
15568WAT      O46945   9.320   5.480   8.436
15568WAT     H146946   9.341   5.577   8.429
15568WAT     H246947   9.401   5.426   8.412
15569WAT      O46948   2.802   6.977   9.611
15569WAT     H146949   2.725   6.925   9.648
15569WAT     H246950   2.879   6.973   9.675
15570WAT      O46951   7.572   1.404   6.837
15570WAT     H146952   7.621   1.318   6.839
15570WAT     H246953   7.487   1.396   6.890
15571WAT      O46954   5.330   7.642   1.431
15571WAT     H146955   5.356   7.629   1.527
15571WAT     H246956   5.368   7.568   1.376
15572WAT      O46957   7.400   0.110   0.662
15572WAT     H146958   7.467   0.163   0.713
15572WAT     H246959   7.447   0.048   0.599
15573WAT      O46960   9.281   4.608   4.028
15573WAT     H146961   9.296   4.546   4.104
15573WAT     H246962   9.223   4.565   3.959
15574WAT      O46963   0.179   0.577   4.333
15574WAT     H146964   0.124   0.543   4.257
15574WAT     H246965   0.274   0.585   4.305
15575WAT      O46966   6.448   5.302   7.480
15575WAT     H146967   6.480   5.272   7.570
15575WAT     H246968   6.351   5.329   7.487
15576WAT      O46969   6.562   2.820   0.467
15576WAT     H146970   6.594   2.754   0.535
15576WAT     H246971   6.638   2.847   0.408
15577WAT      O46972   3.064   1.175   6.781
15577WAT     H146973   3.006   1.144   6.856
15577WAT     H246974   3.136   1.108   6.763
15578WAT      O46975   4.766   2.211   4.878
15578WAT     H146976   4.722   2.290   4.921
15578WAT     H246977   4.749   2.213   4.779
15579WAT      O46978   7.366   7.364   9.781
15579WAT     H146979   7.361   7.460   9.808
15579WAT     H246980   7.282   7.339   9.733
15580WAT      O46981   9.560   4.568   5.067
15580WAT     H146982   9.523   4.641   5.125
15580WAT     H246983   9.657   4.585   5.050
15581WAT      O46984   6.681   4.158   9.122
15581WAT     H146985   6.594   4.159   9.172
15581WAT     H246986   6.691   4.244   9.071
15582WAT      O46987   7.554   1.026   9.675
15582WAT     H146988   7.506   1.103   9.718
15582WAT     H246989   7.500   0.943   9.688
15583WAT      O46990   3.257   5.971   3.904
15583WAT     H146991   3.183   6.037   3.889
15583WAT     H246992   3.232   5.883   3.865
15584WAT      O46993   9.490   5.501   7.336
15584WAT     H146994   9.525   5.412   7.307
15584WAT     H246995   9.392   5.492   7.357
15585WAT      O46996   0.298   0.070   6.508
15585WAT     H146997   0.291   0.045   6.411
15585WAT     H246998   0.369   0.139   6.519
15586WAT      O46999   5.204   1.237   6.852
15586WAT     H147000   5.248   1.312   6.802
15586WAT     H247001   5.121   1.210   6.803
15587WAT      O47002   0.386   0.908   2.191
15587WAT     H147003   0.372   0.829   2.131
15587WAT     H247004   0.391   0.878   2.286
15588WAT      O47005   0.702   2.139   2.073
15588WAT     H147006   0.608   2.136   2.040
15588WAT     H247007   0.764   2.105   2.002
15589WAT      O47008   3.309   4.559   3.651
15589WAT     H147009   3.348   4.623   3.585
15589WAT     H247010   3.295   4.470   3.606
15590WAT      O47011   3.291   6.793   4.227
15590WAT     H147012   3.311   6.889   4.245
15590WAT     H247013   3.342   6.735   4.291
15591WAT      O47014   1.656   2.986   0.191
15591WAT     H147015   1.746   2.951   0.163
15591WAT     H247016   1.610   2.916   0.246
15592WAT      O47017   4.733   8.098   0.014
15592WAT     H147018   4.804   8.164   0.039
15592WAT     H247019   4.665   8.143  -0.044
15593WAT      O47020   7.656   2.684   3.881
15593WAT     H147021   7.666   2.694   3.782
15593WAT     H247022   7.712   2.753   3.927
15594WAT      O47023   2.722   5.400   5.099
15594WAT     H147024   2.668   5.373   5.178
15594WAT     H247025   2.798   5.336   5.086
15595WAT      O47026   5.402   8.675   2.476
15595WAT     H147027   5.357   8.758   2.509
15595WAT     H247028   5.498   8.694   2.457
15596WAT      O47029   9.100   2.739   7.350
15596WAT     H147030   9.056   2.817   7.305
15596WAT     H247031   9.168   2.771   7.415
15597WAT      O47032   5.878   5.016   5.470
15597WAT     H147033   5.887   4.917   5.463
15597WAT     H247034   5.947   5.051   5.533
15598WAT      O47035   8.051   9.100   8.730
15598WAT     H147036   8.079   9.195   8.737
15598WAT     H247037   7.957   9.094   8.697
15599WAT      O47038   2.715   9.246   7.661
15599WAT     H147039   2.659   9.174   7.620
15599WAT     H247040   2.711   9.239   7.761
15600WAT      O47041   2.810   3.626   7.694
15600WAT     H147042   2.905   3.657   7.690
15600WAT     H247043   2.757   3.674   7.624
15601WAT      O47044   3.010   2.373   7.491
15601WAT     H147045   2.929   2.326   7.526
15601WAT     H247046   2.989   2.469   7.476
15602WAT      O47047   3.550   1.800   8.846
15602WAT     H147048   3.568   1.845   8.758
15602WAT     H247049   3.468   1.840   8.887
15603WAT      O47050   7.187   2.323   2.740
15603WAT     H147051   7.095   2.363   2.737
15603WAT     H247052   7.207   2.278   2.654
15604WAT      O47053   8.817   4.895   7.924
15604WAT     H147054   8.724   4.925   7.944
15604WAT     H247055   8.813   4.811   7.870
15605WAT      O47056   8.439   1.109   3.597
15605WAT     H147057   8.510   1.067   3.541
15605WAT     H247058   8.349   1.086   3.560
15606WAT      O47059   5.329   6.051   1.913
15606WAT     H147060   5.390   5.974   1.934
15606WAT     H247061   5.334   6.072   1.815
15607WAT      O47062   0.406   1.390   5.923
15607WAT     H147063   0.327   1.344   5.964
15607WAT     H247064   0.400   1.384   5.823
15608WAT      O47065   5.602   1.778   7.368
15608WAT     H147066   5.550   1.702   7.407
15608WAT     H247067   5.541   1.855   7.352
15609WAT      O47068   8.371   5.224   9.544
15609WAT     H147069   8.282   5.233   9.499
15609WAT     H247070   8.431   5.299   9.515
15610WAT      O47071   3.800   9.589   1.555
15610WAT     H147072   3.839   9.650   1.624
15610WAT     H247073   3.870   9.524   1.524
15611WAT      O47074   0.738   4.390   5.689
15611WAT     H147075   0.747   4.450   5.610
15611WAT     H247076   0.748   4.295   5.660
15612WAT      O47077   2.751   6.938   8.525
15612WAT     H147078   2.729   6.841   8.513
15612WAT     H247079   2.685   6.993   8.474
15613WAT      O47080   5.981   1.323   6.363
15613WAT     H147081   5.949   1.270   6.284
15613WAT     H247082   6.064   1.282   6.399
15614WAT      O47083   8.609   1.952   1.958
15614WAT     H147084   8.567   1.967   1.868
15614WAT     H247085   8.537   1.935   2.026
15615WAT      O47086   0.065   4.437   8.443
15615WAT     H147087   0.132   4.384   8.494
15615WAT     H247088   0.077   4.423   8.345
15616WAT      O47089   7.287   7.677   8.385
15616WAT     H147090   7.249   7.763   8.353
15616WAT     H247091   7.325   7.689   8.477
15617WAT      O47092   3.878   5.916   5.699
15617WAT     H147093   3.782   5.935   5.676
15617WAT     H247094   3.882   5.842   5.765
15618WAT      O47095   1.766   1.284   0.964
15618WAT     H147096   1.850   1.271   1.017
15618WAT     H247097   1.788   1.285   0.867
15619WAT      O47098   9.361   3.320   0.807
15619WAT     H147099   9.416   3.251   0.759
15619WAT     H247100   9.361   3.405   0.755
15620WAT      O47101   2.200   9.798   9.355
15620WAT     H147102   2.229   9.744   9.434
15620WAT     H247103   2.230   9.752   9.271
15621WAT      O47104   6.275   4.258   7.303
15621WAT     H147105   6.356   4.263   7.245
15621WAT     H247106   6.294   4.202   7.383
15622WAT      O47107   7.498   3.504   2.848
15622WAT     H147108   7.429   3.515   2.776
15622WAT     H247109   7.570   3.442   2.816
15623WAT      O47110   6.648   5.516   5.747
15623WAT     H147111   6.674   5.514   5.843
15623WAT     H247112   6.589   5.438   5.727
15624WAT      O47113   0.459   0.563   4.300
15624WAT     H147114   0.473   0.610   4.213
15624WAT     H247115   0.548   0.539   4.340
15625WAT      O47116   8.560   2.005   7.359
15625WAT     H147117   8.486   1.943   7.329
15625WAT     H247118   8.552   2.092   7.311
15626WAT      O47119   0.908   5.747   9.563
15626WAT     H147120   0.921   5.769   9.466
15626WAT     H247121   0.810   5.751   9.585
15627WAT      O47122   2.792   5.673   1.005
15627WAT     H147123   2.847   5.712   0.931
15627WAT     H247124   2.823   5.709   1.093
15628WAT      O47125   5.145   5.724   3.563
15628WAT     H147126   5.174   5.700   3.656
15628WAT     H247127   5.192   5.808   3.534
15629WAT      O47128   2.531   6.976   8.834
15629WAT     H147129   2.617   6.974   8.783
15629WAT     H247130   2.538   6.917   8.914
15630WAT      O47131   7.870   2.393   9.480
15630WAT     H147132   7.873   2.325   9.407
15630WAT     H247133   7.896   2.351   9.567
15631WAT      O47134   5.073   8.401   1.807
15631WAT     H147135   5.007   8.328   1.790
15631WAT     H247136   5.059   8.438   1.899
15632WAT      O47137   6.457   8.221   7.562
15632WAT     H147138   6.543   8.179   7.591
15632WAT     H247139   6.386   8.201   7.630
15633WAT      O47140   2.066   0.815   5.884
15633WAT     H147141   2.034   0.783   5.973
15633WAT     H247142   2.013   0.772   5.811
15634WAT      O47143   2.417   5.985   0.804
15634WAT     H147144   2.441   5.887   0.804
15634WAT     H247145   2.491   6.037   0.760
15635WAT      O47146   4.880   3.969   0.625
15635WAT     H147147   4.897   4.065   0.645
15635WAT     H247148   4.936   3.940   0.547
15636WAT      O47149   5.524   8.644   3.949
15636WAT     H147150   5.589   8.647   3.873
15636WAT     H247151   5.461   8.568   3.937
15637WAT      O47152   0.511   3.277   7.964
15637WAT     H147153   0.602   3.258   7.999
15637WAT     H247154   0.446   3.279   8.039
15638WAT      O47155   7.185   0.269   5.314
15638WAT     H147156   7.278   0.305   5.314
15638WAT     H247157   7.122   0.338   5.348
15639WAT      O47158   0.355   3.829   9.156
15639WAT     H147159   0.332   3.817   9.252
15639WAT     H247160   0.415   3.908   9.145
15640WAT      O47161   9.558   9.699   6.017
15640WAT     H147162   9.630   9.631   6.022
15640WAT     H247163   9.503   9.696   6.100
15641WAT      O47164   6.334   7.964   8.634
15641WAT     H147165   6.290   7.886   8.678
15641WAT     H247166   6.287   7.987   8.550
15642WAT      O47167   9.771   1.032   4.101
15642WAT     H147168   9.733   1.107   4.047
15642WAT     H247169   9.848   1.067   4.156
15643WAT      O47170   0.651   8.691   8.605
15643WAT     H147171   0.742   8.686   8.563
15643WAT     H247172   0.585   8.721   8.536
15644WAT      O47173   5.462   6.982   3.215
15644WAT     H147174   5.387   7.000   3.278
15644WAT     H247175   5.525   6.916   3.257
15645WAT      O47176   1.158   2.146   7.801
15645WAT     H147177   1.081   2.209   7.786
15645WAT     H247178   1.136   2.083   7.875
15646WAT      O47179   0.711   7.359   0.779
15646WAT     H147180   0.645   7.294   0.740
15646WAT     H247181   0.803   7.322   0.772
15647WAT      O47182   5.235   1.457   8.848
15647WAT     H147183   5.258   1.553   8.862
15647WAT     H247184   5.233   1.409   8.936
15648WAT      O47185   5.045   4.951   9.767
15648WAT     H147186   5.094   4.988   9.688
15648WAT     H247187   5.009   5.025   9.823
15649WAT      O47188   6.053   6.033   0.408
15649WAT     H147189   6.134   6.073   0.453
15649WAT     H247190   6.057   5.933   0.416
15650WAT      O47191   2.131   5.957   2.425
15650WAT     H147192   2.154   5.873   2.377
15650WAT     H247193   2.214   6.011   2.441
15651WAT      O47194   8.939   7.631   7.140
15651WAT     H147195   8.854   7.664   7.181
15651WAT     H247196   8.997   7.591   7.211
15652WAT      O47197   8.815   3.117   1.392
15652WAT     H147198   8.860   3.181   1.454
15652WAT     H247199   8.717   3.114   1.412
15653WAT      O47200   4.762   1.468   6.005
15653WAT     H147201   4.845   1.423   6.039
15653WAT     H247202   4.781   1.513   5.918
15654WAT      O47203   0.701   4.246   1.340
15654WAT     H147204   0.713   4.215   1.246
15654WAT     H247205   0.648   4.178   1.391
15655WAT      O47206   6.664   9.759   5.165
15655WAT     H147207   6.621   9.809   5.241
15655WAT     H247208   6.709   9.677   5.200
15656WAT      O47209   2.102   5.254   7.177
15656WAT     H147210   2.167   5.305   7.121
15656WAT     H247211   2.135   5.249   7.271
15657WAT      O47212   1.519   6.838   5.119
15657WAT     H147213   1.456   6.912   5.096
15657WAT     H247214   1.548   6.847   5.214
15658WAT      O47215   4.940   3.504   6.350
15658WAT     H147216   4.988   3.453   6.278
15658WAT     H247217   5.000   3.576   6.385
15659WAT      O47218   1.203   8.531   8.346
15659WAT     H147219   1.196   8.561   8.441
15659WAT     H247220   1.290   8.562   8.307
15660WAT      O47221   0.379   2.030   5.217
15660WAT     H147222   0.474   2.039   5.186
15660WAT     H247223   0.332   1.965   5.158
15661WAT      O47224   9.259   2.366   8.128
15661WAT     H147225   9.304   2.393   8.043
15661WAT     H247226   9.329   2.353   8.199
15662WAT      O47227   7.794   8.427   0.557
15662WAT     H147228   7.747   8.465   0.637
15662WAT     H247229   7.829   8.501   0.500
15663WAT      O47230   1.560   1.018   4.036
15663WAT     H147231   1.521   0.975   4.117
15663WAT     H247232   1.487   1.049   3.975
15664WAT      O47233   4.995   8.646   7.840
15664WAT     H147234   5.019   8.558   7.880
15664WAT     H247235   5.045   8.719   7.888
15665WAT      O47236   3.231   7.525   4.357
15665WAT     H147237   3.132   7.517   4.366
15665WAT     H247238   3.271   7.545   4.447
15666WAT      O47239   4.749   3.819   0.121
15666WAT     H147240   4.774   3.890   0.187
15666WAT     H247241   4.762   3.729   0.163
15667WAT      O47242   0.064   4.053   8.188
15667WAT     H147243   0.099   4.072   8.280
15667WAT     H247244   0.101   4.119   8.123
15668WAT      O47245   5.866   2.585   9.862
15668WAT     H147246   5.845   2.544   9.952
15668WAT     H247247   5.929   2.661   9.875
15669WAT      O47248   5.013   7.268   0.010
15669WAT     H147249   4.919   7.293   0.035
15669WAT     H247250   5.022   7.169   0.007
15670WAT      O47251   8.624   4.661   7.250
15670WAT     H147252   8.603   4.651   7.152
15670WAT     H247253   8.706   4.607   7.271
15671WAT      O47254   4.391   2.334   7.359
15671WAT     H147255   4.345   2.347   7.447
15671WAT     H247256   4.483   2.373   7.364
15672WAT      O47257   6.546   8.820   7.231
15672WAT     H147258   6.451   8.826   7.201
15672WAT     H247259   6.551   8.827   7.330
15673WAT      O47260   5.353   4.389   9.655
15673WAT     H147261   5.316   4.368   9.745
15673WAT     H247262   5.304   4.336   9.585
15674WAT      O47263   1.309   9.330   1.363
15674WAT     H147264   1.218   9.295   1.382
15674WAT     H247265   1.360   9.339   1.449
15675WAT      O47266   3.832   0.473   4.529
15675WAT     H147267   3.841   0.566   4.563
15675WAT     H247268   3.743   0.436   4.555
15676WAT      O47269   5.935   8.423   1.464
15676WAT     H147270   5.893   8.349   1.411
15676WAT     H247271   6.006   8.467   1.408
15677WAT      O47272   4.345   5.995   3.443
15677WAT     H147273   4.378   6.081   3.405
15677WAT     H247274   4.395   5.919   3.402
15678WAT      O47275   6.153   1.163   9.287
15678WAT     H147276   6.172   1.243   9.230
15678WAT     H247277   6.056   1.160   9.310
15679WAT      O47278   5.889   5.097   7.311
15679WAT     H147279   5.878   5.190   7.276
15679WAT     H247280   5.800   5.060   7.337
15680WAT      O47281   4.448   8.323   0.610
15680WAT     H147282   4.372   8.388   0.613
15680WAT     H247283   4.440   8.259   0.687
15681WAT      O47284   2.927   7.452   6.370
15681WAT     H147285   2.832   7.474   6.348
15681WAT     H247286   2.948   7.360   6.337
15682WAT      O47287   4.507   9.301   1.911
15682WAT     H147288   4.590   9.252   1.937
15682WAT     H247289   4.530   9.391   1.873
15683WAT      O47290   8.117   4.774   0.170
15683WAT     H147291   8.142   4.706   0.239
15683WAT     H247292   8.196   4.831   0.148
15684WAT      O47293   7.081   8.081   4.407
15684WAT     H147294   7.037   7.997   4.440
15684WAT     H247295   7.167   8.095   4.457
15685WAT      O47296   0.191   8.610   4.439
15685WAT     H147297   0.209   8.525   4.489
15685WAT     H247298   0.278   8.655   4.418
15686WAT      O47299   8.724   4.204   3.337
15686WAT     H147300   8.774   4.155   3.408
15686WAT     H247301   8.775   4.285   3.310
15687WAT      O47302   6.455   5.391   1.215
15687WAT     H147303   6.405   5.317   1.171
15687WAT     H247304   6.501   5.446   1.145
15688WAT      O47305   5.061   9.278   4.687
15688WAT     H147306   5.124   9.279   4.765
15688WAT     H247307   5.044   9.184   4.658
15689WAT      O47308   3.710   0.559   9.027
15689WAT     H147309   3.627   0.590   9.073
15689WAT     H247310   3.686   0.519   8.939
15690WAT      O47311   3.713   1.389   2.874
15690WAT     H147312   3.798   1.395   2.822
15690WAT     H247313   3.643   1.342   2.819
15691WAT      O47314   8.827   8.152   3.285
15691WAT     H147315   8.741   8.133   3.238
15691WAT     H247316   8.883   8.214   3.229
15692WAT      O47317   0.311   2.896   0.208
15692WAT     H147318   0.315   2.829   0.282
15692WAT     H247319   0.332   2.987   0.244
15693WAT      O47320   5.038   3.481   9.365
15693WAT     H147321   4.985   3.415   9.312
15693WAT     H247322   5.005   3.483   9.459
15694WAT      O47323   0.707   2.786   5.077
15694WAT     H147324   0.636   2.764   5.143
15694WAT     H247325   0.669   2.780   4.984
15695WAT      O47326   9.442   8.570   7.734
15695WAT     H147327   9.531   8.585   7.691
15695WAT     H247328   9.377   8.535   7.667
15696WAT      O47329   5.483   5.387   4.464
15696WAT     H147330   5.534   5.473   4.470
15696WAT     H247331   5.523   5.330   4.392
15697WAT      O47332   8.004   4.074   3.060
15697WAT     H147333   7.915   4.057   3.017
15697WAT     H247334   7.990   4.117   3.149
15698WAT      O47335   8.000   9.748   4.525
15698WAT     H147336   7.961   9.709   4.608
15698WAT     H247337   7.931   9.753   4.454
15699WAT      O47338   8.589   5.958   7.211
15699WAT     H147339   8.584   6.052   7.177
15699WAT     H247340   8.666   5.912   7.168
15700WAT      O47341   3.246   3.301   3.674
15700WAT     H147342   3.326   3.286   3.615
15700WAT     H247343   3.221   3.216   3.719
15701WAT      O47344   5.375   3.142   0.093
15701WAT     H147345   5.354   3.072   0.025
15701WAT     H247346   5.362   3.104   0.185
15702WAT      O47347   8.999   8.506   9.774
15702WAT     H147348   8.992   8.460   9.862
15702WAT     H247349   9.090   8.492   9.736
15703WAT      O47350   1.837   4.920   4.759
15703WAT     H147351   1.867   4.959   4.846
15703WAT     H247352   1.813   4.824   4.771
15704WAT      O47353   9.613   8.136   6.755
15704WAT     H147354   9.602   8.098   6.847
15704WAT     H247355   9.644   8.231   6.762
15705WAT      O47356   2.431   8.482   1.953
15705WAT     H147357   2.407   8.433   1.869
15705WAT     H247358   2.349   8.496   2.009
15706WAT      O47359   4.009   7.880   7.675
15706WAT     H147360   4.100   7.849   7.702
15706WAT     H247361   3.948   7.801   7.665
15707WAT      O47362   1.415   1.270   9.637
15707WAT     H147363   1.361   1.206   9.583
15707WAT     H247364   1.355   1.330   9.690
15708WAT      O47365   1.644   7.633   5.563
15708WAT     H147366   1.544   7.640   5.560
15708WAT     H247367   1.671   7.573   5.638
15709WAT      O47368   8.444   9.634   9.791
15709WAT     H147369   8.363   9.588   9.826
15709WAT     H247370   8.448   9.727   9.826
15710WAT      O47371   1.900   1.858   7.692
15710WAT     H147372   1.853   1.841   7.779
15710WAT     H247373   1.966   1.785   7.675
15711WAT      O47374   4.590   3.913   0.665
15711WAT     H147375   4.680   3.942   0.699
15711WAT     H247376   4.600   3.829   0.612
15712WAT      O47377   6.857   1.095   1.634
15712WAT     H147378   6.937   1.054   1.677
15712WAT     H247379   6.886   1.168   1.573
15713WAT      O47380   2.423   8.049   4.194
15713WAT     H147381   2.425   8.148   4.181
15713WAT     H247382   2.503   8.008   4.150
15714WAT      O47383   2.720   8.704   2.787
15714WAT     H147384   2.690   8.708   2.882
15714WAT     H247385   2.649   8.744   2.728
15715WAT      O47386   4.178   1.920   3.394
15715WAT     H147387   4.272   1.916   3.425
15715WAT     H247388   4.166   1.997   3.331
15716WAT      O47389   1.476   3.855   5.597
15716WAT     H147390   1.490   3.790   5.523
15716WAT     H247391   1.564   3.873   5.642
15717WAT      O47392   4.829   5.262   7.047
15717WAT     H147393   4.808   5.359   7.033
15717WAT     H247394   4.745   5.213   7.072
15718WAT      O47395   2.636   4.453   1.541
15718WAT     H147396   2.576   4.389   1.494
15718WAT     H247397   2.672   4.411   1.624
15719WAT      O47398   5.669   4.375   6.312
15719WAT     H147399   5.705   4.299   6.258
15719WAT     H247400   5.603   4.426   6.257
15720WAT      O47401   2.313   3.603   8.209
15720WAT     H147402   2.220   3.635   8.189
15720WAT     H247403   2.324   3.592   8.308
15721WAT      O47404   5.196   2.580   0.910
15721WAT     H147405   5.238   2.631   0.985
15721WAT     H247406   5.102   2.610   0.897
15722WAT      O47407   7.035   3.581   3.107
15722WAT     H147408   6.995   3.489   3.112
15722WAT     H247409   7.132   3.574   3.086
15723WAT      O47410   5.437   5.216   7.865
15723WAT     H147411   5.520   5.219   7.809
15723WAT     H247412   5.371   5.283   7.829
15724WAT      O47413   6.516   9.384   4.199
15724WAT     H147414   6.602   9.407   4.154
15724WAT     H247415   6.499   9.448   4.274
15725WAT      O47416   1.114   2.119   5.932
15725WAT     H147417   1.207   2.116   5.969
15725WAT     H247418   1.069   2.032   5.949
15726WAT      O47419   5.149   3.974   6.619
15726WAT     H147420   5.163   3.905   6.690
15726WAT     H247421   5.204   3.950   6.539
15727WAT      O47422   0.342   4.975   3.842
15727WAT     H147423   0.258   4.934   3.876
15727WAT     H247424   0.334   4.993   3.744
15728WAT      O47425   1.492   5.385   1.085
15728WAT     H147426   1.506   5.465   1.143
15728WAT     H247427   1.430   5.322   1.131
15729WAT      O47428   1.735   3.197   5.084
15729WAT     H147429   1.661   3.233   5.028
15729WAT     H247430   1.811   3.169   5.026
15730WAT      O47431   1.962   2.494   2.143
15730WAT     H147432   2.030   2.493   2.217
15730WAT     H247433   1.917   2.584   2.140
15731WAT      O47434   1.600   1.066   3.146
15731WAT     H147435   1.586   1.014   3.230
15731WAT     H247436   1.604   1.003   3.068
15732WAT      O47437   2.532   2.511   8.885
15732WAT     H147438   2.595   2.548   8.953
15732WAT     H247439   2.452   2.473   8.931
15733WAT      O47440   6.150   3.599   2.443
15733WAT     H147441   6.091   3.530   2.401
15733WAT     H247442   6.140   3.596   2.542
15734WAT      O47443   5.641   5.890   2.723
15734WAT     H147444   5.656   5.968   2.784
15734WAT     H247445   5.617   5.923   2.632
15735WAT      O47446   8.393   6.724   0.189
15735WAT     H147447   8.478   6.679   0.217
15735WAT     H247448   8.378   6.707   0.092
15736WAT      O47449   0.919   8.586   0.106
15736WAT     H147450   1.016   8.587   0.081
15736WAT     H247451   0.886   8.491   0.105
15737WAT      O47452   2.162   2.065   5.209
15737WAT     H147453   2.114   2.151   5.191
15737WAT     H247454   2.117   1.991   5.159
15738WAT      O47455   4.101   7.768   4.921
15738WAT     H147456   4.075   7.674   4.900
15738WAT     H247457   4.020   7.826   4.919
15739WAT      O47458   3.243   4.527   6.547
15739WAT     H147459   3.200   4.615   6.523
15739WAT     H247460   3.177   4.468   6.591
15740WAT      O47461   2.525   1.367   3.986
15740WAT     H147462   2.453   1.436   3.997
15740WAT     H247463   2.489   1.277   4.012
15741WAT      O47464   0.148   8.239   4.503
15741WAT     H147465   0.115   8.212   4.593
15741WAT     H247466   0.070   8.259   4.443
15742WAT      O47467   5.638   5.889   8.662
15742WAT     H147468   5.594   5.831   8.593
15742WAT     H247469   5.620   5.985   8.640
15743WAT      O47470   1.368   8.107   4.142
15743WAT     H147471   1.346   8.204   4.152
15743WAT     H247472   1.433   8.080   4.213
15744WAT      O47473   0.770   0.049   5.828
15744WAT     H147474   0.774  -0.009   5.909
15744WAT     H247475   0.717   0.002   5.756
15745WAT      O47476   8.016   4.350   7.325
15745WAT     H147477   8.089   4.292   7.288
15745WAT     H247478   8.032   4.366   7.422
15746WAT      O47479   0.647   7.609   0.899
15746WAT     H147480   0.666   7.523   0.850
15746WAT     H247481   0.678   7.686   0.844
15747WAT      O47482   8.561   2.144   4.861
15747WAT     H147483   8.472   2.190   4.859
15747WAT     H247484   8.633   2.210   4.842
15748WAT      O47485   2.835   2.360   9.209
15748WAT     H147486   2.876   2.396   9.293
15748WAT     H247487   2.747   2.317   9.231
15749WAT      O47488   9.777   0.198   3.286
15749WAT     H147489   9.863   0.169   3.243
15749WAT     H247490   9.720   0.243   3.217
15750WAT      O47491   5.123   1.682   3.365
15750WAT     H147492   5.185   1.667   3.442
15750WAT     H247493   5.100   1.594   3.323
15751WAT      O47494   2.928   3.041   2.074
15751WAT     H147495   2.871   2.971   2.117
15751WAT     H247496   3.014   3.001   2.044
15752WAT      O47497   3.892   2.874   6.846
15752WAT     H147498   3.878   2.804   6.776
15752WAT     H247499   3.813   2.936   6.846
15753WAT      O47500   0.180   2.068   9.001
15753WAT     H147501   0.258   2.039   8.945
15753WAT     H247502   0.212   2.095   9.091
15754WAT      O47503   1.781   7.486   3.454
15754WAT     H147504   1.878   7.465   3.447
15754WAT     H247505   1.742   7.437   3.532
15755WAT      O47506   3.726   6.563   0.434
15755WAT     H147507   3.723   6.467   0.464
15755WAT     H247508   3.812   6.604   0.463
15756WAT      O47509   3.340   4.243   9.737
15756WAT     H147510   3.409   4.175   9.765
15756WAT     H247511   3.355   4.328   9.787
15757WAT      O47512   1.404   1.241   7.500
15757WAT     H147513   1.363   1.325   7.463
15757WAT     H247514   1.434   1.183   7.424
15758WAT      O47515   8.100   6.103   6.284
15758WAT     H147516   8.175   6.147   6.332
15758WAT     H247517   8.133   6.022   6.237
15759WAT      O47518   4.754   2.125   9.389
15759WAT     H147519   4.801   2.037   9.385
15759WAT     H247520   4.821   2.198   9.373
15760WAT      O47521   0.726   6.277   3.716
15760WAT     H147522   0.708   6.375   3.703
15760WAT     H247523   0.657   6.225   3.666
15761WAT      O47524   3.392   6.227   7.326
15761WAT     H147525   3.327   6.298   7.299
15761WAT     H247526   3.426   6.181   7.245
15762WAT      O47527   6.428   1.443   4.491
15762WAT     H147528   6.482   1.516   4.448
15762WAT     H247529   6.372   1.398   4.422
15763WAT      O47530   1.436   5.590   5.041
15763WAT     H147531   1.352   5.550   5.078
15763WAT     H247532   1.435   5.689   5.054
15764WAT      O47533   0.285   0.806   8.257
15764WAT     H147534   0.204   0.840   8.305
15764WAT     H247535   0.349   0.767   8.324
15765WAT      O47536   9.057   7.374   7.863
15765WAT     H147537   9.085   7.347   7.770
15765WAT     H247538   9.126   7.433   7.904
15766WAT      O47539   3.482   4.258   7.357
15766WAT     H147540   3.503   4.354   7.341
15766WAT     H247541   3.409   4.228   7.295
15767WAT      O47542   7.248   3.055   0.685
15767WAT     H147543   7.340   3.039   0.649
15767WAT     H247544   7.249   3.044   0.785
15768WAT      O47545   5.896   1.402   1.624
15768WAT     H147546   5.834   1.331   1.590
15768WAT     H247547   5.875   1.489   1.580
15769WAT      O47548   8.897   0.066   0.307
15769WAT     H147549   8.945   0.059   0.220
15769WAT     H247550   8.837  -0.013   0.318
15770WAT      O47551   3.353   4.839   5.745
15770WAT     H147552   3.423   4.908   5.766
15770WAT     H247553   3.352   4.823   5.646
15771WAT      O47554   7.214   8.848   6.447
15771WAT     H147555   7.163   8.912   6.503
15771WAT     H247556   7.240   8.892   6.361
15772WAT      O47557   5.557   3.261   9.519
15772WAT     H147558   5.556   3.305   9.609
15772WAT     H247559   5.532   3.327   9.449
15773WAT      O47560   4.268   6.089   1.510
15773WAT     H147561   4.306   6.181   1.515
15773WAT     H247562   4.169   6.095   1.503
15774WAT      O47563   5.180   7.653   0.681
15774WAT     H147564   5.208   7.557   0.684
15774WAT     H247565   5.144   7.674   0.590
15775WAT      O47566   2.686   5.033   9.817
15775WAT     H147567   2.627   4.987   9.751
15775WAT     H247568   2.743   4.965   9.863
15776WAT      O47569   1.899   6.051   5.630
15776WAT     H147570   1.899   6.008   5.540
15776WAT     H247571   1.805   6.058   5.663
15777WAT      O47572   5.633   0.601   9.038
15777WAT     H147573   5.709   0.570   8.982
15777WAT     H247574   5.555   0.623   8.979
15778WAT      O47575   8.528   0.086   4.330
15778WAT     H147576   8.475   0.090   4.245
15778WAT     H247577   8.520  -0.005   4.370
15779WAT      O47578   3.168   7.402   2.245
15779WAT     H147579   3.113   7.341   2.301
15779WAT     H247580   3.204   7.476   2.302
15780WAT      O47581   2.739   1.849   9.647
15780WAT     H147582   2.720   1.800   9.562
15780WAT     H247583   2.802   1.924   9.628
15781WAT      O47584   1.308   6.700   6.141
15781WAT     H147585   1.331   6.603   6.134
15781WAT     H247586   1.360   6.741   6.216
15782WAT      O47587   0.466   0.396   9.558
15782WAT     H147588   0.440   0.300   9.551
15782WAT     H247589   0.533   0.407   9.632
15783WAT      O47590   3.953   7.252   5.082
15783WAT     H147591   4.018   7.229   5.010
15783WAT     H247592   3.989   7.327   5.138
15784WAT      O47593   7.986   0.789   5.371
15784WAT     H147594   8.005   0.876   5.416
15784WAT     H247595   8.051   0.775   5.296
15785WAT      O47596   9.499   4.057   9.611
15785WAT     H147597   9.556   4.056   9.693
15785WAT     H247598   9.539   3.997   9.542
15786WAT      O47599   4.785   2.918   0.617
15786WAT     H147600   4.725   2.955   0.547
15786WAT     H247601   4.873   2.966   0.615
15787WAT      O47602   5.937   4.967   4.903
15787WAT     H147603   5.983   4.925   4.825
15787WAT     H247604   5.954   5.065   4.903
15788WAT      O47605   1.377   3.011   5.963
15788WAT     H147606   1.382   3.069   6.044
15788WAT     H247607   1.449   3.037   5.898
15789WAT      O47608   4.912   7.037   8.645
15789WAT     H147609   4.824   6.998   8.671
15789WAT     H247610   4.974   6.963   8.616
15790WAT      O47611   1.089   6.030   8.261
15790WAT     H147612   1.051   5.957   8.204
15790WAT     H247613   1.162   6.076   8.212
15791WAT      O47614   4.466   9.066   5.066
15791WAT     H147615   4.499   9.152   5.105
15791WAT     H247616   4.411   9.017   5.134
15792WAT      O47617   5.488   4.013   6.828
15792WAT     H147618   5.487   4.084   6.757
15792WAT     H247619   5.400   3.965   6.827
15793WAT      O47620   6.059   1.264   4.651
15793WAT     H147621   5.978   1.285   4.706
15793WAT     H247622   6.141   1.299   4.696
15794WAT      O47623   0.277   3.650   2.181
15794WAT     H147624   0.198   3.589   2.181
15794WAT     H247625   0.292   3.686   2.273
15795WAT      O47626   1.058   5.499   5.928
15795WAT     H147627   1.127   5.539   5.988
15795WAT     H247628   0.988   5.454   5.983
15796WAT      O47629   2.838   8.492   7.207
15796WAT     H147630   2.934   8.513   7.185
15796WAT     H247631   2.802   8.562   7.269
15797WAT      O47632   7.846   5.851   3.139
15797WAT     H147633   7.854   5.900   3.052
15797WAT     H247634   7.749   5.836   3.160
15798WAT      O47635   7.630   9.158   4.630
15798WAT     H147636   7.532   9.154   4.609
15798WAT     H247637   7.679   9.194   4.551
15799WAT      O47638   8.594   2.217   9.601
15799WAT     H147639   8.680   2.171   9.579
15799WAT     H247640   8.559   2.262   9.519
15800WAT      O47641   4.917   6.517   2.855
15800WAT     H147642   4.872   6.432   2.882
15800WAT     H247643   4.882   6.547   2.766
15801WAT      O47644   8.578   1.914   4.219
15801WAT     H147645   8.530   1.899   4.306
15801WAT     H247646   8.635   1.835   4.199
15802WAT      O47647   2.962   3.275   1.869
15802WAT     H147648   3.008   3.205   1.814
15802WAT     H247649   2.943   3.240   1.960
15803WAT      O47650   0.164   1.634   4.467
15803WAT     H147651   0.155   1.702   4.540
15803WAT     H247652   0.165   1.542   4.507
15804WAT      O47653   1.522   9.136   3.672
15804WAT     H147654   1.428   9.168   3.686
15804WAT     H247655   1.520   9.043   3.637
15805WAT      O47656   1.968   6.194   9.406
15805WAT     H147657   1.921   6.191   9.494
15805WAT     H247658   1.902   6.177   9.333
15806WAT      O47659   4.620   9.594   1.205
15806WAT     H147660   4.675   9.535   1.264
15806WAT     H247661   4.523   9.576   1.221
15807WAT      O47662   3.090   5.354   6.344
15807WAT     H147663   3.043   5.358   6.432
15807WAT     H247664   3.118   5.447   6.317
15808WAT      O47665   5.400   7.323   8.766
15808WAT     H147666   5.483   7.378   8.778
15808WAT     H247667   5.333   7.348   8.835
15809WAT      O47668   0.534   9.023   4.386
15809WAT     H147669   0.605   9.008   4.317
15809WAT     H247670   0.454   8.967   4.364
15810WAT      O47671   3.826   5.330   8.675
15810WAT     H147672   3.817   5.429   8.686
15810WAT     H247673   3.735   5.289   8.665
15811WAT      O47674   7.739   9.705   7.856
15811WAT     H147675   7.668   9.706   7.785
15811WAT     H247676   7.780   9.796   7.863
15812WAT      O47677   5.821   1.253   8.112
15812WAT     H147678   5.827   1.216   8.205
15812WAT     H247679   5.908   1.236   8.064
15813WAT      O47680   7.507   3.677   9.186
15813WAT     H147681   7.525   3.759   9.131
15813WAT     H247682   7.549   3.598   9.142
15814WAT      O47683   1.110   2.570   3.836
15814WAT     H147684   1.183   2.557   3.768
15814WAT     H247685   1.028   2.521   3.807
15815WAT      O47686   0.550   1.630   3.731
15815WAT     H147687   0.603   1.675   3.658
15815WAT     H247688   0.570   1.532   3.730
15816WAT      O47689   6.405   9.760   6.780
15816WAT     H147690   6.341   9.697   6.824
15816WAT     H247691   6.359   9.848   6.764
15817WAT      O47692   3.920   6.699   4.241
15817WAT     H147693   3.888   6.616   4.196
15817WAT     H247694   4.009   6.682   4.283
15818WAT      O47695   6.869   8.150   7.105
15818WAT     H147696   6.779   8.115   7.130
15818WAT     H247697   6.934   8.074   7.100
15819WAT      O47698   8.745   5.507   1.687
15819WAT     H147699   8.716   5.435   1.750
15819WAT     H247700   8.844   5.505   1.677
15820WAT      O47701   4.564   4.672   0.260
15820WAT     H147702   4.609   4.583   0.253
15820WAT     H247703   4.516   4.691   0.174
15821WAT      O47704   6.449   6.196   8.288
15821WAT     H147705   6.490   6.209   8.198
15821WAT     H247706   6.364   6.248   8.294
15822WAT      O47707   7.838   3.800   3.421
15822WAT     H147708   7.928   3.842   3.412
15822WAT     H247709   7.768   3.864   3.390
15823WAT      O47710   6.005   4.113   9.681
15823WAT     H147711   5.975   4.019   9.664
15823WAT     H247712   5.959   4.148   9.763
15824WAT      O47713   4.981   6.635   0.949
15824WAT     H147714   5.050   6.582   0.899
15824WAT     H247715   4.970   6.725   0.906
15825WAT      O47716   2.598   4.569   6.872
15825WAT     H147717   2.647   4.492   6.914
15825WAT     H247718   2.525   4.534   6.814
15826WAT      O47719   2.844   2.282   9.685
15826WAT     H147720   2.822   2.370   9.726
15826WAT     H247721   2.764   2.246   9.637
15827WAT      O47722   8.981   2.917   8.724
15827WAT     H147723   8.972   2.985   8.652
15827WAT     H247724   9.031   2.958   8.802
15828WAT      O47725   5.496   8.986   1.043
15828WAT     H147726   5.457   8.996   0.952
15828WAT     H247727   5.499   8.889   1.067
15829WAT      O47728   9.379   5.209   6.864
15829WAT     H147729   9.472   5.211   6.827
15829WAT     H247730   9.358   5.117   6.896
15830WAT      O47731   2.264   6.534   6.991
15830WAT     H147732   2.174   6.493   6.978
15830WAT     H247733   2.319   6.519   6.908
15831WAT      O47734   9.651   6.431   2.454
15831WAT     H147735   9.610   6.504   2.508
15831WAT     H247736   9.747   6.453   2.435
15832WAT      O47737   8.545   6.005   0.897
15832WAT     H147738   8.625   5.952   0.867
15832WAT     H247739   8.480   5.945   0.942
15833WAT      O47740   4.705   7.998   1.805
15833WAT     H147741   4.665   8.017   1.716
15833WAT     H247742   4.643   7.940   1.858
15834WAT      O47743   0.729   2.196   7.286
15834WAT     H147744   0.651   2.170   7.343
15834WAT     H247745   0.804   2.131   7.302
15835WAT      O47746   5.062   5.941   3.767
15835WAT     H147747   5.127   5.887   3.819
15835WAT     H247748   4.977   5.889   3.755
15836WAT      O47749   8.282   9.779   3.419
15836WAT     H147750   8.318   9.829   3.341
15836WAT     H247751   8.196   9.735   3.394
15837WAT      O47752   8.913   5.996   5.674
15837WAT     H147753   8.963   5.917   5.640
15837WAT     H247754   8.909   6.066   5.603
15838WAT      O47755   7.342   4.308   6.941
15838WAT     H147756   7.368   4.397   6.904
15838WAT     H247757   7.274   4.321   7.014
15839WAT      O47758   4.633   2.534   0.143
15839WAT     H147759   4.535   2.518   0.135
15839WAT     H247760   4.658   2.543   0.239
15840WAT      O47761   1.042   8.247   8.307
15840WAT     H147762   0.970   8.297   8.355
15840WAT     H247763   1.130   8.263   8.352
15841WAT      O47764   4.560   2.377   7.053
15841WAT     H147765   4.536   2.281   7.067
15841WAT     H247766   4.641   2.399   7.107
15842WAT      O47767   3.622   4.465   0.843
15842WAT     H147768   3.579   4.494   0.757
15842WAT     H247769   3.571   4.503   0.920
15843WAT      O47770   0.997   3.283   3.421
15843WAT     H147771   0.914   3.265   3.473
15843WAT     H247772   1.077   3.274   3.481
15844WAT      O47773   2.464   0.300   6.868
15844WAT     H147774   2.487   0.240   6.791
15844WAT     H247775   2.533   0.289   6.939
15845WAT      O47776   7.593   0.036   4.755
15845WAT     H147777   7.683   0.068   4.724
15845WAT     H247778   7.606  -0.029   4.830
15846WAT      O47779   8.586   9.782   8.209
15846WAT     H147780   8.587   9.760   8.112
15846WAT     H247781   8.673   9.754   8.250
15847WAT      O47782   0.380   0.359   5.176
15847WAT     H147783   0.467   0.404   5.193
15847WAT     H247784   0.349   0.381   5.083
15848WAT      O47785   0.607   1.256   7.459
15848WAT     H147786   0.608   1.354   7.480
15848WAT     H247787   0.635   1.205   7.540
15849WAT      O47788   1.948   4.493   8.447
15849WAT     H147789   1.971   4.446   8.362
15849WAT     H247790   1.939   4.591   8.429
15850WAT      O47791   9.046   2.994   4.318
15850WAT     H147792   9.069   3.092   4.321
15850WAT     H247793   9.127   2.940   4.342
15851WAT      O47794   1.298   1.939   4.652
15851WAT     H147795   1.259   1.880   4.582
15851WAT     H247796   1.272   2.034   4.635
15852WAT      O47797   2.109   5.009   5.748
15852WAT     H147798   2.027   5.061   5.770
15852WAT     H247799   2.170   5.065   5.692
15853WAT      O47800   4.290   2.100   9.705
15853WAT     H147801   4.251   2.081   9.795
15853WAT     H247802   4.346   2.023   9.676
15854WAT      O47803   6.113   9.168   7.643
15854WAT     H147804   6.082   9.094   7.584
15854WAT     H247805   6.113   9.138   7.738
15855WAT      O47806   4.690   0.299   0.991
15855WAT     H147807   4.732   0.385   1.021
15855WAT     H247808   4.614   0.319   0.929
15856WAT      O47809   6.614   3.976   3.561
15856WAT     H147810   6.614   4.073   3.582
15856WAT     H247811   6.680   3.929   3.619
15857WAT      O47812   3.447   5.805   0.916
15857WAT     H147813   3.533   5.854   0.898
15857WAT     H247814   3.426   5.810   1.013
15858WAT      O47815   9.323   0.689   1.816
15858WAT     H147816   9.363   0.744   1.889
15858WAT     H247817   9.367   0.711   1.729
15859WAT      O47818   4.186   3.163   9.614
15859WAT     H147819   4.163   3.066   9.605
15859WAT     H247820   4.104   3.216   9.632
15860WAT      O47821   6.947   8.092   2.033
15860WAT     H147822   7.046   8.098   2.042
15860WAT     H247823   6.913   8.012   2.082
15861WAT      O47824   9.024   3.287   6.650
15861WAT     H147825   9.065   3.366   6.604
15861WAT     H247826   8.938   3.315   6.692
15862WAT      O47827   8.750   0.642   4.892
15862WAT     H147828   8.693   0.628   4.811
15862WAT     H247829   8.706   0.706   4.954
15863WAT      O47830   4.469   4.501   2.084
15863WAT     H147831   4.534   4.573   2.109
15863WAT     H247832   4.427   4.524   1.996
15864WAT      O47833   8.529   8.921   2.095
15864WAT     H147834   8.587   8.946   2.018
15864WAT     H247835   8.525   8.821   2.104
15865WAT      O47836   8.628   2.285   1.949
15865WAT     H147837   8.680   2.274   1.865
15865WAT     H247838   8.651   2.373   1.991
15866WAT      O47839   8.218   4.598   3.745
15866WAT     H147840   8.145   4.666   3.748
15866WAT     H247841   8.278   4.615   3.666
15867WAT      O47842   4.427   1.976   4.301
15867WAT     H147843   4.371   2.039   4.247
15867WAT     H247844   4.410   1.992   4.398
15868WAT      O47845   8.801   2.562   0.050
15868WAT     H147846   8.823   2.473   0.011
15868WAT     H247847   8.746   2.550   0.133
15869WAT      O47848   9.632   5.447   7.759
15869WAT     H147849   9.535   5.458   7.734
15869WAT     H247850   9.655   5.515   7.829
15870WAT      O47851   8.599   8.187   0.040
15870WAT     H147852   8.501   8.206   0.028
15870WAT     H247853   8.650   8.273   0.035
15871WAT      O47854   5.297   4.059   0.498
15871WAT     H147855   5.299   3.974   0.551
15871WAT     H247856   5.205   4.098   0.501
15872WAT      O47857   6.861   6.007   0.036
15872WAT     H147858   6.845   6.092   0.087
15872WAT     H247859   6.775   5.975  -0.003
15873WAT      O47860   7.452   0.870   1.453
15873WAT     H147861   7.495   0.864   1.542
15873WAT     H247862   7.418   0.963   1.438
15874WAT      O47863   3.204   4.026   4.261
15874WAT     H147864   3.145   4.038   4.181
15874WAT     H247865   3.269   3.952   4.243
15875WAT      O47866   6.980   7.514   0.458
15875WAT     H147867   6.971   7.607   0.496
15875WAT     H247868   7.030   7.517   0.372
15876WAT      O47869   4.489   3.131   9.036
15876WAT     H147870   4.454   3.224   9.027
15876WAT     H247871   4.416   3.069   9.065
15877WAT      O47872   2.596   2.470   0.516
15877WAT     H147873   2.604   2.568   0.497
15877WAT     H247874   2.657   2.445   0.591
15878WAT      O47875   6.556   5.554   0.305
15878WAT     H147876   6.545   5.498   0.387
15878WAT     H247877   6.651   5.585   0.299
15879WAT      O47878   7.736   8.829   7.737
15879WAT     H147879   7.815   8.841   7.797
15879WAT     H247880   7.735   8.899   7.667
15880WAT      O47881   7.481   3.283   8.953
15880WAT     H147882   7.523   3.353   9.011
15880WAT     H247883   7.530   3.197   8.964
15881WAT      O47884   1.323   6.195   0.422
15881WAT     H147885   1.285   6.281   0.455
15881WAT     H247886   1.256   6.121   0.437
15882WAT      O47887   7.278   9.348   8.388
15882WAT     H147888   7.239   9.259   8.411
15882WAT     H247889   7.318   9.344   8.296
15883WAT      O47890   3.874   3.160   3.614
15883WAT     H147891   3.843   3.232   3.552
15883WAT     H247892   3.936   3.199   3.682
15884WAT      O47893   8.511   1.224   2.324
15884WAT     H147894   8.556   1.215   2.413
15884WAT     H247895   8.576   1.261   2.257
15885WAT      O47896   4.590   4.178   8.390
15885WAT     H147897   4.639   4.109   8.442
15885WAT     H247898   4.565   4.140   8.300
15886WAT      O47899   8.082   4.445   8.350
15886WAT     H147900   8.087   4.541   8.376
15886WAT     H247901   8.142   4.391   8.410
15887WAT      O47902   1.136   2.943   4.389
15887WAT     H147903   1.213   2.884   4.414
15887WAT     H247904   1.069   2.890   4.336
15888WAT      O47905   0.930   4.833   6.329
15888WAT     H147906   0.919   4.734   6.331
15888WAT     H247907   0.844   4.877   6.355
15889WAT      O47908   9.283   5.260   5.122
15889WAT     H147909   9.298   5.168   5.158
15889WAT     H247910   9.349   5.279   5.050
15890WAT      O47911   9.203   4.909   1.656
15890WAT     H147912   9.107   4.928   1.675
15890WAT     H247913   9.253   4.995   1.646
15891WAT      O47914   7.326   1.040   6.909
15891WAT     H147915   7.345   0.996   6.821
15891WAT     H247916   7.241   1.092   6.903
15892WAT      O47917   4.728   8.375   3.981
15892WAT     H147918   4.659   8.410   3.918
15892WAT     H247919   4.699   8.285   4.015
15893WAT      O47920   1.353   2.116   0.902
15893WAT     H147921   1.398   2.102   0.814
15893WAT     H247922   1.266   2.164   0.887
15894WAT      O47923   7.033   1.792   8.259
15894WAT     H147924   6.971   1.726   8.216
15894WAT     H247925   7.110   1.742   8.301
15895WAT      O47926   5.348   4.804   7.178
15895WAT     H147927   5.407   4.884   7.167
15895WAT     H247928   5.394   4.723   7.142
15896WAT      O47929   2.551   4.673   4.112
15896WAT     H147930   2.508   4.640   4.196
15896WAT     H247931   2.619   4.606   4.082
15897WAT      O47932   7.990   4.575   0.689
15897WAT     H147933   8.063   4.512   0.664
15897WAT     H247934   8.027   4.646   0.749
15898WAT      O47935   4.431   6.866   3.600
15898WAT     H147936   4.448   6.917   3.684
15898WAT     H247937   4.454   6.923   3.521
15899WAT      O47938   9.868   9.307   2.760
15899WAT     H147939   9.845   9.211   2.768
15899WAT     H247940   9.937   9.331   2.828
15900WAT      O47941   0.393   5.615   8.208
15900WAT     H147942   0.377   5.526   8.251
15900WAT     H247943   0.306   5.652   8.174
15901WAT      O47944   4.274   9.443   2.634
15901WAT     H147945   4.248   9.469   2.541
15901WAT     H247946   4.238   9.510   2.698
15902WAT      O47947   8.479   0.906   8.945
15902WAT     H147948   8.387   0.944   8.939
15902WAT     H247949   8.491   0.862   9.034
15903WAT      O47950   2.628   8.727   5.626
15903WAT     H147951   2.666   8.709   5.717
15903WAT     H247952   2.603   8.641   5.583
15904WAT      O47953   8.155   1.708   7.238
15904WAT     H147954   8.097   1.690   7.158
15904WAT     H247955   8.152   1.630   7.300
15905WAT      O47956   9.161   7.576   8.511
15905WAT     H147957   9.087   7.508   8.515
15905WAT     H247958   9.249   7.528   8.509
15906WAT      O47959   4.587   8.965   5.668
15906WAT     H147960   4.658   9.000   5.729
15906WAT     H247961   4.550   8.880   5.707
15907WAT      O47962   2.046   0.800   9.300
15907WAT     H147963   1.983   0.769   9.372
15907WAT     H247964   2.016   0.765   9.212
15908WAT      O47965   8.413   0.126   9.132
15908WAT     H147966   8.390   0.211   9.084
15908WAT     H247967   8.458   0.064   9.068
15909WAT      O47968   7.055   4.036   7.937
15909WAT     H147969   7.040   3.940   7.913
15909WAT     H247970   7.026   4.052   8.031
15910WAT      O47971   6.352   6.560   5.069
15910WAT     H147972   6.446   6.540   5.098
15910WAT     H247973   6.345   6.550   4.970
15911WAT      O47974   4.541   4.214   9.722
15911WAT     H147975   4.505   4.206   9.815
15911WAT     H247976   4.641   4.209   9.723
15912WAT      O47977   5.623   7.780   0.610
15912WAT     H147978   5.593   7.743   0.698
15912WAT     H247979   5.667   7.868   0.624
15913WAT      O47980   8.474   8.084   3.791
15913WAT     H147981   8.448   7.991   3.816
15913WAT     H247982   8.572   8.086   3.768
15914WAT      O47983   6.808   8.988   6.230
15914WAT     H147984   6.806   9.020   6.325
15914WAT     H247985   6.856   9.055   6.173
15915WAT      O47986   4.515   0.150   4.401
15915WAT     H147987   4.420   0.155   4.432
15915WAT     H247988   4.531   0.062   4.356
15916WAT      O47989   5.469   6.951   8.728
15916WAT     H147990   5.526   7.002   8.664
15916WAT     H247991   5.469   6.854   8.702
15917WAT      O47992   7.989   6.699   5.098
15917WAT     H147993   8.000   6.784   5.150
15917WAT     H247994   8.054   6.697   5.023
15918WAT      O47995   4.237   9.053   2.443
15918WAT     H147996   4.211   9.123   2.377
15918WAT     H247997   4.157   9.025   2.496
15919WAT      O47998   9.857   3.757   0.685
15919WAT     H147999   9.813   3.829   0.738
15919WAT     H248000   9.944   3.732   0.728
15920WAT      O48001   0.493   8.039   0.622
15920WAT     H148002   0.469   7.942   0.622
15920WAT     H248003   0.467   8.080   0.534
15921WAT      O48004   9.237   1.486   7.743
15921WAT     H148005   9.260   1.568   7.797
15921WAT     H248006   9.208   1.514   7.652
15922WAT      O48007   1.301   3.738   9.674
15922WAT     H148008   1.204   3.716   9.679
15922WAT     H248009   1.318   3.828   9.715
15923WAT      O48010   8.092   1.426   7.268
15923WAT     H148011   7.998   1.432   7.236
15923WAT     H248012   8.139   1.351   7.222
15924WAT      O48013   0.533   9.646   3.899
15924WAT     H148014   0.503   9.672   3.807
15924WAT     H248015   0.631   9.668   3.909
15925WAT      O48016   2.458   0.016   3.685
15925WAT     H148017   2.427  -0.027   3.600
15925WAT     H248018   2.417  -0.031   3.763
15926WAT      O48019   0.288   4.684   3.058
15926WAT     H148020   0.218   4.745   3.022
15926WAT     H248021   0.307   4.707   3.154
15927WAT      O48022   1.639   2.763   8.922
15927WAT     H148023   1.578   2.693   8.885
15927WAT     H248024   1.584   2.838   8.959
15928WAT      O48025   1.276   3.005   2.526
15928WAT     H148026   1.354   2.987   2.466
15928WAT     H248027   1.307   3.057   2.606
15929WAT      O48028   5.232   8.038   8.978
15929WAT     H148029   5.224   8.039   9.078
15929WAT     H248030   5.179   8.113   8.940
15930WAT      O48031   9.337   2.494   3.186
15930WAT     H148032   9.420   2.541   3.215
15930WAT     H248033   9.291   2.548   3.116
15931WAT      O48034   9.201   6.712   3.963
15931WAT     H148035   9.233   6.620   3.983
15931WAT     H248036   9.149   6.711   3.878
15932WAT      O48037   2.490   3.208   4.135
15932WAT     H148038   2.546   3.139   4.090
15932WAT     H248039   2.545   3.291   4.151
15933WAT      O48040   3.811   2.821   7.801
15933WAT     H148041   3.907   2.808   7.775
15933WAT     H248042   3.754   2.823   7.719
15934WAT      O48043   1.241   3.188   4.383
15934WAT     H148044   1.325   3.214   4.336
15934WAT     H248045   1.235   3.088   4.389
15935WAT      O48046   3.688   8.166   6.671
15935WAT     H148047   3.622   8.241   6.671
15935WAT     H248048   3.767   8.191   6.616
15936WAT      O48049   7.731   2.545   5.783
15936WAT     H148050   7.755   2.642   5.792
15936WAT     H248051   7.650   2.526   5.839
15937WAT      O48052   4.594   3.123   9.417
15937WAT     H148053   4.621   3.218   9.428
15937WAT     H248054   4.495   3.117   9.403
15938WAT      O48055   6.052   2.387   9.097
15938WAT     H148056   6.145   2.350   9.089
15938WAT     H248057   6.018   2.411   9.006
15939WAT      O48058   1.385   4.164   9.383
15939WAT     H148059   1.319   4.223   9.429
15939WAT     H248060   1.456   4.137   9.447
15940WAT      O48061   8.720   0.330   1.571
15940WAT     H148062   8.729   0.242   1.524
15940WAT     H248063   8.728   0.316   1.670
15941WAT      O48064   5.850   1.983   1.882
15941WAT     H148065   5.820   2.055   1.944
15941WAT     H248066   5.867   2.021   1.791
15942WAT      O48067   8.284   4.626   9.305
15942WAT     H148068   8.224   4.548   9.320
15942WAT     H248069   8.248   4.706   9.354
15943WAT      O48070   8.906   0.941   5.834
15943WAT     H148071   8.889   0.932   5.932
15943WAT     H248072   8.822   0.972   5.789
15944WAT      O48073   5.959   8.801   8.074
15944WAT     H148074   5.948   8.816   7.976
15944WAT     H248075   5.872   8.768   8.112
15945WAT      O48076   4.338   7.767   1.552
15945WAT     H148077   4.273   7.770   1.628
15945WAT     H248078   4.364   7.860   1.527
15946WAT      O48079   5.621   0.936   1.945
15946WAT     H148080   5.647   0.886   1.862
15946WAT     H248081   5.695   0.930   2.012
15947WAT      O48082   0.728   4.474   4.889
15947WAT     H148083   0.774   4.534   4.824
15947WAT     H248084   0.750   4.379   4.867
15948WAT      O48085   8.187   1.907   5.992
15948WAT     H148086   8.171   1.933   6.087
15948WAT     H248087   8.192   1.989   5.936
15949WAT      O48088   6.072   2.813   7.969
15949WAT     H148089   6.002   2.880   7.992
15949WAT     H248090   6.036   2.749   7.901
15950WAT      O48091   5.157   0.581   3.887
15950WAT     H148092   5.146   0.677   3.916
15950WAT     H248093   5.247   0.548   3.916
15951WAT      O48094   8.543   4.878   2.455
15951WAT     H148095   8.481   4.855   2.530
15951WAT     H248096   8.633   4.900   2.492
15952WAT      O48097   6.750   6.796   2.110
15952WAT     H148098   6.728   6.701   2.092
15952WAT     H248099   6.847   6.804   2.133
15953WAT      O48100   2.320   2.511   2.499
15953WAT     H148101   2.378   2.431   2.512
15953WAT     H248102   2.350   2.584   2.560
15954WAT      O48103   0.080   1.338   4.005
15954WAT     H148104   0.169   1.363   3.968
15954WAT     H248105   0.069   1.380   4.095
15955WAT      O48106   1.453   6.240   4.273
15955WAT     H148107   1.445   6.298   4.354
15955WAT     H248108   1.363   6.203   4.250
15956WAT      O48109   3.718   1.641   8.534
15956WAT     H148110   3.656   1.640   8.455
15956WAT     H248111   3.806   1.601   8.507
15957WAT      O48112   4.973   2.381   2.822
15957WAT     H148113   4.890   2.391   2.768
15957WAT     H248114   4.957   2.416   2.914
15958WAT      O48115   0.896   4.552   9.114
15958WAT     H148116   0.949   4.575   9.032
15958WAT     H248117   0.919   4.459   9.143
15959WAT      O48118   2.171   4.405   6.908
15959WAT     H148119   2.201   4.497   6.885
15959WAT     H248120   2.208   4.378   6.997
15960WAT      O48121   9.747   1.328   1.851
15960WAT     H148122   9.793   1.351   1.765
15960WAT     H248123   9.701   1.239   1.842
15961WAT      O48124   2.815   5.785   6.716
15961WAT     H148125   2.867   5.831   6.788
15961WAT     H248126   2.746   5.847   6.680
15962WAT      O48127   1.778   1.254   0.672
15962WAT     H148128   1.682   1.237   0.698
15962WAT     H248129   1.797   1.207   0.586
15963WAT      O48130   1.336   4.306   4.818
15963WAT     H148131   1.337   4.392   4.767
15963WAT     H248132   1.398   4.312   4.895
15964WAT      O48133   4.242   7.929   9.384
15964WAT     H148134   4.193   7.964   9.464
15964WAT     H248135   4.284   7.841   9.406
15965WAT      O48136   4.597   7.631   0.525
15965WAT     H148137   4.633   7.546   0.486
15965WAT     H248138   4.578   7.695   0.451
15966WAT      O48139   4.246   5.336   8.412
15966WAT     H148140   4.316   5.270   8.384
15966WAT     H248141   4.210   5.382   8.331
15967WAT      O48142   7.128   6.857   6.405
15967WAT     H148143   7.074   6.811   6.335
15967WAT     H248144   7.143   6.794   6.482
15968WAT      O48145   7.355   8.235   6.539
15968WAT     H148146   7.261   8.221   6.508
15968WAT     H248147   7.358   8.313   6.602
15969WAT      O48148   2.834   4.402   5.482
15969WAT     H148149   2.758   4.453   5.523
15969WAT     H248150   2.798   4.328   5.425
15970WAT      O48151   2.125   2.131   6.480
15970WAT     H148152   2.127   2.031   6.472
15970WAT     H248153   2.046   2.166   6.429
15971WAT      O48154   0.246   8.232   9.461
15971WAT     H148155   0.169   8.294   9.444
15971WAT     H248156   0.319   8.252   9.395
15972WAT      O48157   9.571   7.467   9.552
15972WAT     H148158   9.579   7.375   9.513
15972WAT     H248159   9.587   7.535   9.481
15973WAT      O48160   1.718   0.176   9.783
15973WAT     H148161   1.676   0.220   9.703
15973WAT     H248162   1.778   0.102   9.753
15974WAT      O48163   0.490   0.650   0.842
15974WAT     H148164   0.541   0.674   0.759
15974WAT     H248165   0.547   0.671   0.922
15975WAT      O48166   8.864   4.653   2.170
15975WAT     H148167   8.926   4.597   2.114
15975WAT     H248168   8.808   4.711   2.110
15976WAT      O48169   1.244   4.702   8.127
15976WAT     H148170   1.259   4.646   8.046
15976WAT     H248171   1.247   4.643   8.209
15977WAT      O48172   0.338   0.330   6.133
15977WAT     H148173   0.375   0.415   6.096
15977WAT     H248174   0.377   0.252   6.085
15978WAT      O48175   2.387   5.005   5.587
15978WAT     H148176   2.429   5.093   5.613
15978WAT     H248177   2.393   4.942   5.665
15979WAT      O48178   1.434   2.073   2.179
15979WAT     H148179   1.432   2.142   2.251
15979WAT     H248180   1.519   2.080   2.128
15980WAT      O48181   5.717   7.905   0.171
15980WAT     H148182   5.641   7.886   0.108
15980WAT     H248183   5.788   7.956   0.122
15981WAT      O48184   8.428   7.082   1.292
15981WAT     H148185   8.333   7.103   1.313
15981WAT     H248186   8.445   7.102   1.195
15982WAT      O48187   9.369   7.175   7.728
15982WAT     H148188   9.298   7.240   7.704
15982WAT     H248189   9.358   7.146   7.823
15983WAT      O48190   0.168   1.459   3.178
15983WAT     H148191   0.125   1.380   3.135
15983WAT     H248192   0.218   1.511   3.109
15984WAT      O48193   7.175   9.787   4.368
15984WAT     H148194   7.119   9.777   4.285
15984WAT     H248195   7.190   9.884   4.386
15985WAT      O48196   9.371   9.266   5.153
15985WAT     H148197   9.331   9.204   5.221
15985WAT     H248198   9.376   9.219   5.065
15986WAT      O48199   5.387   6.970   8.456
15986WAT     H148200   5.464   7.034   8.457
15986WAT     H248201   5.306   7.014   8.496
15987WAT      O48202   5.696   0.999   0.282
15987WAT     H148203   5.637   0.975   0.360
15987WAT     H248204   5.640   1.012   0.201
15988WAT      O48205   0.621   7.189   9.328
15988WAT     H148206   0.715   7.176   9.360
15988WAT     H248207   0.584   7.101   9.298
15989WAT      O48208   5.435   3.847   5.582
15989WAT     H148209   5.451   3.833   5.680
15989WAT     H248210   5.500   3.914   5.547
15990WAT      O48211   0.085   8.965   4.236
15990WAT     H148212   0.029   9.045   4.213
15990WAT     H248213   0.052   8.886   4.185
15991WAT      O48214   2.105   4.367   7.555
15991WAT     H148215   2.032   4.433   7.537
15991WAT     H248216   2.109   4.348   7.653
15992WAT      O48217   5.600   8.656   1.612
15992WAT     H148218   5.656   8.573   1.621
15992WAT     H248219   5.658   8.736   1.627
15993WAT      O48220   1.202   1.425   8.435
15993WAT     H148221   1.126   1.378   8.479
15993WAT     H248222   1.255   1.360   8.380
15994WAT      O48223   5.336   5.729   1.726
15994WAT     H148224   5.402   5.768   1.790
15994WAT     H248225   5.265   5.680   1.776
15995WAT      O48226   8.703   6.144   2.279
15995WAT     H148227   8.778   6.083   2.306
15995WAT     H248228   8.711   6.166   2.182
15996WAT      O48229   9.298   5.965   4.292
15996WAT     H148230   9.316   5.867   4.302
15996WAT     H248231   9.358   6.002   4.221
15997WAT      O48232   5.344   1.616   3.521
15997WAT     H148233   5.361   1.577   3.612
15997WAT     H248234   5.402   1.570   3.454
15998WAT      O48235   0.216   2.507   0.332
15998WAT     H148236   0.180   2.415   0.348
15998WAT     H248237   0.281   2.531   0.404
15999WAT      O48238   2.965   6.452   2.829
15999WAT     H148239   3.056   6.420   2.803
15999WAT     H248240   2.929   6.513   2.758
16000WAT      O48241   8.142   5.235   3.149
16000WAT     H148242   8.236   5.248   3.117
16000WAT     H248243   8.079   5.280   3.086
16001WAT      O48244   5.913   2.896   7.246
16001WAT     H148245   5.878   2.948   7.324
16001WAT     H248246   5.968   2.820   7.280
16002WAT      O48247   5.372   8.163   9.268
16002WAT     H148248   5.464   8.175   9.231
16002WAT     H248249   5.371   8.193   9.364
16003WAT      O48250   4.353   0.092   7.268
16003WAT     H148251   4.381   0.003   7.305
16003WAT     H248252   4.259   0.112   7.297
16004WAT      O48253   7.646   2.156   2.185
16004WAT     H148254   7.627   2.254   2.194
16004WAT     H248255   7.688   2.137   2.096
16005WAT      O48256   9.505   1.333   6.542
16005WAT     H148257   9.527   1.372   6.632
16005WAT     H248258   9.446   1.397   6.492
16006WAT      O48259   8.528   2.196   2.193
16006WAT     H148260   8.604   2.158   2.246
16006WAT     H248261   8.560   2.224   2.103
16007WAT      O48262   4.873   6.837   9.111
16007WAT     H148263   4.881   6.771   9.036
16007WAT     H248264   4.810   6.801   9.180
16008WAT      O48265   0.280   7.979   2.350
16008WAT     H148266   0.320   8.042   2.284
16008WAT     H248267   0.181   7.994   2.354
16009WAT      O48268   4.191   9.718   1.566
16009WAT     H148269   4.144   9.759   1.644
16009WAT     H248270   4.234   9.632   1.594
16010WAT      O48271   0.583   7.311   4.989
16010WAT     H148272   0.656   7.246   4.971
16010WAT     H248273   0.577   7.329   5.087
16011WAT      O48274   4.110   5.152   5.539
16011WAT     H148275   4.155   5.103   5.465
16011WAT     H248276   4.099   5.091   5.617
16012WAT      O48277   2.645   6.703   3.757
16012WAT     H148278   2.722   6.680   3.816
16012WAT     H248279   2.568   6.732   3.814
16013WAT      O48280   5.533   9.509   8.547
16013WAT     H148281   5.468   9.569   8.594
16013WAT     H248282   5.483   9.442   8.492
16014WAT      O48283   7.662   3.945   3.317
16014WAT     H148284   7.600   3.903   3.251
16014WAT     H248285   7.680   4.040   3.292
16015WAT      O48286   1.267   6.067   1.715
16015WAT     H148287   1.348   6.109   1.675
16015WAT     H248288   1.189   6.129   1.704
16016WAT      O48289   6.352   3.172   6.414
16016WAT     H148290   6.381   3.258   6.371
16016WAT     H248291   6.367   3.096   6.351
16017WAT      O48292   3.112   6.051   3.285
16017WAT     H148293   3.117   6.054   3.385
16017WAT     H248294   3.170   6.123   3.246
16018WAT      O48295   4.490   5.304   1.022
16018WAT     H148296   4.572   5.259   1.058
16018WAT     H248297   4.444   5.353   1.096
16019WAT      O48298   5.223   0.375   5.290
16019WAT     H148299   5.296   0.331   5.343
16019WAT     H248300   5.158   0.417   5.353
16020WAT      O48301   4.783   1.809   4.455
16020WAT     H148302   4.719   1.772   4.522
16020WAT     H248303   4.808   1.738   4.390
16021WAT      O48304   0.771   4.509   1.332
16021WAT     H148305   0.734   4.417   1.344
16021WAT     H248306   0.862   4.504   1.293
16022WAT      O48307   5.634   4.612   8.228
16022WAT     H148308   5.665   4.521   8.256
16022WAT     H248309   5.553   4.603   8.171
16023WAT      O48310   5.404   2.529   6.110
16023WAT     H148311   5.460   2.449   6.089
16023WAT     H248312   5.455   2.613   6.091
16024WAT      O48313   8.109   6.222   0.018
16024WAT     H148314   8.115   6.245   0.115
16024WAT     H248315   8.036   6.276  -0.025
16025WAT      O48316   3.781   0.298   1.379
16025WAT     H148317   3.854   0.246   1.425
16025WAT     H248318   3.704   0.308   1.441
16026WAT      O48319   9.098   4.466   4.964
16026WAT     H148320   9.146   4.545   5.003
16026WAT     H248321   9.003   4.491   4.948
16027WAT      O48322   8.705   7.216   6.982
16027WAT     H148323   8.799   7.183   6.975
16027WAT     H248324   8.694   7.297   6.925
16028WAT      O48325   4.424   1.080   8.027
16028WAT     H148326   4.398   1.125   7.942
16028WAT     H248327   4.484   1.003   8.006
16029WAT      O48328   8.787   6.963   3.589
16029WAT     H148329   8.834   6.914   3.663
16029WAT     H248330   8.732   7.036   3.627
16030WAT      O48331   2.388   2.224   5.510
16030WAT     H148332   2.352   2.136   5.478
16030WAT     H248333   2.469   2.209   5.566
16031WAT      O48334   5.470   3.267   2.225
16031WAT     H148335   5.444   3.359   2.256
16031WAT     H248336   5.486   3.268   2.127
16032WAT      O48337   5.054   6.194   9.532
16032WAT     H148338   4.979   6.189   9.597
16032WAT     H248339   5.140   6.174   9.579
16033WAT      O48340   1.024   1.039   3.044
16033WAT     H148341   0.994   1.114   2.985
16033WAT     H248342   1.122   1.050   3.063
16034WAT      O48343   6.543   6.907   8.453
16034WAT     H148344   6.453   6.948   8.469
16034WAT     H248345   6.601   6.973   8.405
16035WAT      O48346   0.538   1.208   3.971
16035WAT     H148347   0.620   1.266   3.973
16035WAT     H248348   0.560   1.119   3.933
16036WAT      O48349   0.504   7.669   5.231
16036WAT     H148350   0.477   7.705   5.320
16036WAT     H248351   0.475   7.573   5.224
16037WAT      O48352   1.614   0.866   2.953
16037WAT     H148353   1.573   0.776   2.969
16037WAT     H248354   1.566   0.912   2.879
16038WAT      O48355   4.047   8.827   2.788
16038WAT     H148356   4.136   8.782   2.786
16038WAT     H248357   4.059   8.926   2.792
16039WAT      O48358   2.150   5.913   7.772
16039WAT     H148359   2.092   5.851   7.825
16039WAT     H248360   2.099   5.949   7.694
16040WAT      O48361   2.306   1.544   7.026
16040WAT     H148362   2.297   1.625   7.084
16040WAT     H248363   2.361   1.567   6.946
16041WAT      O48364   3.083   0.333   2.661
16041WAT     H148365   3.109   0.372   2.573
16041WAT     H248366   3.049   0.240   2.648
16042WAT      O48367   1.775   6.384   4.575
16042WAT     H148368   1.719   6.441   4.636
16042WAT     H248369   1.805   6.303   4.624
16043WAT      O48370   7.359   6.824   1.613
16043WAT     H148371   7.291   6.854   1.546
16043WAT     H248372   7.350   6.725   1.628
16044WAT      O48373   4.546   5.840   2.387
16044WAT     H148374   4.589   5.903   2.322
16044WAT     H248375   4.537   5.750   2.345
16045WAT      O48376   5.787   5.420   5.527
16045WAT     H148377   5.757   5.325   5.519
16045WAT     H248378   5.814   5.454   5.437
16046WAT      O48379   9.220   6.825   6.926
16046WAT     H148380   9.171   6.739   6.913
16046WAT     H248381   9.276   6.819   7.009
16047WAT      O48382   7.775   5.794   5.718
16047WAT     H148383   7.819   5.859   5.780
16047WAT     H248384   7.794   5.700   5.749
16048WAT      O48385   2.255   9.525   2.108
16048WAT     H148386   2.226   9.430   2.097
16048WAT     H248387   2.328   9.531   2.176
16049WAT      O48388   2.981   1.152   3.108
16049WAT     H148389   2.958   1.162   3.205
16049WAT     H248390   3.046   1.223   3.082
16050WAT      O48391   3.463   6.928   4.525
16050WAT     H148392   3.554   6.952   4.557
16050WAT     H248393   3.461   6.832   4.497
16051WAT      O48394   1.453   2.713   2.809
16051WAT     H148395   1.404   2.706   2.722
16051WAT     H248396   1.409   2.654   2.877
16052WAT      O48397   1.192   0.235   8.152
16052WAT     H148398   1.100   0.266   8.126
16052WAT     H248399   1.211   0.264   8.245
16053WAT      O48400   7.013   7.201   7.739
16053WAT     H148401   6.916   7.225   7.738
16053WAT     H248402   7.067   7.282   7.763
16054WAT      O48403   1.644   2.130   9.627
16054WAT     H148404   1.613   2.035   9.615
16054WAT     H248405   1.709   2.133   9.703
16055WAT      O48406   2.161   3.624   2.154
16055WAT     H148407   2.149   3.527   2.134
16055WAT     H248408   2.073   3.671   2.145
16056WAT      O48409   2.200   8.490   2.145
16056WAT     H148410   2.123   8.457   2.090
16056WAT     H248411   2.178   8.579   2.183
16057WAT      O48412   4.623   1.450   3.170
16057WAT     H148413   4.563   1.523   3.138
16057WAT     H248414   4.716   1.486   3.181
16058WAT      O48415   7.247   0.533   0.415
16058WAT     H148416   7.260   0.454   0.475
16058WAT     H248417   7.303   0.522   0.333
16059WAT      O48418   6.914   1.559   8.115
16059WAT     H148419   6.962   1.573   8.028
16059WAT     H248420   6.960   1.487   8.167
16060WAT      O48421   2.395   7.832   2.697
16060WAT     H148422   2.368   7.871   2.785
16060WAT     H248423   2.442   7.745   2.712
16061WAT      O48424   2.211   0.786   3.988
16061WAT     H148425   2.111   0.775   3.988
16061WAT     H248426   2.248   0.748   4.073
16062WAT      O48427   0.832   1.455   0.592
16062WAT     H148428   0.742   1.461   0.549
16062WAT     H248429   0.822   1.443   0.690
16063WAT      O48430   4.713   8.141   8.546
16063WAT     H148431   4.774   8.172   8.619
16063WAT     H248432   4.621   8.176   8.562
16064WAT      O48433   8.875   0.665   2.093
16064WAT     H148434   8.796   0.648   2.153
16064WAT     H248435   8.845   0.713   2.011
16065WAT      O48436   4.428   8.350   6.429
16065WAT     H148437   4.447   8.307   6.341
16065WAT     H248438   4.495   8.320   6.496
16066WAT      O48439   5.350   7.907   1.375
16066WAT     H148440   5.335   7.811   1.399
16066WAT     H248441   5.437   7.916   1.326
16067WAT      O48442   1.345   2.242   1.813
16067WAT     H148443   1.365   2.304   1.889
16067WAT     H248444   1.297   2.293   1.741
16068WAT      O48445   0.761   3.964   9.651
16068WAT     H148446   0.662   3.954   9.660
16068WAT     H248447   0.805   3.945   9.738
16069WAT      O48448   6.807   2.043   5.147
16069WAT     H148449   6.778   2.012   5.057
16069WAT     H248450   6.897   2.004   5.169
16070WAT      O48451   4.828   5.876   6.114
16070WAT     H148452   4.881   5.929   6.048
16070WAT     H248453   4.765   5.816   6.065
16071WAT      O48454   5.104   2.105   6.863
16071WAT     H148455   5.163   2.027   6.882
16071WAT     H248456   5.047   2.123   6.943
16072WAT      O48457   3.840   3.928   4.692
16072WAT     H148458   3.892   3.997   4.641
16072WAT     H248459   3.861   3.936   4.789
16073WAT      O48460   4.076   6.306   0.108
16073WAT     H148461   4.173   6.330   0.113
16073WAT     H248462   4.066   6.217   0.064
16074WAT      O48463   4.414   1.926   2.960
16074WAT     H148464   4.315   1.938   2.946
16074WAT     H248465   4.463   2.001   2.916
16075WAT      O48466   7.374   2.216   1.745
16075WAT     H148467   7.330   2.127   1.733
16075WAT     H248468   7.445   2.228   1.675
16076WAT      O48469   6.003   7.972   2.578
16076WAT     H148470   5.959   8.043   2.524
16076WAT     H248471   6.058   8.015   2.650
16077WAT      O48472   3.906   1.954   6.966
16077WAT     H148473   3.812   1.921   6.976
16077WAT     H248474   3.925   1.970   6.869
16078WAT      O48475   9.556   5.188   2.561
16078WAT     H148476   9.647   5.210   2.526
16078WAT     H248477   9.524   5.102   2.521
16079WAT      O48478   4.966   6.110   7.290
16079WAT     H148479   5.020   6.042   7.240
16079WAT     H248480   4.928   6.068   7.373
16080WAT      O48481   9.817   6.563   8.143
16080WAT     H148482   9.758   6.583   8.065
16080WAT     H248483   9.861   6.647   8.173
16081WAT      O48484   1.516   2.995   9.001
16081WAT     H148485   1.485   3.057   9.073
16081WAT     H248486   1.504   3.039   8.912
16082WAT      O48487   3.129   1.829   7.010
16082WAT     H148488   3.202   1.800   6.947
16082WAT     H248489   3.083   1.748   7.046
16083WAT      O48490   3.369   3.076   8.415
16083WAT     H148491   3.342   2.985   8.383
16083WAT     H248492   3.353   3.083   8.513
16084WAT      O48493   9.250   7.451   4.304
16084WAT     H148494   9.190   7.504   4.244
16084WAT     H248495   9.336   7.500   4.316
16085WAT      O48496   7.580   6.567   8.595
16085WAT     H148497   7.630   6.650   8.570
16085WAT     H248498   7.644   6.492   8.609
16086WAT      O48499   2.247   1.558   5.570
16086WAT     H148500   2.303   1.485   5.607
16086WAT     H248501   2.273   1.576   5.475
16087WAT      O48502   1.408   3.881   4.312
16087WAT     H148503   1.349   3.962   4.318
16087WAT     H248504   1.436   3.853   4.403
16088WAT      O48505   0.693   6.032   4.119
16088WAT     H148506   0.689   5.932   4.123
16088WAT     H248507   0.600   6.069   4.122
16089WAT      O48508   9.200   0.041   5.380
16089WAT     H148509   9.227   0.087   5.295
16089WAT     H248510   9.280   0.028   5.438
16090WAT      O48511   0.796   3.717   5.749
16090WAT     H148512   0.786   3.622   5.720
16090WAT     H248513   0.893   3.737   5.765
16091WAT      O48514   8.912   6.819   6.599
16091WAT     H148515   8.939   6.834   6.504
16091WAT     H248516   8.894   6.722   6.614
16092WAT      O48517   8.342   0.013   9.543
16092WAT     H148518   8.432   0.056   9.534
16092WAT     H248519   8.299   0.045   9.628
16093WAT      O48520   8.691   4.039   5.111
16093WAT     H148521   8.647   4.124   5.139
16093WAT     H248522   8.715   4.045   5.014
16094WAT      O48523   0.345   8.259   4.914
16094WAT     H148524   0.351   8.353   4.879
16094WAT     H248525   0.263   8.249   4.970
16095WAT      O48526   1.461   2.580   1.026
16095WAT     H148527   1.396   2.611   1.095
16095WAT     H248528   1.510   2.658   0.987
16096WAT      O48529   9.396   2.676   9.151
16096WAT     H148530   9.406   2.758   9.095
16096WAT     H248531   9.478   2.619   9.141
16097WAT      O48532   4.496   7.931   8.774
16097WAT     H148533   4.500   7.996   8.850
16097WAT     H248534   4.404   7.893   8.766
16098WAT      O48535   4.662   6.904   1.802
16098WAT     H148536   4.759   6.915   1.826
16098WAT     H248537   4.638   6.807   1.805
16099WAT      O48538   5.440   7.051   9.822
16099WAT     H148539   5.373   7.060   9.749
16099WAT     H248540   5.401   7.084   9.908
16100WAT      O48541   6.807   9.358   6.312
16100WAT     H148542   6.718   9.345   6.268
16100WAT     H248543   6.799   9.427   6.383
16101WAT      O48544   6.440   5.078   7.317
16101WAT     H148545   6.458   5.168   7.357
16101WAT     H248546   6.399   5.019   7.387
16102WAT      O48547   6.770   2.515   8.849
16102WAT     H148548   6.782   2.613   8.868
16102WAT     H248549   6.706   2.503   8.773
16103WAT      O48550   5.348   7.750   6.841
16103WAT     H148551   5.260   7.725   6.800
16103WAT     H248552   5.423   7.715   6.784
16104WAT      O48553   0.575   5.476   5.321
16104WAT     H148554   0.668   5.455   5.293
16104WAT     H248555   0.566   5.462   5.420
16105WAT      O48556   6.475   0.549   2.830
16105WAT     H148557   6.419   0.607   2.770
16105WAT     H248558   6.429   0.462   2.844
16106WAT      O48559   3.931   4.261   2.335
16106WAT     H148560   3.891   4.300   2.252
16106WAT     H248561   3.973   4.334   2.389
16107WAT      O48562   8.191   8.735   3.459
16107WAT     H148563   8.198   8.726   3.360
16107WAT     H248564   8.204   8.831   3.485
16108WAT      O48565   9.411   5.310   1.358
16108WAT     H148566   9.374   5.228   1.402
16108WAT     H248567   9.368   5.321   1.268
16109WAT      O48568   0.318   8.860   8.584
16109WAT     H148569   0.361   8.934   8.533
16109WAT     H248570   0.372   8.776   8.574
16110WAT      O48571   7.737   6.931   4.949
16110WAT     H148572   7.662   6.975   4.900
16110WAT     H248573   7.816   6.921   4.888
16111WAT      O48574   5.046   6.173   5.577
16111WAT     H148575   5.115   6.109   5.543
16111WAT     H248576   5.053   6.259   5.526
16112WAT      O48577   8.416   0.500   8.378
16112WAT     H148578   8.395   0.544   8.291
16112WAT     H248579   8.466   0.564   8.437
16113WAT      O48580   5.593   7.355   6.380
16113WAT     H148581   5.525   7.365   6.453
16113WAT     H248582   5.631   7.445   6.357
16114WAT      O48583   3.210   2.816   2.698
16114WAT     H148584   3.258   2.762   2.767
16114WAT     H248585   3.129   2.858   2.739
16115WAT      O48586   1.145   1.002   2.633
16115WAT     H148587   1.209   0.936   2.671
16115WAT     H248588   1.061   1.003   2.688
16116WAT      O48589   5.125   2.387   1.839
16116WAT     H148590   5.169   2.474   1.818
16116WAT     H248591   5.195   2.315   1.843
16117WAT      O48592   8.646   1.929   5.845
16117WAT     H148593   8.658   1.870   5.766
16117WAT     H248594   8.735   1.950   5.885
16118WAT      O48595   9.698   5.454   1.767
16118WAT     H148596   9.670   5.420   1.677
16118WAT     H248597   9.798   5.447   1.775
16119WAT      O48598   1.176   1.163   4.290
16119WAT     H148599   1.184   1.262   4.294
16119WAT     H248600   1.116   1.130   4.363
16120WAT      O48601   3.664   3.053   6.807
16120WAT     H148602   3.680   3.106   6.890
16120WAT     H248603   3.601   2.978   6.826
16121WAT      O48604   9.423   0.373   5.976
16121WAT     H148605   9.498   0.317   6.011
16121WAT     H248606   9.428   0.465   6.016
16122WAT      O48607   6.420   2.600   8.791
16122WAT     H148608   6.448   2.573   8.884
16122WAT     H248609   6.377   2.691   8.795
16123WAT      O48610   0.327   1.683   6.495
16123WAT     H148611   0.361   1.703   6.586
16123WAT     H248612   0.273   1.599   6.497
16124WAT      O48613   0.470   0.904   9.509
16124WAT     H148614   0.545   0.934   9.569
16124WAT     H248615   0.419   0.830   9.553
16125WAT      O48616   7.360   2.939   7.074
16125WAT     H148617   7.387   3.031   7.103
16125WAT     H248618   7.268   2.919   7.108
16126WAT      O48619   6.130   9.819   2.654
16126WAT     H148620   6.200   9.751   2.674
16126WAT     H248621   6.113   9.874   2.736
16127WAT      O48622   9.350   3.368   4.601
16127WAT     H148623   9.336   3.302   4.675
16127WAT     H248624   9.407   3.326   4.530
16128WAT      O48625   4.890   7.516   0.911
16128WAT     H148626   4.966   7.553   0.965
16128WAT     H248627   4.908   7.528   0.814
16129WAT      O48628   1.876   5.976   5.358
16129WAT     H148629   1.875   5.876   5.360
16129WAT     H248630   1.782   6.010   5.350
16130WAT      O48631   8.239   3.916   2.692
16130WAT     H148632   8.263   3.938   2.787
16130WAT     H248633   8.232   4.000   2.638
16131WAT      O48634   9.138   0.552   8.296
16131WAT     H148635   9.154   0.518   8.388
16131WAT     H248636   9.119   0.650   8.299
16132WAT      O48637   6.946   4.413   6.728
16132WAT     H148638   6.886   4.348   6.772
16132WAT     H248639   7.024   4.433   6.788
16133WAT      O48640   7.885   1.344   8.874
16133WAT     H148641   7.907   1.314   8.781
16133WAT     H248642   7.889   1.443   8.879
16134WAT      O48643   5.584   6.981   4.246
16134WAT     H148644   5.607   6.886   4.263
16134WAT     H248645   5.484   6.993   4.252
16135WAT      O48646   8.164   5.260   6.253
16135WAT     H148647   8.106   5.291   6.178
16135WAT     H248648   8.192   5.339   6.309
16136WAT      O48649   2.096   3.450   0.442
16136WAT     H148650   2.145   3.513   0.382
16136WAT     H248651   2.145   3.442   0.529
16137WAT      O48652   1.398   7.794   7.614
16137WAT     H148653   1.329   7.721   7.614
16137WAT     H248654   1.436   7.803   7.522
16138WAT      O48655   1.871   2.125   4.938
16138WAT     H148656   1.928   2.147   4.859
16138WAT     H248657   1.791   2.185   4.939
16139WAT      O48658   8.984   2.645   2.382
16139WAT     H148659   8.978   2.735   2.425
16139WAT     H248660   9.079   2.613   2.385
16140WAT      O48661   7.434   9.601   1.044
16140WAT     H148662   7.362   9.666   1.021
16140WAT     H248663   7.518   9.650   1.069
16141WAT      O48664   8.031   1.260   3.568
16141WAT     H148665   8.033   1.160   3.575
16141WAT     H248666   8.072   1.289   3.482
16142WAT      O48667   6.352   6.757   2.017
16142WAT     H148668   6.403   6.721   2.095
16142WAT     H248669   6.416   6.791   1.948
16143WAT      O48670   1.673   8.162   2.208
16143WAT     H148671   1.730   8.167   2.289
16143WAT     H248672   1.666   8.067   2.178
16144WAT      O48673   8.441   6.847   6.968
16144WAT     H148674   8.463   6.790   6.889
16144WAT     H248675   8.421   6.788   7.047
16145WAT      O48676   0.600   5.705   5.576
16145WAT     H148677   0.663   5.732   5.649
16145WAT     H248678   0.559   5.617   5.599
16146WAT      O48679   6.705   3.913   3.273
16146WAT     H148680   6.652   3.947   3.351
16146WAT     H248681   6.789   3.870   3.307
16147WAT      O48682   9.642   1.741   5.640
16147WAT     H148683   9.680   1.820   5.688
16147WAT     H248684   9.657   1.658   5.693
16148WAT      O48685   0.511   3.418   0.272
16148WAT     H148686   0.529   3.334   0.220
16148WAT     H248687   0.416   3.445   0.258
16149WAT      O48688   3.090   6.017   6.190
16149WAT     H148689   3.068   5.932   6.142
16149WAT     H248690   3.054   6.094   6.139
16150WAT      O48691   5.170   0.521   3.420
16150WAT     H148692   5.166   0.596   3.354
16150WAT     H248693   5.094   0.457   3.403
16151WAT      O48694   1.235   5.826   7.509
16151WAT     H148695   1.312   5.834   7.573
16151WAT     H248696   1.250   5.748   7.449
16152WAT      O48697   2.327   2.633   8.392
16152WAT     H148698   2.289   2.634   8.484
16152WAT     H248699   2.309   2.544   8.350
16153WAT      O48700   7.063   5.942   0.959
16153WAT     H148701   7.125   5.884   0.906
16153WAT     H248702   7.109   5.970   1.044
16154WAT      O48703   1.757   3.671   2.437
16154WAT     H148704   1.812   3.735   2.384
16154WAT     H248705   1.706   3.721   2.508
16155WAT      O48706   7.273   2.523   0.428
16155WAT     H148707   7.305   2.547   0.336
16155WAT     H248708   7.345   2.542   0.494
16156WAT      O48709   1.459   9.848   1.184
16156WAT     H148710   1.361   9.867   1.185
16156WAT     H248711   1.473   9.750   1.168
16157WAT      O48712   1.632   3.560   4.476
16157WAT     H148713   1.635   3.565   4.377
16157WAT     H248714   1.597   3.645   4.514
16158WAT      O48715   4.733   2.352   8.258
16158WAT     H148716   4.636   2.326   8.261
16158WAT     H248717   4.741   2.451   8.269
16159WAT      O48718   5.319   1.554   0.898
16159WAT     H148719   5.220   1.561   0.889
16159WAT     H248720   5.343   1.544   0.994
16160WAT      O48721   7.010   1.730   7.654
16160WAT     H148722   6.911   1.732   7.645
16160WAT     H248723   7.047   1.822   7.647
16161WAT      O48724   2.283   3.310   2.774
16161WAT     H148725   2.284   3.283   2.870
16161WAT     H248726   2.331   3.241   2.719
16162WAT      O48727   9.139   9.554   2.884
16162WAT     H148728   9.055   9.507   2.860
16162WAT     H248729   9.141   9.573   2.982
16163WAT      O48730   7.118   7.217   9.036
16163WAT     H148731   7.031   7.167   9.038
16163WAT     H248732   7.192   7.153   9.014
16164WAT      O48733   0.391   2.377   2.607
16164WAT     H148734   0.447   2.456   2.583
16164WAT     H248735   0.365   2.384   2.704
16165WAT      O48736   3.632   4.719   2.780
16165WAT     H148737   3.685   4.643   2.817
16165WAT     H248738   3.626   4.710   2.680
16166WAT      O48739   3.419   4.175   2.057
16166WAT     H148740   3.358   4.229   2.000
16166WAT     H248741   3.387   4.178   2.152
16167WAT      O48742   0.845   2.090   0.133
16167WAT     H148743   0.755   2.077   0.175
16167WAT     H248744   0.899   2.006   0.141
16168WAT      O48745   4.787   5.440   5.762
16168WAT     H148746   4.824   5.440   5.855
16168WAT     H248747   4.689   5.461   5.765
16169WAT      O48748   7.929   6.487   6.391
16169WAT     H148749   7.896   6.394   6.374
16169WAT     H248750   7.855   6.552   6.371
16170WAT      O48751   1.174   4.757   5.078
16170WAT     H148752   1.165   4.814   4.996
16170WAT     H248753   1.267   4.763   5.112
16171WAT      O48754   6.293   5.522   1.387
16171WAT     H148755   6.368   5.464   1.356
16171WAT     H248756   6.261   5.491   1.477
16172WAT      O48757   2.169   7.753   1.586
16172WAT     H148758   2.108   7.827   1.558
16172WAT     H248759   2.242   7.743   1.518
16173WAT      O48760   1.045   3.325   6.126
16173WAT     H148761   0.985   3.402   6.106
16173WAT     H248762   1.001   3.240   6.098
16174WAT      O48763   8.634   2.733   6.368
16174WAT     H148764   8.579   2.810   6.401
16174WAT     H248765   8.714   2.722   6.426
16175WAT      O48766   6.584   5.449   2.460
16175WAT     H148767   6.557   5.372   2.401
16175WAT     H248768   6.536   5.442   2.547
16176WAT      O48769   1.040   4.989   7.073
16176WAT     H148770   1.011   4.938   7.154
16176WAT     H248771   1.068   5.081   7.100
16177WAT      O48772   4.359   4.615   8.345
16177WAT     H148773   4.398   4.538   8.294
16177WAT     H248774   4.430   4.682   8.366
16178WAT      O48775   4.188   9.245   0.081
16178WAT     H148776   4.264   9.216   0.139
16178WAT     H248777   4.223   9.303   0.007
16179WAT      O48778   3.163   0.463   6.884
16179WAT     H148779   3.215   0.521   6.821
16179WAT     H248780   3.223   0.394   6.924
16180WAT      O48781   4.244   0.222   4.748
16180WAT     H148782   4.163   0.266   4.786
16180WAT     H248783   4.270   0.145   4.806
16181WAT      O48784   4.791   2.055   2.943
16181WAT     H148785   4.887   2.074   2.924
16181WAT     H248786   4.783   1.966   2.987
16182WAT      O48787   0.271   8.813   8.863
16182WAT     H148788   0.240   8.727   8.905
16182WAT     H248789   0.291   8.797   8.766
16183WAT      O48790   5.440   4.929   7.942
16183WAT     H148791   5.497   4.895   8.017
16183WAT     H248792   5.443   5.029   7.942
16184WAT      O48793   9.168   7.306   7.096
16184WAT     H148794   9.266   7.314   7.077
16184WAT     H248795   9.117   7.363   7.032
16185WAT      O48796   6.094   6.030   9.261
16185WAT     H148797   6.152   6.067   9.333
16185WAT     H248798   6.005   6.077   9.262
16186WAT      O48799   8.451   0.027   7.534
16186WAT     H148800   8.518  -0.036   7.574
16186WAT     H248801   8.377   0.042   7.599
16187WAT      O48802   6.466   0.464   2.519
16187WAT     H148803   6.456   0.388   2.583
16187WAT     H248804   6.474   0.428   2.426
16188WAT      O48805   4.902   6.856   0.788
16188WAT     H148806   4.813   6.859   0.744
16188WAT     H248807   4.937   6.949   0.799
16189WAT      O48808   7.081   7.349   3.085
16189WAT     H148809   7.143   7.412   3.133
16189WAT     H248810   6.987   7.373   3.106
16190WAT      O48811   3.673   6.783   7.791
16190WAT     H148812   3.720   6.703   7.754
16190WAT     H248813   3.731   6.825   7.861
16191WAT      O48814   6.454   2.115   3.308
16191WAT     H148815   6.452   2.179   3.231
16191WAT     H248816   6.413   2.028   3.281
16192WAT      O48817   6.411   9.549   7.192
16192WAT     H148818   6.442   9.470   7.244
16192WAT     H248819   6.480   9.621   7.195
16193WAT      O48820   7.102   5.606   0.046
16193WAT     H148821   7.006   5.594   0.018
16193WAT     H248822   7.132   5.525   0.096
16194WAT      O48823   3.967   3.495   4.072
16194WAT     H148824   3.995   3.579   4.117
16194WAT     H248825   3.895   3.515   4.006
16195WAT      O48826   9.625   4.993   6.832
16195WAT     H148827   9.543   4.955   6.789
16195WAT     H248828   9.624   4.971   6.930
16196WAT      O48829   1.327   5.550   3.457
16196WAT     H148830   1.307   5.473   3.396
16196WAT     H248831   1.272   5.630   3.429
16197WAT      O48832   6.131   2.288   7.242
16197WAT     H148833   6.151   2.276   7.145
16197WAT     H248834   6.209   2.328   7.288
16198WAT      O48835   1.202   2.857   6.141
16198WAT     H148836   1.274   2.888   6.078
16198WAT     H248837   1.128   2.816   6.088
16199WAT      O48838   0.952   9.112   4.877
16199WAT     H148839   0.872   9.053   4.864
16199WAT     H248840   0.963   9.170   4.796
16200WAT      O48841   5.849   5.200   7.031
16200WAT     H148842   5.839   5.106   7.064
16200WAT     H248843   5.887   5.200   6.938
16201WAT      O48844   0.353   2.395   2.881
16201WAT     H148845   0.431   2.333   2.895
16201WAT     H248846   0.345   2.455   2.961
16202WAT      O48847   5.262   0.210   3.833
16202WAT     H148848   5.226   0.222   3.740
16202WAT     H248849   5.282   0.300   3.872
16203WAT      O48850   5.643   0.847   2.852
16203WAT     H148851   5.545   0.853   2.870
16203WAT     H248852   5.671   0.922   2.793
16204WAT      O48853   5.152   9.150   0.391
16204WAT     H148854   5.104   9.211   0.327
16204WAT     H248855   5.088   9.116   0.460
16205WAT      O48856   0.814   8.765   5.211
16205WAT     H148857   0.847   8.702   5.140
16205WAT     H248858   0.893   8.801   5.261
16206WAT      O48859   7.410   5.231   0.701
16206WAT     H148860   7.321   5.209   0.661
16206WAT     H248861   7.436   5.324   0.675
16207WAT      O48862   8.078   4.362   7.600
16207WAT     H148863   8.154   4.419   7.630
16207WAT     H248864   8.016   4.347   7.676
16208WAT      O48865   0.255   6.738   1.608
16208WAT     H148866   0.318   6.809   1.640
16208WAT     H248867   0.166   6.778   1.589
16209WAT      O48868   2.541   0.376   0.765
16209WAT     H148869   2.448   0.357   0.798
16209WAT     H248870   2.536   0.435   0.684
16210WAT      O48871   5.523   7.387   4.691
16210WAT     H148872   5.429   7.391   4.725
16210WAT     H248873   5.582   7.351   4.763
16211WAT      O48874   6.049   9.180   6.688
16211WAT     H148875   6.039   9.101   6.628
16211WAT     H248876   5.987   9.253   6.657
16212WAT      O48877   2.065   7.416   0.091
16212WAT     H148878   2.038   7.320   0.089
16212WAT     H248879   2.038   7.457   0.178
16213WAT      O48880   1.532   9.580   1.117
16213WAT     H148881   1.472   9.528   1.056
16213WAT     H248882   1.591   9.516   1.168
16214WAT      O48883   6.036   4.232   1.684
16214WAT     H148884   6.019   4.272   1.594
16214WAT     H248885   6.125   4.186   1.683
16215WAT      O48886   3.630   8.707   2.195
16215WAT     H148887   3.660   8.801   2.213
16215WAT     H248888   3.702   8.643   2.221
16216WAT      O48889   3.122   9.133   9.129
16216WAT     H148890   3.193   9.069   9.101
16216WAT     H248891   3.163   9.205   9.185
16217WAT      O48892   3.493   3.661   3.659
16217WAT     H148893   3.524   3.612   3.741
16217WAT     H248894   3.408   3.709   3.679
16218WAT      O48895   7.398   4.111   7.594
16218WAT     H148896   7.352   4.199   7.608
16218WAT     H248897   7.346   4.039   7.642
16219WAT      O48898   3.702   2.854   8.238
16219WAT     H148899   3.744   2.840   8.328
16219WAT     H248900   3.693   2.766   8.191
16220WAT      O48901   1.174   7.639   1.871
16220WAT     H148902   1.122   7.624   1.955
16220WAT     H248903   1.264   7.596   1.879
16221WAT      O48904   5.207   6.883   5.358
16221WAT     H148905   5.194   6.974   5.399
16221WAT     H248906   5.270   6.891   5.281
16222WAT      O48907   6.019   7.178   7.705
16222WAT     H148908   6.013   7.277   7.716
16222WAT     H248909   6.103   7.154   7.656
16223WAT      O48910   1.040   9.474   2.823
16223WAT     H148911   1.127   9.511   2.789
16223WAT     H248912   1.033   9.492   2.921
16224WAT      O48913   1.324   9.573   2.781
16224WAT     H148914   1.323   9.619   2.692
16224WAT     H248915   1.406   9.517   2.789
16225WAT      O48916   7.685   3.118   5.499
16225WAT     H148917   7.645   3.028   5.519
16225WAT     H248918   7.664   3.181   5.574
16226WAT      O48919   1.603   8.931   2.248
16226WAT     H148920   1.534   9.001   2.231
16226WAT     H248921   1.584   8.886   2.335
16227WAT      O48922   1.456   0.514   1.748
16227WAT     H148923   1.548   0.481   1.728
16227WAT     H248924   1.452   0.544   1.843
16228WAT      O48925   0.423   3.760   7.770
16228WAT     H148926   0.478   3.811   7.703
16228WAT     H248927   0.459   3.667   7.777
16229WAT      O48928   3.606   5.423   6.500
16229WAT     H148929   3.644   5.488   6.565
16229WAT     H248930   3.516   5.393   6.531
16230WAT      O48931   2.022   8.654   4.127
16230WAT     H148932   2.013   8.687   4.220
16230WAT     H248933   2.062   8.725   4.069
16231WAT      O48934   3.352   1.277   7.407
16231WAT     H148935   3.394   1.200   7.359
16231WAT     H248936   3.421   1.321   7.465
16232WAT      O48937   5.644   2.099   8.672
16232WAT     H148938   5.600   2.010   8.656
16232WAT     H248939   5.655   2.147   8.585
16233WAT      O48940   1.850   5.721   5.421
16233WAT     H148941   1.864   5.632   5.378
16233WAT     H248942   1.766   5.719   5.475
16234WAT      O48943   3.872   7.643   8.994
16234WAT     H148944   3.964   7.628   9.032
16234WAT     H248945   3.841   7.559   8.949
16235WAT      O48946   4.160   3.863   4.826
16235WAT     H148947   4.065   3.893   4.825
16235WAT     H248948   4.186   3.831   4.735
16236WAT      O48949   4.738   2.394   6.185
16236WAT     H148950   4.713   2.461   6.115
16236WAT     H248951   4.802   2.328   6.146
16237WAT      O48952   7.447   8.910   7.049
16237WAT     H148953   7.542   8.936   7.067
16237WAT     H248954   7.444   8.843   6.974
16238WAT      O48955   3.856   5.761   8.463
16238WAT     H148956   3.938   5.799   8.504
16238WAT     H248957   3.781   5.827   8.469
16239WAT      O48958   9.607   5.817   8.505
16239WAT     H148959   9.529   5.832   8.446
16239WAT     H248960   9.619   5.719   8.521
16240WAT      O48961   9.268   8.968   9.692
16240WAT     H148962   9.195   8.900   9.681
16240WAT     H248963   9.250   9.046   9.631
16241WAT      O48964   9.138   4.773   3.395
16241WAT     H148965   9.233   4.786   3.424
16241WAT     H248966   9.080   4.758   3.475
16242WAT      O48967   9.400   7.990   1.932
16242WAT     H148968   9.493   8.019   1.955
16242WAT     H248969   9.336   8.065   1.948
16243WAT      O48970   5.643   7.275   6.125
16243WAT     H148971   5.639   7.328   6.040
16243WAT     H248972   5.643   7.338   6.203
16244WAT      O48973   8.349   0.269   7.674
16244WAT     H148974   8.390   0.345   7.623
16244WAT     H248975   8.270   0.302   7.726
16245WAT      O48976   7.166   4.271   9.014
16245WAT     H148977   7.187   4.217   9.096
16245WAT     H248978   7.073   4.307   9.021
16246WAT      O48979   4.307   2.503   8.952
16246WAT     H148980   4.344   2.437   8.886
16246WAT     H248981   4.240   2.562   8.907
16247WAT      O48982   7.192   4.239   2.019
16247WAT     H148983   7.195   4.317   1.958
16247WAT     H248984   7.238   4.262   2.105
16248WAT      O48985   9.018   1.533   1.131
16248WAT     H148986   8.923   1.526   1.101
16248WAT     H248987   9.021   1.531   1.231
16249WAT      O48988   6.772   4.658   9.617
16249WAT     H148989   6.846   4.692   9.675
16249WAT     H248990   6.684   4.677   9.660
16250WAT      O48991   9.534   2.400   6.501
16250WAT     H148992   9.546   2.313   6.549
16250WAT     H248993   9.564   2.475   6.560
16251WAT      O48994   6.995   3.139   5.560
16251WAT     H148995   7.089   3.153   5.530
16251WAT     H248996   6.994   3.109   5.656
16252WAT      O48997   7.180   1.848   6.331
16252WAT     H148998   7.269   1.823   6.371
16252WAT     H248999   7.157   1.942   6.356
16253WAT      O49000   7.644   4.500   6.638
16253WAT     H149001   7.650   4.587   6.589
16253WAT     H249002   7.668   4.516   6.734
16254WAT      O49003   8.330   2.272   3.057
16254WAT     H149004   8.268   2.303   2.985
16254WAT     H249005   8.362   2.351   3.110
16255WAT      O49006   1.144   6.984   0.808
16255WAT     H149007   1.194   6.922   0.868
16255WAT     H249008   1.134   6.943   0.718
16256WAT      O49009   2.255   3.676   6.672
16256WAT     H149010   2.203   3.727   6.740
16256WAT     H249011   2.351   3.675   6.697
16257WAT      O49012   1.582   3.876   3.425
16257WAT     H149013   1.571   3.824   3.510
16257WAT     H249014   1.656   3.836   3.371
16258WAT      O49015   1.955   7.528   6.247
16258WAT     H149016   2.024   7.475   6.197
16258WAT     H249017   1.969   7.517   6.345
16259WAT      O49018   3.593   8.657   3.344
16259WAT     H149019   3.631   8.611   3.424
16259WAT     H249020   3.548   8.742   3.371
16260WAT      O49021   9.588   1.751   4.710
16260WAT     H149022   9.497   1.788   4.693
16260WAT     H249023   9.597   1.728   4.807
16261WAT      O49024   6.588   0.062   1.450
16261WAT     H149025   6.573   0.158   1.428
16261WAT     H249026   6.500   0.017   1.465
16262WAT      O49027   6.487   3.532   2.554
16262WAT     H149028   6.585   3.541   2.533
16262WAT     H249029   6.461   3.602   2.621
16263WAT      O49030   2.873   7.964   5.135
16263WAT     H149031   2.830   7.884   5.175
16263WAT     H249032   2.937   8.004   5.200
16264WAT      O49033   8.400   0.067   3.217
16264WAT     H149034   8.448   0.133   3.275
16264WAT     H249035   8.460   0.039   3.141
16265WAT      O49036   6.988   5.445   7.409
16265WAT     H149037   7.050   5.374   7.443
16265WAT     H249038   6.896   5.429   7.443
16266WAT      O49039   5.626   0.100   8.409
16266WAT     H149040   5.607   0.103   8.507
16266WAT     H249041   5.650   0.192   8.377
16267WAT      O49042   9.022   6.127   6.835
16267WAT     H149043   9.075   6.169   6.762
16267WAT     H249044   9.083   6.099   6.909
16268WAT      O49045   1.282   6.604   4.094
16268WAT     H149046   1.360   6.594   4.156
16268WAT     H249047   1.197   6.588   4.144
16269WAT      O49048   5.957   5.535   3.506
16269WAT     H149049   5.908   5.485   3.434
16269WAT     H249050   5.920   5.508   3.595
16270WAT      O49051   3.272   4.056   8.836
16270WAT     H149052   3.368   4.083   8.826
16270WAT     H249053   3.214   4.119   8.784
16271WAT      O49054   1.945   4.358   1.211
16271WAT     H149055   2.029   4.400   1.245
16271WAT     H249056   1.933   4.268   1.253
16272WAT      O49057   4.042   0.502   3.590
16272WAT     H149058   4.116   0.448   3.550
16272WAT     H249059   3.965   0.506   3.526
16273WAT      O49060   8.186   2.529   7.936
16273WAT     H149061   8.179   2.459   7.866
16273WAT     H249062   8.122   2.509   8.010
16274WAT      O49063   2.518   6.378   6.039
16274WAT     H149064   2.431   6.361   5.992
16274WAT     H249065   2.593   6.373   5.973
16275WAT      O49066   3.816   8.907   0.853
16275WAT     H149067   3.889   8.972   0.834
16275WAT     H249068   3.756   8.943   0.924
16276WAT      O49069   5.674   4.938   4.938
16276WAT     H149070   5.771   4.953   4.919
16276WAT     H249071   5.664   4.869   5.009
16277WAT      O49072   9.563   3.918   2.578
16277WAT     H149073   9.639   3.949   2.635
16277WAT     H249074   9.505   3.857   2.631
16278WAT      O49075   2.644   0.366   8.762
16278WAT     H149076   2.717   0.341   8.826
16278WAT     H249077   2.679   0.358   8.668
16279WAT      O49078   3.026   7.473   8.492
16279WAT     H149079   2.958   7.480   8.566
16279WAT     H249080   2.978   7.463   8.405
16280WAT      O49081   5.463   0.984   4.617
16280WAT     H149082   5.368   0.965   4.644
16280WAT     H249083   5.515   0.899   4.620
16281WAT      O49084   3.432   0.428   4.853
16281WAT     H149085   3.394   0.451   4.943
16281WAT     H249086   3.496   0.352   4.863
16282WAT      O49087   4.537   0.352   5.586
16282WAT     H149088   4.618   0.386   5.634
16282WAT     H249089   4.555   0.348   5.488
16283WAT      O49090   1.408   5.068   3.740
16283WAT     H149091   1.367   4.977   3.745
16283WAT     H249092   1.356   5.125   3.676
16284WAT      O49093   4.150   4.468   2.046
16284WAT     H149094   4.242   4.455   2.007
16284WAT     H249095   4.156   4.469   2.146
16285WAT      O49096   3.939   5.761   2.520
16285WAT     H149097   3.926   5.662   2.532
16285WAT     H249098   4.037   5.782   2.525
16286WAT      O49099   7.821   7.292   3.692
16286WAT     H149100   7.742   7.305   3.632
16286WAT     H249101   7.862   7.203   3.676
16287WAT      O49102   0.056   4.433   9.662
16287WAT     H149103   0.038   4.431   9.563
16287WAT     H249104   0.102   4.518   9.685
16288WAT      O49105   1.132   8.445   0.919
16288WAT     H149106   1.213   8.497   0.944
16288WAT     H249107   1.109   8.461   0.823
16289WAT      O49108   8.774   3.756   5.035
16289WAT     H149109   8.844   3.697   5.075
16289WAT     H249110   8.792   3.851   5.062
16290WAT      O49111   0.251   5.529   3.534
16290WAT     H149112   0.243   5.577   3.447
16290WAT     H249113   0.230   5.591   3.609
16291WAT      O49114   3.925   1.911   3.690
16291WAT     H149115   3.894   1.883   3.599
16291WAT     H249116   3.988   1.842   3.725
16292WAT      O49117   4.158   6.319   2.367
16292WAT     H149118   4.176   6.383   2.292
16292WAT     H249119   4.100   6.245   2.335
16293WAT      O49120   5.455   1.779   7.715
16293WAT     H149121   5.476   1.870   7.751
16293WAT     H249122   5.540   1.733   7.690
16294WAT      O49123   6.517   1.559   6.677
16294WAT     H149124   6.477   1.477   6.635
16294WAT     H249125   6.449   1.605   6.734
16295WAT      O49126   8.231   4.025   0.493
16295WAT     H149127   8.320   3.988   0.518
16295WAT     H249128   8.203   4.093   0.561
16296WAT      O49129   5.383   0.998   1.154
16296WAT     H149130   5.336   0.953   1.230
16296WAT     H249131   5.461   0.942   1.126
16297WAT      O49132   5.904   3.560   4.719
16297WAT     H149133   5.904   3.654   4.685
16297WAT     H249134   5.835   3.506   4.670
16298WAT      O49135   8.681   0.871   2.446
16298WAT     H149136   8.708   0.853   2.351
16298WAT     H249137   8.763   0.884   2.502
16299WAT      O49138   4.413   4.119   0.675
16299WAT     H149139   4.501   4.074   0.663
16299WAT     H249140   4.376   4.097   0.765
16300WAT      O49141   3.247   3.754   3.808
16300WAT     H149142   3.296   3.710   3.883
16300WAT     H249143   3.199   3.685   3.754
16301WAT      O49144   7.286   9.232   4.706
16301WAT     H149145   7.294   9.212   4.608
16301WAT     H249146   7.219   9.305   4.719
16302WAT      O49147   0.732   2.954   5.824
16302WAT     H149148   0.641   2.956   5.864
16302WAT     H249149   0.791   2.894   5.879
16303WAT      O49150   0.202   0.213   0.716
16303WAT     H149151   0.123   0.164   0.679
16303WAT     H249152   0.266   0.147   0.756
16304WAT      O49153   7.679   8.608   3.552
16304WAT     H149154   7.755   8.555   3.516
16304WAT     H249155   7.593   8.559   3.536
16305WAT      O49156   9.532   5.324   8.417
16305WAT     H149157   9.628   5.299   8.408
16305WAT     H249158   9.476   5.241   8.416
16306WAT      O49159   7.031   9.736   0.042
16306WAT     H149160   6.953   9.761  -0.015
16306WAT     H249161   7.100   9.807   0.038
16307WAT      O49162   1.658   9.682   2.077
16307WAT     H149163   1.729   9.753   2.078
16307WAT     H249164   1.695   9.599   2.034
16308WAT      O49165   1.859   5.152   8.916
16308WAT     H149166   1.881   5.143   8.818
16308WAT     H249167   1.766   5.118   8.932
16309WAT      O49168   3.156   1.118   7.551
16309WAT     H149169   3.199   1.044   7.603
16309WAT     H249170   3.227   1.176   7.512
16310WAT      O49171   3.128   4.164   6.735
16310WAT     H149172   3.224   4.162   6.706
16310WAT     H249173   3.094   4.257   6.731
16311WAT      O49174   4.004   9.833   0.300
16311WAT     H149175   4.067   9.904   0.332
16311WAT     H249176   3.996   9.762   0.370
16312WAT      O49177   2.900   9.150   1.869
16312WAT     H149178   2.922   9.113   1.779
16312WAT     H249179   2.941   9.092   1.940
16313WAT      O49180   6.196   3.722   7.519
16313WAT     H149181   6.146   3.808   7.521
16313WAT     H249182   6.146   3.656   7.462
16314WAT      O49183   7.075   3.169   1.116
16314WAT     H149184   7.025   3.224   1.050
16314WAT     H249185   7.151   3.122   1.070
16315WAT      O49186   2.802   3.707   1.619
16315WAT     H149187   2.799   3.757   1.706
16315WAT     H249188   2.880   3.645   1.619
16316WAT      O49189   8.556   3.403   2.431
16316WAT     H149190   8.515   3.493   2.418
16316WAT     H249191   8.527   3.366   2.519
16317WAT      O49192   1.785   7.702   0.390
16317WAT     H149193   1.733   7.787   0.383
16317WAT     H249194   1.742   7.641   0.456
16318WAT      O49195   9.454   1.160   7.374
16318WAT     H149196   9.522   1.139   7.444
16318WAT     H249197   9.364   1.128   7.404
16319WAT      O49198   6.080   6.326   4.292
16319WAT     H149199   6.167   6.355   4.333
16319WAT     H249200   6.010   6.322   4.363
16320WAT      O49201   0.460   5.920   4.394
16320WAT     H149202   0.481   5.862   4.315
16320WAT     H249203   0.482   6.015   4.372
16321WAT      O49204   5.345   4.991   8.355
16321WAT     H149205   5.433   4.998   8.309
16321WAT     H249206   5.317   4.895   8.359
16322WAT      O49207   1.524   4.671   5.089
16322WAT     H149208   1.571   4.721   5.162
16322WAT     H249209   1.520   4.574   5.112
16323WAT      O49210   8.168   2.901   7.783
16323WAT     H149211   8.213   2.832   7.840
16323WAT     H249212   8.072   2.910   7.810
16324WAT      O49213   0.087   7.887   4.448
16324WAT     H149214   0.126   7.795   4.452
16324WAT     H249215   0.102   7.926   4.357
16325WAT      O49216   2.102   6.473   3.070
16325WAT     H149217   2.089   6.496   2.974
16325WAT     H249218   2.195   6.441   3.085
16326WAT      O49219   8.342   7.351   7.179
16326WAT     H149220   8.389   7.316   7.098
16326WAT     H249221   8.357   7.450   7.186
16327WAT      O49222   7.027   6.060   5.467
16327WAT     H149223   7.094   6.111   5.521
16327WAT     H249224   6.944   6.114   5.458
16328WAT      O49225   6.001   3.386   2.368
16328WAT     H149226   6.055   3.302   2.378
16328WAT     H249227   5.958   3.388   2.278
16329WAT      O49228   0.102   3.998   8.472
16329WAT     H149229   0.046   4.056   8.531
16329WAT     H249230   0.062   3.907   8.467
16330WAT      O49231   8.312   1.356   5.971
16330WAT     H149232   8.383   1.426   5.976
16330WAT     H249233   8.222   1.400   5.973
16331WAT      O49234   4.880   5.953   9.007
16331WAT     H149235   4.958   5.955   9.069
16331WAT     H249236   4.913   5.958   8.913
16332WAT      O49237   0.013   1.349   0.815
16332WAT     H149238  -0.025   1.267   0.857
16332WAT     H249239  -0.056   1.392   0.757
16333WAT      O49240   9.768   1.066   4.840
16333WAT     H149241   9.775   1.147   4.900
16333WAT     H249242   9.774   1.095   4.745
16334WAT      O49243   1.386   0.885   8.557
16334WAT     H149244   1.328   0.804   8.567
16334WAT     H249245   1.399   0.904   8.459
16335WAT      O49246   5.922   4.011   3.597
16335WAT     H149247   5.993   4.007   3.526
16335WAT     H249248   5.834   4.031   3.555
16336WAT      O49249   7.800   2.411   5.565
16336WAT     H149250   7.897   2.410   5.543
16336WAT     H249251   7.785   2.471   5.644
16337WAT      O49252   1.683   2.101   6.532
16337WAT     H149253   1.602   2.085   6.589
16337WAT     H249254   1.668   2.062   6.441
16338WAT      O49255   5.816   5.751   0.925
16338WAT     H149256   5.815   5.690   1.004
16338WAT     H249257   5.732   5.805   0.924
16339WAT      O49258   1.905   7.193   5.486
16339WAT     H149259   1.904   7.293   5.481
16339WAT     H249260   1.898   7.155   5.394
16340WAT      O49261   2.602   2.727   5.792
16340WAT     H149262   2.504   2.708   5.799
16340WAT     H249263   2.617   2.802   5.728
16341WAT      O49264   3.864   0.482   1.206
16341WAT     H149265   3.843   0.451   1.113
16341WAT     H249266   3.842   0.410   1.271
16342WAT      O49267   7.210   1.773   5.567
16342WAT     H149268   7.130   1.717   5.589
16342WAT     H249269   7.217   1.849   5.632
16343WAT      O49270   0.750   2.408   4.868
16343WAT     H149271   0.749   2.335   4.935
16343WAT     H249272   0.728   2.372   4.778
16344WAT      O49273   3.708   0.050   6.290
16344WAT     H149274   3.763  -0.004   6.353
16344WAT     H249275   3.646  -0.010   6.240
16345WAT      O49276   9.647   9.482   1.049
16345WAT     H149277   9.717   9.523   1.107
16345WAT     H249278   9.643   9.531   0.962
16346WAT      O49279   2.086   6.942   6.132
16346WAT     H149280   2.132   6.868   6.180
16346WAT     H249281   2.041   6.907   6.050
16347WAT      O49282   5.926   6.191   8.456
16347WAT     H149283   5.861   6.220   8.385
16347WAT     H249284   5.906   6.098   8.485
16348WAT      O49285   9.568   7.905   3.490
16348WAT     H149286   9.660   7.869   3.504
16348WAT     H249287   9.502   7.845   3.534
16349WAT      O49288   6.150   1.411   8.717
16349WAT     H149289   6.240   1.383   8.683
16349WAT     H249290   6.083   1.339   8.696
16350WAT      O49291   6.536   7.386   3.908
16350WAT     H149292   6.491   7.348   3.828
16350WAT     H249293   6.624   7.424   3.882
16351WAT      O49294   9.137   8.015   0.977
16351WAT     H149295   9.165   7.943   0.914
16351WAT     H249296   9.219   8.062   1.012
16352WAT      O49297   6.309   9.203   0.972
16352WAT     H149298   6.221   9.163   0.999
16352WAT     H249299   6.352   9.144   0.904
16353WAT      O49300   7.781   7.243   1.115
16353WAT     H149301   7.693   7.208   1.150
16353WAT     H249302   7.828   7.293   1.187
16354WAT      O49303   8.422   0.424   0.628
16354WAT     H149304   8.336   0.471   0.647
16354WAT     H249305   8.426   0.398   0.532
16355WAT      O49306   3.321   8.228   7.969
16355WAT     H149307   3.321   8.264   7.876
16355WAT     H249308   3.404   8.258   8.017
16356WAT      O49309   8.905   3.024   0.649
16356WAT     H149310   8.882   2.950   0.712
16356WAT     H249311   9.004   3.029   0.640
16357WAT      O49312   8.375   6.444   6.946
16357WAT     H149313   8.284   6.436   6.986
16357WAT     H249314   8.382   6.530   6.896
16358WAT      O49315   9.855   0.368   9.205
16358WAT     H149316   9.780   0.342   9.144
16358WAT     H249317   9.845   0.463   9.232
16359WAT      O49318   2.129   0.096   3.091
16359WAT     H149319   2.111   0.135   3.181
16359WAT     H249320   2.061   0.128   3.026
16360WAT      O49321   0.416   9.670   4.943
16360WAT     H149322   0.388   9.764   4.925
16360WAT     H249323   0.496   9.671   5.003
16361WAT      O49324   1.288   8.749   2.244
16361WAT     H149325   1.318   8.756   2.339
16361WAT     H249326   1.226   8.824   2.223
16362WAT      O49327   1.444   1.834   1.811
16362WAT     H149328   1.512   1.835   1.884
16362WAT     H249329   1.354   1.814   1.850
16363WAT      O49330   7.968   7.620   2.072
16363WAT     H149331   7.893   7.684   2.090
16363WAT     H249332   8.041   7.667   2.021
16364WAT      O49333   6.518   1.344   5.930
16364WAT     H149334   6.420   1.354   5.948
16364WAT     H249335   6.544   1.248   5.935
16365WAT      O49336   5.745   4.335   9.444
16365WAT     H149337   5.694   4.324   9.529
16365WAT     H249338   5.795   4.421   9.446
16366WAT      O49339   1.810   9.521   0.035
16366WAT     H149340   1.733   9.479  -0.013
16366WAT     H249341   1.885   9.455   0.042
16367WAT      O49342   9.549   1.248   9.691
16367WAT     H149343   9.626   1.216   9.747
16367WAT     H249344   9.572   1.239   9.595
16368WAT      O49345   9.081   9.190   2.699
16368WAT     H149346   8.994   9.211   2.743
16368WAT     H249347   9.097   9.254   2.623
16369WAT      O49348   1.501   1.564   6.885
16369WAT     H149349   1.448   1.520   6.813
16369WAT     H249350   1.563   1.498   6.926
16370WAT      O49351   6.920   5.796   4.103
16370WAT     H149352   6.918   5.882   4.155
16370WAT     H249353   6.964   5.812   4.014
16371WAT      O49354   3.277   3.184   0.155
16371WAT     H149355   3.348   3.114   0.157
16371WAT     H249356   3.314   3.271   0.189
16372WAT      O49357   0.678   8.853   7.646
16372WAT     H149358   0.704   8.875   7.552
16372WAT     H249359   0.676   8.936   7.701
16373WAT      O49360   3.000   2.120   4.670
16373WAT     H149361   3.033   2.099   4.578
16373WAT     H249362   3.041   2.057   4.735
16374WAT      O49363   7.480   9.236   3.584
16374WAT     H149364   7.459   9.180   3.503
16374WAT     H249365   7.567   9.283   3.569
16375WAT      O49366   1.069   1.626   2.521
16375WAT     H149367   1.016   1.611   2.438
16375WAT     H249368   1.017   1.594   2.600
16376WAT      O49369   0.995   3.281   5.303
16376WAT     H149370   0.941   3.365   5.296
16376WAT     H249371   1.029   3.271   5.397
16377WAT      O49372   0.735   8.014   2.622
16377WAT     H149373   0.651   7.987   2.575
16377WAT     H249374   0.814   7.982   2.571
16378WAT      O49375   9.458   2.824   1.619
16378WAT     H149376   9.489   2.862   1.531
16378WAT     H249377   9.360   2.839   1.629
16379WAT      O49378   2.458   8.353   0.844
16379WAT     H149379   2.392   8.413   0.798
16379WAT     H249380   2.436   8.258   0.823
16380WAT      O49381   5.295   6.739   9.079
16380WAT     H149382   5.352   6.792   9.142
16380WAT     H249383   5.276   6.793   8.998
16381WAT      O49384   8.143   9.432   7.352
16381WAT     H149385   8.116   9.432   7.448
16381WAT     H249386   8.140   9.338   7.316
16382WAT      O49387   0.360   3.683   5.580
16382WAT     H149388   0.288   3.722   5.638
16382WAT     H249389   0.450   3.710   5.615
16383WAT      O49390   1.969   8.064   7.438
16383WAT     H149391   2.042   8.128   7.465
16383WAT     H249392   2.009   7.989   7.385
16384WAT      O49393   4.253   2.995   8.748
16384WAT     H149394   4.223   3.060   8.678
16384WAT     H249395   4.338   2.951   8.718
16385WAT      O49396   0.300   5.328   4.795
16385WAT     H149397   0.321   5.344   4.891
16385WAT     H249398   0.379   5.286   4.750
16386WAT      O49399   7.452   0.443   1.328
16386WAT     H149400   7.461   0.402   1.237
16386WAT     H249401   7.409   0.533   1.319
16387WAT      O49402   7.792   9.463   5.930
16387WAT     H149403   7.765   9.369   5.951
16387WAT     H249404   7.840   9.503   6.008
16388WAT      O49405   5.276   2.531   6.347
16388WAT     H149406   5.232   2.443   6.326
16388WAT     H249407   5.344   2.551   6.277
16389WAT      O49408   9.844   9.043   2.344
16389WAT     H149409   9.762   9.082   2.386
16389WAT     H249410   9.820   8.997   2.259
16390WAT      O49411   2.011   5.300   8.654
16390WAT     H149412   1.967   5.209   8.650
16390WAT     H249413   2.065   5.314   8.571
16391WAT      O49414   5.345   0.960   5.803
16391WAT     H149415   5.358   1.014   5.886
16391WAT     H249416   5.257   0.983   5.761
16392WAT      O49417   4.857   9.444   8.526
16392WAT     H149418   4.823   9.381   8.596
16392WAT     H249419   4.957   9.445   8.527
16393WAT      O49420   0.596   9.211   8.655
16393WAT     H149421   0.673   9.153   8.682
16393WAT     H249422   0.618   9.306   8.676
16394WAT      O49423   0.235   1.778   8.108
16394WAT     H149424   0.309   1.713   8.121
16394WAT     H249425   0.167   1.767   8.180
16395WAT      O49426   6.958   2.155   2.359
16395WAT     H149427   6.946   2.059   2.334
16395WAT     H249428   6.869   2.198   2.374
16396WAT      O49429   6.720   4.605   4.429
16396WAT     H149430   6.645   4.541   4.410
16396WAT     H249431   6.795   4.556   4.472
16397WAT      O49432   5.607   9.316   9.871
16397WAT     H149433   5.604   9.360   9.960
16397WAT     H249434   5.647   9.379   9.804
16398WAT      O49435   4.791   8.567   6.367
16398WAT     H149436   4.805   8.508   6.446
16398WAT     H249437   4.702   8.613   6.375
16399WAT      O49438   1.204   8.360   6.241
16399WAT     H149439   1.217   8.360   6.341
16399WAT     H249440   1.129   8.421   6.218
16400WAT      O49441   7.303   1.303   8.221
16400WAT     H149442   7.378   1.366   8.201
16400WAT     H249443   7.217   1.353   8.224
16401WAT      O49444   6.363   5.262   5.105
16401WAT     H149445   6.456   5.277   5.136
16401WAT     H249446   6.298   5.299   5.172
16402WAT      O49447   3.877   5.939   3.507
16402WAT     H149448   3.968   5.977   3.526
16402WAT     H249449   3.810   6.013   3.504
16403WAT      O49450   6.531   5.494   9.384
16403WAT     H149451   6.557   5.405   9.420
16403WAT     H249452   6.553   5.565   9.452
16404WAT      O49453   8.659   1.294   3.373
16404WAT     H149454   8.666   1.194   3.384
16404WAT     H249455   8.751   1.333   3.372
16405WAT      O49456   9.220   4.987   7.444
16405WAT     H149457   9.276   5.052   7.495
16405WAT     H249458   9.214   4.901   7.494
16406WAT      O49459   9.510   4.858   0.834
16406WAT     H149460   9.449   4.862   0.755
16406WAT     H249461   9.564   4.774   0.831
16407WAT      O49462   0.565   5.458   0.442
16407WAT     H149463   0.661   5.486   0.445
16407WAT     H249464   0.543   5.424   0.351
16408WAT      O49465   9.369   8.639   1.994
16408WAT     H149466   9.335   8.720   2.040
16408WAT     H249467   9.432   8.590   2.054
16409WAT      O49468   4.835   6.910   8.237
16409WAT     H149469   4.835   6.962   8.152
16409WAT     H249470   4.744   6.911   8.277
16410WAT      O49471   5.632   2.739   9.494
16410WAT     H149472   5.666   2.833   9.503
16410WAT     H249473   5.609   2.704   9.585
16411WAT      O49474   4.354   7.893   4.440
16411WAT     H149475   4.359   7.907   4.539
16411WAT     H249476   4.443   7.911   4.399
16412WAT      O49477   8.770   9.001   3.521
16412WAT     H149478   8.712   8.922   3.502
16412WAT     H249479   8.715   9.074   3.561
16413WAT      O49480   3.551   3.114   4.820
16413WAT     H149481   3.592   3.170   4.748
16413WAT     H249482   3.590   3.022   4.816
16414WAT      O49483   8.555   8.390   4.469
16414WAT     H149484   8.536   8.302   4.512
16414WAT     H249485   8.478   8.416   4.410
16415WAT      O49486   7.764   2.299   3.475
16415WAT     H149487   7.715   2.366   3.419
16415WAT     H249488   7.814   2.236   3.416
16416WAT      O49489   1.594   9.579   6.536
16416WAT     H149490   1.581   9.578   6.437
16416WAT     H249491   1.506   9.567   6.581
16417WAT      O49492   5.880   8.252   4.596
16417WAT     H149493   5.951   8.217   4.536
16417WAT     H249494   5.870   8.351   4.583
16418WAT      O49495   9.360   9.632   0.347
16418WAT     H149496   9.372   9.605   0.251
16418WAT     H249497   9.339   9.730   0.352
16419WAT      O49498   6.456   0.961   3.976
16419WAT     H149499   6.392   0.972   3.900
16419WAT     H249500   6.436   1.029   4.047
16420WAT      O49501   5.805   3.567   7.428
16420WAT     H149502   5.711   3.555   7.397
16420WAT     H249503   5.822   3.663   7.449
16421WAT      O49504   8.184   3.150   4.731
16421WAT     H149505   8.220   3.057   4.737
16421WAT     H249506   8.153   3.167   4.638
16422WAT      O49507   6.205   1.504   1.699
16422WAT     H149508   6.191   1.530   1.604
16422WAT     H249509   6.140   1.432   1.724
16423WAT      O49510   8.678   2.671   7.066
16423WAT     H149511   8.582   2.643   7.075
16423WAT     H249512   8.688   2.766   7.095
16424WAT      O49513   5.872   0.658   8.137
16424WAT     H149514   5.811   0.710   8.196
16424WAT     H249515   5.925   0.720   8.079
16425WAT      O49516   0.051   1.364   0.141
16425WAT     H149517   0.143   1.399   0.123
16425WAT     H249518  -0.016   1.437   0.129
16426WAT      O49519   1.218   2.573   4.994
16426WAT     H149520   1.139   2.520   4.963
16426WAT     H249521   1.285   2.579   4.921
16427WAT      O49522   5.301   0.788   7.105
16427WAT     H149523   5.393   0.767   7.072
16427WAT     H249524   5.304   0.869   7.164
16428WAT      O49525   0.227   2.357   6.595
16428WAT     H149526   0.265   2.445   6.624
16428WAT     H249527   0.301   2.290   6.584
16429WAT      O49528   8.325   9.756   1.818
16429WAT     H149529   8.307   9.753   1.916
16429WAT     H249530   8.396   9.823   1.799
16430WAT      O49531   7.516   5.569   6.942
16430WAT     H149532   7.500   5.616   6.856
16430WAT     H249533   7.568   5.629   7.003
16431WAT      O49534   7.585   7.849   6.579
16431WAT     H149535   7.549   7.930   6.626
16431WAT     H249536   7.630   7.789   6.645
16432WAT      O49537   2.738   7.549   1.140
16432WAT     H149538   2.823   7.518   1.183
16432WAT     H249539   2.751   7.641   1.104
16433WAT      O49540   0.074   1.615   5.950
16433WAT     H149541   0.071   1.658   5.860
16433WAT     H249542   0.163   1.631   5.992
16434WAT      O49543   9.415   4.499   3.588
16434WAT     H149544   9.473   4.441   3.531
16434WAT     H249545   9.470   4.539   3.661
16435WAT      O49546   3.415   5.460   0.459
16435WAT     H149547   3.389   5.538   0.516
16435WAT     H249548   3.435   5.492   0.366
16436WAT      O49549   6.666   9.439   2.888
16436WAT     H149550   6.669   9.360   2.949
16436WAT     H249551   6.590   9.499   2.916
16437WAT      O49552   8.557   9.623   9.223
16437WAT     H149553   8.554   9.615   9.124
16437WAT     H249554   8.472   9.664   9.256
16438WAT      O49555   3.570   4.136   8.787
16438WAT     H149556   3.607   4.199   8.855
16438WAT     H249557   3.573   4.043   8.822
16439WAT      O49558   6.863   2.403   5.982
16439WAT     H149559   6.767   2.418   5.958
16439WAT     H249560   6.869   2.343   6.061
16440WAT      O49561   7.523   2.958   5.067
16440WAT     H149562   7.575   3.024   5.119
16440WAT     H249563   7.549   2.865   5.094
16441WAT      O49564   3.899   1.296   8.635
16441WAT     H149565   3.865   1.263   8.547
16441WAT     H249566   3.841   1.259   8.708
16442WAT      O49567   8.894   9.607   4.050
16442WAT     H149568   8.868   9.519   4.010
16442WAT     H249569   8.850   9.618   4.139
16443WAT      O49570   0.827   3.945   5.915
16443WAT     H149571   0.789   3.865   5.869
16443WAT     H249572   0.769   3.968   5.994
16444WAT      O49573   8.399   2.865   3.138
16444WAT     H149574   8.431   2.813   3.059
16444WAT     H249575   8.477   2.895   3.193
16445WAT      O49576   3.398   7.309   4.798
16445WAT     H149577   3.456   7.233   4.826
16445WAT     H249578   3.415   7.331   4.702
16446WAT      O49579   2.726   2.045   6.464
16446WAT     H149580   2.821   2.032   6.490
16446WAT     H249581   2.722   2.086   6.372
16447WAT      O49582   1.582   5.713   6.013
16447WAT     H149583   1.594   5.616   5.995
16447WAT     H249584   1.484   5.734   6.022
16448WAT      O49585   5.921   9.782   3.844
16448WAT     H149586   5.828   9.747   3.855
16448WAT     H249587   5.984   9.706   3.830
16449WAT      O49588   1.919   5.068   2.741
16449WAT     H149589   1.885   5.153   2.781
16449WAT     H249590   1.936   5.082   2.643
16450WAT      O49591   1.549   4.480   9.149
16450WAT     H149592   1.498   4.395   9.164
16450WAT     H249593   1.635   4.459   9.102
16451WAT      O49594   7.754   5.682   2.214
16451WAT     H149595   7.749   5.673   2.314
16451WAT     H249596   7.825   5.748   2.190
16452WAT      O49597   7.460   1.610   3.413
16452WAT     H149598   7.472   1.663   3.497
16452WAT     H249599   7.452   1.674   3.336
16453WAT      O49600   8.497   5.981   8.850
16453WAT     H149601   8.544   5.999   8.937
16453WAT     H249602   8.553   6.014   8.774
16454WAT      O49603   4.934   1.169   6.750
16454WAT     H149604   4.902   1.120   6.668
16454WAT     H249605   4.962   1.262   6.724
16455WAT      O49606   0.718   0.861   2.258
16455WAT     H149607   0.630   0.908   2.257
16455WAT     H249608   0.720   0.795   2.333
16456WAT      O49609   3.906   4.368   5.194
16456WAT     H149610   3.963   4.289   5.172
16456WAT     H249611   3.909   4.384   5.293
16457WAT      O49612   2.524   7.587   7.703
16457WAT     H149613   2.480   7.630   7.624
16457WAT     H249614   2.511   7.488   7.697
16458WAT      O49615   9.331   1.471   6.397
16458WAT     H149616   9.248   1.455   6.449
16458WAT     H249617   9.313   1.455   6.300
16459WAT      O49618   7.208   8.765   0.833
16459WAT     H149619   7.121   8.769   0.784
16459WAT     H249620   7.276   8.820   0.785
16460WAT      O49621   6.257   6.327   4.033
16460WAT     H149622   6.251   6.340   4.132
16460WAT     H249623   6.350   6.349   4.002
16461WAT      O49624   8.208   2.617   2.322
16461WAT     H149625   8.145   2.574   2.386
16461WAT     H249626   8.173   2.606   2.229
16462WAT      O49627   4.806   4.811   8.249
16462WAT     H149628   4.884   4.844   8.301
16462WAT     H249629   4.741   4.766   8.311
16463WAT      O49630   4.790   7.153   9.550
16463WAT     H149631   4.745   7.170   9.638
16463WAT     H249632   4.820   7.241   9.511
16464WAT      O49633   2.937   0.142   9.338
16464WAT     H149634   2.990   0.126   9.422
16464WAT     H249635   2.980   0.093   9.262
16465WAT      O49636   2.756   7.061   2.266
16465WAT     H149637   2.775   7.144   2.212
16465WAT     H249638   2.795   6.982   2.219
16466WAT      O49639   5.304   5.721   4.309
16466WAT     H149640   5.279   5.813   4.340
16466WAT     H249641   5.399   5.703   4.334
16467WAT      O49642   3.059   1.159   0.665
16467WAT     H149643   3.037   1.175   0.569
16467WAT     H249644   2.977   1.131   0.714
16468WAT      O49645   8.746   0.473   7.225
16468WAT     H149646   8.769   0.444   7.132
16468WAT     H249647   8.661   0.526   7.224
16469WAT      O49648   9.558   9.810   5.745
16469WAT     H149649   9.573   9.755   5.828
16469WAT     H249650   9.644   9.821   5.696
16470WAT      O49651   6.797   6.239   5.399
16470WAT     H149652   6.752   6.281   5.478
16470WAT     H249653   6.767   6.286   5.316
16471WAT      O49654   5.436   9.100   4.879
16471WAT     H149655   5.479   9.089   4.969
16471WAT     H249656   5.376   9.180   4.880
16472WAT      O49657   7.879   0.860   7.448
16472WAT     H149658   7.962   0.839   7.500
16472WAT     H249659   7.809   0.793   7.469
16473WAT      O49660   8.958   9.603   9.462
16473WAT     H149661   9.026   9.661   9.505
16473WAT     H249662   8.871   9.652   9.456
16474WAT      O49663   6.583   5.111   4.669
16474WAT     H149664   6.544   5.057   4.595
16474WAT     H249665   6.523   5.188   4.690
16475WAT      O49666   4.894   8.736   4.387
16475WAT     H149667   4.808   8.771   4.351
16475WAT     H249668   4.896   8.636   4.378
16476WAT      O49669   6.528   5.809   5.912
16476WAT     H149670   6.619   5.797   5.952
16476WAT     H249671   6.537   5.846   5.820
16477WAT      O49672   4.661   0.950   8.649
16477WAT     H149673   4.578   0.996   8.679
16477WAT     H249674   4.696   0.893   8.723
16478WAT      O49675   1.111   0.483   4.886
16478WAT     H149676   1.110   0.488   4.986
16478WAT     H249677   1.175   0.411   4.858
16479WAT      O49678   6.894   8.796   2.749
16479WAT     H149679   6.808   8.830   2.787
16479WAT     H249680   6.874   8.731   2.676
16480WAT      O49681   2.908   3.634   9.362
16480WAT     H149682   2.936   3.730   9.372
16480WAT     H249683   2.887   3.596   9.452
16481WAT      O49684   0.666   8.661   4.749
16481WAT     H149685   0.622   8.696   4.831
16481WAT     H249686   0.607   8.592   4.706
16482WAT      O49687   7.605   6.834   4.044
16482WAT     H149688   7.658   6.787   3.973
16482WAT     H249689   7.544   6.901   4.001
16483WAT      O49690   7.896   1.401   5.131
16483WAT     H149691   7.945   1.432   5.213
16483WAT     H249692   7.798   1.416   5.142
16484WAT      O49693   5.474   4.482   8.750
16484WAT     H149694   5.536   4.555   8.777
16484WAT     H249695   5.400   4.474   8.817
16485WAT      O49696   5.176   6.650   8.711
16485WAT     H149697   5.180   6.682   8.616
16485WAT     H249698   5.087   6.609   8.728
16486WAT      O49699   7.439   7.007   6.885
16486WAT     H149700   7.416   7.045   6.795
16486WAT     H249701   7.508   6.936   6.874
16487WAT      O49702   8.582   7.622   1.477
16487WAT     H149703   8.645   7.570   1.419
16487WAT     H249704   8.576   7.716   1.444
16488WAT      O49705   5.737   8.874   9.574
16488WAT     H149706   5.819   8.855   9.627
16488WAT     H249707   5.699   8.963   9.601
16489WAT      O49708   0.813   6.670   4.267
16489WAT     H149709   0.764   6.616   4.198
16489WAT     H249710   0.770   6.760   4.275
16490WAT      O49711   9.294   6.738   1.118
16490WAT     H149712   9.202   6.772   1.139
16490WAT     H249713   9.291   6.684   1.034
16491WAT      O49714   4.700   9.010   8.098
16491WAT     H149715   4.722   8.923   8.055
16491WAT     H249716   4.737   9.012   8.191
16492WAT      O49717   3.122   7.183   4.302
16492WAT     H149718   3.218   7.163   4.285
16492WAT     H249719   3.083   7.111   4.361
16493WAT      O49720   6.912   9.209   6.089
16493WAT     H149721   6.882   9.212   5.994
16493WAT     H249722   6.863   9.278   6.142
16494WAT      O49723   6.441   2.279   9.287
16494WAT     H149724   6.501   2.213   9.241
16494WAT     H249725   6.366   2.305   9.225
16495WAT      O49726   1.292   8.364   1.724
16495WAT     H149727   1.317   8.283   1.778
16495WAT     H249728   1.292   8.445   1.782
16496WAT      O49729   2.770   7.066   9.346
16496WAT     H149730   2.841   7.051   9.277
16496WAT     H249731   2.777   6.997   9.418
16497WAT      O49732   0.877   2.617   7.209
16497WAT     H149733   0.777   2.617   7.204
16497WAT     H249734   0.911   2.525   7.188
16498WAT      O49735   6.355   2.935   4.570
16498WAT     H149736   6.383   2.885   4.652
16498WAT     H249737   6.268   2.980   4.587
16499WAT      O49738   3.048   0.837   9.009
16499WAT     H149739   3.085   0.762   9.064
16499WAT     H249740   2.948   0.829   9.007
16500WAT      O49741   1.586   1.109   5.556
16500WAT     H149742   1.630   1.072   5.638
16500WAT     H249743   1.649   1.172   5.511
16501WAT      O49744   3.499   6.927   1.246
16501WAT     H149745   3.467   6.945   1.153
16501WAT     H249746   3.587   6.879   1.242
16502WAT      O49747   5.031   6.478   1.521
16502WAT     H149748   5.096   6.500   1.448
16502WAT     H249749   5.057   6.391   1.564
16503WAT      O49750   9.667   3.876   9.140
16503WAT     H149751   9.650   3.965   9.097
16503WAT     H249752   9.639   3.803   9.079
16504WAT      O49753   1.020   9.801   8.952
16504WAT     H149754   1.031   9.877   8.888
16504WAT     H249755   1.032   9.714   8.904
16505WAT      O49756   6.416   6.190   2.182
16505WAT     H149757   6.515   6.191   2.174
16505WAT     H249758   6.387   6.110   2.236
16506WAT      O49759   7.564   5.930   2.355
16506WAT     H149760   7.539   5.976   2.440
16506WAT     H249761   7.647   5.973   2.317
16507WAT      O49762   2.841   9.430   2.923
16507WAT     H149763   2.750   9.411   2.959
16507WAT     H249764   2.908   9.369   2.966
16508WAT      O49765   7.057   5.108   4.275
16508WAT     H149766   7.010   5.044   4.335
16508WAT     H249767   7.142   5.137   4.317
16509WAT      O49768   0.219   3.126   4.127
16509WAT     H149769   0.301   3.087   4.167
16509WAT     H249770   0.221   3.226   4.138
16510WAT      O49771   7.433   4.557   2.162
16510WAT     H149772   7.478   4.583   2.077
16510WAT     H249773   7.378   4.634   2.196
16511WAT      O49774   4.846   2.437   7.135
16511WAT     H149775   4.859   2.512   7.071
16511WAT     H249776   4.912   2.445   7.210
16512WAT      O49777   9.327   6.206   6.978
16512WAT     H149778   9.260   6.235   7.047
16512WAT     H249779   9.364   6.286   6.932
16513WAT      O49780   0.184   2.845   5.550
16513WAT     H149781   0.174   2.940   5.522
16513WAT     H249782   0.129   2.787   5.489
16514WAT      O49783   0.374   6.931   6.644
16514WAT     H149784   0.389   6.844   6.596
16514WAT     H249785   0.386   6.916   6.743
16515WAT      O49786   3.440   7.032   3.738
16515WAT     H149787   3.376   6.957   3.724
16515WAT     H249788   3.534   6.998   3.736
16516WAT      O49789   5.503   1.548   5.546
16516WAT     H149790   5.529   1.623   5.485
16516WAT     H249791   5.526   1.460   5.503
16517WAT      O49792   8.537   7.255   5.085
16517WAT     H149793   8.537   7.160   5.053
16517WAT     H249794   8.460   7.304   5.045
16518WAT      O49795   4.724   6.355   5.170
16518WAT     H149796   4.688   6.305   5.249
16518WAT     H249797   4.744   6.290   5.097
16519WAT      O49798   0.137   6.569   5.504
16519WAT     H149799   0.088   6.634   5.561
16519WAT     H249800   0.221   6.611   5.470
16520WAT      O49801   0.364   6.644   5.432
16520WAT     H149802   0.411   6.724   5.395
16520WAT     H249803   0.416   6.607   5.508
16521WAT      O49804   2.024   1.614   9.234
16521WAT     H149805   2.070   1.565   9.160
16521WAT     H249806   2.085   1.621   9.313
16522WAT      O49807   3.076   7.040   5.699
16522WAT     H149808   3.006   7.072   5.762
16522WAT     H249809   3.035   6.978   5.632
16523WAT      O49810   1.775   9.074   2.851
16523WAT     H149811   1.868   9.065   2.888
16523WAT     H249812   1.735   9.160   2.884
16524WAT      O49813   4.359   5.406   2.423
16524WAT     H149814   4.271   5.411   2.375
16524WAT     H249815   4.347   5.434   2.518
16525WAT      O49816   0.920   2.761   9.152
16525WAT     H149817   0.917   2.834   9.084
16525WAT     H249818   0.920   2.672   9.106
16526WAT      O49819   8.638   6.398   6.836
16526WAT     H149820   8.673   6.491   6.832
16526WAT     H249821   8.540   6.399   6.857
16527WAT      O49822   8.461   9.759   7.242
16527WAT     H149823   8.389   9.807   7.293
16527WAT     H249824   8.530   9.724   7.306
16528WAT      O49825   1.701   2.501   9.080
16528WAT     H149826   1.681   2.574   9.014
16528WAT     H249827   1.646   2.514   9.162
16529WAT      O49828   5.999   7.831   2.340
16529WAT     H149829   6.020   7.864   2.432
16529WAT     H249830   6.066   7.866   2.275
16530WAT      O49831   4.015   9.071   0.837
16530WAT     H149832   4.082   9.082   0.764
16530WAT     H249833   3.996   9.160   0.878
16531WAT      O49834   7.728   8.990   0.960
16531WAT     H149835   7.665   8.949   1.026
16531WAT     H249836   7.702   9.086   0.945
16532WAT      O49837   2.719   6.700   2.338
16532WAT     H149838   2.747   6.773   2.276
16532WAT     H249839   2.736   6.611   2.296
16533WAT      O49840   1.234   9.461   3.562
16533WAT     H149841   1.163   9.529   3.544
16533WAT     H249842   1.314   9.507   3.600
16534WAT      O49843   4.308   3.253   1.245
16534WAT     H149844   4.325   3.161   1.210
16534WAT     H249845   4.282   3.248   1.341
16535WAT      O49846   3.232   0.134   3.242
16535WAT     H149847   3.307   0.172   3.295
16535WAT     H249848   3.244   0.159   3.146
16536WAT      O49849   7.274   3.048   3.103
16536WAT     H149850   7.218   3.086   3.029
16536WAT     H249851   7.305   3.121   3.163
16537WAT      O49852   6.305   8.499   2.911
16537WAT     H149853   6.260   8.462   2.993
16537WAT     H249854   6.305   8.599   2.916
16538WAT      O49855   6.263   1.848   6.476
16538WAT     H149856   6.232   1.771   6.532
16538WAT     H249857   6.201   1.858   6.398
16539WAT      O49858   2.377   1.346   5.089
16539WAT     H149859   2.455   1.294   5.123
16539WAT     H249860   2.312   1.361   5.164
16540WAT      O49861   1.442   4.761   2.657
16540WAT     H149862   1.384   4.811   2.594
16540WAT     H249863   1.531   4.807   2.664
16541WAT      O49864   6.899   0.527   9.497
16541WAT     H149865   6.872   0.498   9.589
16541WAT     H249866   6.851   0.472   9.429
16542WAT      O49867   9.455   7.595   2.578
16542WAT     H149868   9.403   7.609   2.493
16542WAT     H249869   9.550   7.572   2.556
16543WAT      O49870   2.920   3.188   8.535
16543WAT     H149871   2.960   3.096   8.532
16543WAT     H249872   2.984   3.253   8.493
16544WAT      O49873   0.194   8.925   9.483
16544WAT     H149874   0.247   8.861   9.538
16544WAT     H249875   0.215   9.019   9.512
16545WAT      O49876   0.036   8.970   0.140
16545WAT     H149877   0.126   9.010   0.123
16545WAT     H249878  -0.030   9.010   0.076
16546WAT      O49879   9.216   9.526   7.961
16546WAT     H149880   9.228   9.609   8.016
16546WAT     H249881   9.187   9.451   8.021
16547WAT      O49882   4.944   4.220   8.200
16547WAT     H149883   5.032   4.242   8.243
16547WAT     H249884   4.926   4.122   8.210
16548WAT      O49885   9.100   1.613   2.673
16548WAT     H149886   9.107   1.526   2.625
16548WAT     H249887   9.183   1.629   2.726
16549WAT      O49888   1.096   2.699   5.854
16549WAT     H149889   1.000   2.678   5.873
16549WAT     H249890   1.150   2.615   5.854
16550WAT      O49891   7.747   9.531   3.594
16550WAT     H149892   7.734   9.451   3.536
16550WAT     H249893   7.711   9.511   3.685
16551WAT      O49894   3.667   3.781   8.994
16551WAT     H149895   3.603   3.797   8.920
16551WAT     H249896   3.681   3.866   9.045
16552WAT      O49897   0.295   9.682   6.681
16552WAT     H149898   0.309   9.762   6.623
16552WAT     H249899   0.209   9.637   6.655
16553WAT      O49900   4.451   7.750   2.382
16553WAT     H149901   4.530   7.689   2.385
16553WAT     H249902   4.406   7.752   2.471
16554WAT      O49903   0.909   5.225   0.584
16554WAT     H149904   0.987   5.193   0.530
16554WAT     H249905   0.912   5.324   0.592
16555WAT      O49906   7.014   4.252   7.747
16555WAT     H149907   7.032   4.165   7.794
16555WAT     H249908   7.037   4.241   7.650
16556WAT      O49909   8.794   3.113   3.193
16556WAT     H149910   8.841   3.146   3.275
16556WAT     H249911   8.863   3.089   3.124
16557WAT      O49912   9.883   4.140   6.100
16557WAT     H149913   9.943   4.219   6.111
16557WAT     H249914   9.894   4.102   6.008
16558WAT      O49915   8.022   9.214   9.495
16558WAT     H149916   8.064   9.305   9.498
16558WAT     H249917   8.054   9.165   9.415
16559WAT      O49918   9.155   7.610   5.529
16559WAT     H149919   9.246   7.626   5.491
16559WAT     H249920   9.160   7.607   5.629
16560WAT      O49921   2.393   1.129   1.777
16560WAT     H149922   2.300   1.106   1.749
16560WAT     H249923   2.396   1.224   1.807
16561WAT      O49924   7.118   5.199   0.198
16561WAT     H149925   7.182   5.275   0.212
16561WAT     H249926   7.141   5.153   0.112
16562WAT      O49927   3.767   1.614   8.136
16562WAT     H149928   3.827   1.657   8.069
16562WAT     H249929   3.777   1.659   8.224
16563WAT      O49930   6.283   2.642   1.354
16563WAT     H149931   6.305   2.551   1.318
16563WAT     H249932   6.201   2.636   1.412
16564WAT      O49933   4.342   8.690   8.597
16564WAT     H149934   4.280   8.759   8.634
16564WAT     H249935   4.302   8.649   8.515
16565WAT      O49936   8.458   7.844   3.970
16565WAT     H149937   8.499   7.797   4.048
16565WAT     H249938   8.520   7.838   3.892
16566WAT      O49939   2.825   9.251   5.124
16566WAT     H149940   2.864   9.335   5.163
16566WAT     H249941   2.745   9.224   5.176
16567WAT      O49942   7.831   2.713   2.049
16567WAT     H149943   7.826   2.675   2.142
16567WAT     H249944   7.864   2.807   2.053
16568WAT      O49945   7.903   0.958   9.053
16568WAT     H149946   7.840   0.996   8.986
16568WAT     H249947   7.861   0.878   9.097
16569WAT      O49948   6.446   1.185   0.870
16569WAT     H149949   6.544   1.187   0.889
16569WAT     H249950   6.409   1.095   0.895
16570WAT      O49951   2.050   0.239   0.589
16570WAT     H149952   2.100   0.319   0.556
16570WAT     H249953   1.995   0.264   0.668
16571WAT      O49954   2.684   9.820   5.062
16571WAT     H149955   2.699   9.736   5.113
16571WAT     H249956   2.692   9.802   4.964
16572WAT      O49957   7.258   2.188   4.075
16572WAT     H149958   7.283   2.245   4.154
16572WAT     H249959   7.308   2.220   3.994
16573WAT      O49960   1.529   3.972   1.532
16573WAT     H149961   1.471   3.969   1.451
16573WAT     H249962   1.473   3.987   1.613
16574WAT      O49963   7.089   3.618   0.784
16574WAT     H149964   7.001   3.615   0.736
16574WAT     H249965   7.109   3.713   0.810
16575WAT      O49966   2.790   3.660   4.956
16575WAT     H149967   2.699   3.662   4.915
16575WAT     H249968   2.784   3.691   5.051
16576WAT      O49969   8.951   5.655   7.895
16576WAT     H149970   8.983   5.715   7.968
16576WAT     H249971   8.991   5.564   7.908
16577WAT      O49972   9.721   2.489   5.422
16577WAT     H149973   9.663   2.555   5.469
16577WAT     H249974   9.718   2.504   5.324
16578WAT      O49975   0.391   4.728   3.292
16578WAT     H149976   0.446   4.784   3.230
16578WAT     H249977   0.417   4.748   3.387
16579WAT      O49978   0.512   4.149   2.370
16579WAT     H149979   0.475   4.108   2.453
16579WAT     H249980   0.452   4.127   2.293
16580WAT      O49981   2.133   8.942   9.445
16580WAT     H149982   2.123   9.008   9.370
16580WAT     H249983   2.046   8.895   9.459
16581WAT      O49984   0.486   4.900   2.416
16581WAT     H149985   0.447   4.840   2.485
16581WAT     H249986   0.442   4.990   2.421
16582WAT      O49987   6.289   2.625   0.847
16582WAT     H149988   6.239   2.600   0.930
16582WAT     H249989   6.261   2.564   0.772
16583WAT      O49990   2.459   1.254   0.835
16583WAT     H149991   2.478   1.181   0.901
16583WAT     H249992   2.412   1.329   0.882
16584WAT      O49993   3.347   0.450   2.125
16584WAT     H149994   3.440   0.426   2.096
16584WAT     H249995   3.305   0.372   2.172
16585WAT      O49996   1.485   3.153   0.342
16585WAT     H149997   1.553   3.099   0.291
16585WAT     H249998   1.529   3.196   0.420
16586WAT      O49999   6.812   3.626   5.045
16586WAT     H150000   6.720   3.640   5.081
16586WAT     H250001   6.841   3.532   5.064
16587WAT      O50002   5.202   3.642   2.883
16587WAT     H150003   5.189   3.639   2.982
16587WAT     H250004   5.125   3.690   2.841
16588WAT      O50005   5.235   7.930   8.306
16588WAT     H150006   5.251   7.929   8.207
16588WAT     H250007   5.186   7.847   8.332
16589WAT      O50008   0.184   1.412   7.018
16589WAT     H150009   0.214   1.490   6.964
16589WAT     H250010   0.176   1.438   7.114
16590WAT      O50011   9.639   1.994   0.369
16590WAT     H150012   9.583   1.930   0.316
16590WAT     H250013   9.731   2.000   0.329
16591WAT      O50014   2.610   9.381   3.030
16591WAT     H150015   2.542   9.323   2.986
16591WAT     H250016   2.566   9.439   3.098
16592WAT      O50017   6.033   5.579   2.024
16592WAT     H150018   6.110   5.633   2.059
16592WAT     H250019   5.953   5.594   2.082
16593WAT      O50020   0.108   9.381   2.149
16593WAT     H150021   0.145   9.298   2.190
16593WAT     H250022   0.135   9.385   2.052
16594WAT      O50023   6.116   5.339   5.228
16594WAT     H150024   6.061   5.259   5.255
16594WAT     H250025   6.064   5.422   5.245
16595WAT      O50026   3.547   3.313   5.992
16595WAT     H150027   3.643   3.312   5.965
16595WAT     H250028   3.496   3.247   5.937
16596WAT      O50029   4.529   4.507   9.058
16596WAT     H150030   4.587   4.586   9.038
16596WAT     H250031   4.447   4.537   9.107
16597WAT      O50032   2.901   6.560   4.937
16597WAT     H150033   2.990   6.560   4.892
16597WAT     H250034   2.835   6.508   4.883
16598WAT      O50035   2.905   8.381   9.823
16598WAT     H150036   2.923   8.285   9.842
16598WAT     H250037   2.823   8.388   9.765
16599WAT      O50038   8.407   0.875   8.157
16599WAT     H150039   8.384   0.851   8.064
16599WAT     H250040   8.503   0.852   8.175
16600WAT      O50041   4.971   7.894   6.277
16600WAT     H150042   4.900   7.827   6.258
16600WAT     H250043   5.055   7.848   6.304
16601WAT      O50044   8.986   5.011   7.731
16601WAT     H150045   8.912   4.991   7.797
16601WAT     H250046   9.013   4.927   7.685
16602WAT      O50047   6.508   6.404   6.835
16602WAT     H150048   6.471   6.333   6.775
16602WAT     H250049   6.459   6.404   6.922
16603WAT      O50050   8.126   3.931   2.287
16603WAT     H150051   8.027   3.943   2.295
16603WAT     H250052   8.162   3.893   2.372
16604WAT      O50053   9.229   5.455   9.414
16604WAT     H150054   9.146   5.412   9.378
16604WAT     H250055   9.296   5.464   9.341
16605WAT      O50056   6.525   5.755   2.149
16605WAT     H150057   6.544   5.800   2.236
16605WAT     H250058   6.607   5.705   2.119
16606WAT      O50059   0.627   0.522   4.773
16606WAT     H150060   0.691   0.510   4.848
16606WAT     H250061   0.673   0.501   4.686
16607WAT      O50062   4.502   8.020   3.800
16607WAT     H150063   4.566   8.009   3.725
16607WAT     H250064   4.470   8.115   3.803
16608WAT      O50065   7.316   5.297   6.735
16608WAT     H150066   7.405   5.339   6.755
16608WAT     H250067   7.328   5.222   6.670
16609WAT      O50068   3.886   5.611   2.767
16609WAT     H150069   3.899   5.707   2.791
16609WAT     H250070   3.937   5.553   2.831
16610WAT      O50071   3.246   7.019   9.664
16610WAT     H150072   3.294   7.107   9.669
16610WAT     H250073   3.223   6.999   9.568
16611WAT      O50074   7.407   1.499   8.739
16611WAT     H150075   7.433   1.511   8.643
16611WAT     H250076   7.404   1.588   8.784
16612WAT      O50077   1.321   6.178   2.929
16612WAT     H150078   1.381   6.258   2.939
16612WAT     H250079   1.373   6.095   2.949
16613WAT      O50080   8.006   2.512   3.338
16613WAT     H150081   7.979   2.512   3.434
16613WAT     H250082   7.928   2.482   3.282
16614WAT      O50083   6.217   7.281   1.533
16614WAT     H150084   6.315   7.284   1.551
16614WAT     H250085   6.198   7.316   1.441
16615WAT      O50086   4.427   2.489   6.654
16615WAT     H150087   4.439   2.551   6.577
16615WAT     H250088   4.352   2.521   6.712
16616WAT      O50089   4.003   8.466   9.612
16616WAT     H150090   4.010   8.378   9.658
16616WAT     H250091   3.960   8.453   9.522
16617WAT      O50092   3.279   1.792   5.288
16617WAT     H150093   3.226   1.727   5.344
16617WAT     H250094   3.328   1.854   5.349
16618WAT      O50095   5.098   7.256   2.945
16618WAT     H150096   5.189   7.288   2.915
16618WAT     H250097   5.090   7.266   3.044
16619WAT      O50098   5.313   9.515   3.581
16619WAT     H150099   5.334   9.418   3.595
16619WAT     H250100   5.319   9.564   3.669
16620WAT      O50101   8.318   1.068   2.197
16620WAT     H150102   8.254   1.144   2.189
16620WAT     H250103   8.403   1.100   2.239
16621WAT      O50104   4.773   9.583   3.767
16621WAT     H150105   4.752   9.523   3.690
16621WAT     H250106   4.689   9.618   3.806
16622WAT      O50107   8.214   1.650   4.370
16622WAT     H150108   8.160   1.590   4.311
16622WAT     H250109   8.284   1.596   4.417
16623WAT      O50110   4.664   6.823   6.561
16623WAT     H150111   4.589   6.764   6.591
16623WAT     H250112   4.728   6.769   6.506
16624WAT      O50113   0.632   9.369   7.705
16624WAT     H150114   0.693   9.433   7.753
16624WAT     H250115   0.573   9.421   7.643
16625WAT      O50116   7.285   8.042   8.487
16625WAT     H150117   7.209   7.991   8.446
16625WAT     H250118   7.362   7.981   8.503
16626WAT      O50119   8.018   3.750   6.900
16626WAT     H150120   8.015   3.823   6.968
16626WAT     H250121   7.925   3.730   6.869
16627WAT      O50122   2.605   3.245   6.098
16627WAT     H150123   2.695   3.287   6.113
16627WAT     H250124   2.605   3.152   6.133
16628WAT      O50125   8.024   1.599   6.299
16628WAT     H150126   8.022   1.656   6.217
16628WAT     H250127   7.932   1.595   6.339
16629WAT      O50128   1.647   9.639   9.558
16629WAT     H150129   1.738   9.630   9.597
16629WAT     H250130   1.651   9.626   9.459
16630WAT      O50131   4.388   3.452   4.129
16630WAT     H150132   4.452   3.440   4.053
16630WAT     H250133   4.414   3.393   4.205
16631WAT      O50134   4.000   6.769   8.258
16631WAT     H150135   4.004   6.725   8.168
16631WAT     H250136   3.973   6.702   8.327
16632WAT      O50137   8.994   9.003   3.674
16632WAT     H150138   8.915   9.023   3.616
16632WAT     H250139   8.983   8.912   3.714
16633WAT      O50140   1.642   2.716   6.818
16633WAT     H150141   1.576   2.778   6.860
16633WAT     H250142   1.695   2.670   6.890
16634WAT      O50143   5.841   2.999   1.201
16634WAT     H150144   5.852   3.033   1.107
16634WAT     H250145   5.894   3.056   1.263
16635WAT      O50146   6.947   8.733   9.325
16635WAT     H150147   7.010   8.810   9.337
16635WAT     H250148   6.933   8.715   9.228
16636WAT      O50149   7.043   7.118   4.455
16636WAT     H150150   7.047   7.182   4.378
16636WAT     H250151   6.988   7.039   4.430
16637WAT      O50152   2.348   8.481   8.521
16637WAT     H150153   2.262   8.431   8.506
16637WAT     H250154   2.338   8.538   8.603
16638WAT      O50155   2.054   2.364   8.486
16638WAT     H150156   1.963   2.393   8.455
16638WAT     H250157   2.047   2.277   8.535
16639WAT      O50158   5.080   0.313   2.381
16639WAT     H150159   5.162   0.288   2.432
16639WAT     H250160   5.107   0.361   2.297
16640WAT      O50161   2.150   3.997   8.796
16640WAT     H150162   2.167   4.055   8.717
16640WAT     H250163   2.230   3.997   8.855
16641WAT      O50164   3.829   9.275   8.574
16641WAT     H150165   3.783   9.265   8.486
16641WAT     H250166   3.779   9.223   8.644
16642WAT      O50167   8.505   2.734   2.920
16642WAT     H150168   8.591   2.706   2.963
16642WAT     H250169   8.525   2.790   2.839
16643WAT      O50170   2.734   4.864   7.713
16643WAT     H150171   2.762   4.773   7.743
16643WAT     H250172   2.754   4.874   7.615
16644WAT      O50173   2.271   7.999   6.711
16644WAT     H150174   2.178   8.010   6.677
16644WAT     H250175   2.320   7.932   6.654
16645WAT      O50176   0.826   1.615   1.504
16645WAT     H150177   0.920   1.650   1.506
16645WAT     H250178   0.787   1.618   1.595
16646WAT      O50179   0.260   3.546   8.770
16646WAT     H150180   0.224   3.580   8.857
16646WAT     H250181   0.278   3.448   8.778
16647WAT      O50182   0.110   9.710   5.748
16647WAT     H150183   0.155   9.800   5.758
16647WAT     H250184   0.011   9.723   5.748
16648WAT      O50185   3.656   1.190   7.144
16648WAT     H150186   3.751   1.214   7.165
16648WAT     H250187   3.650   1.158   7.050
16649WAT      O50188   6.761   9.083   6.900
16649WAT     H150189   6.675   9.100   6.948
16649WAT     H250190   6.747   9.015   6.828
16650WAT      O50191   4.242   1.104   9.380
16650WAT     H150192   4.288   1.018   9.400
16650WAT     H250193   4.266   1.171   9.450
16651WAT      O50194   3.805   1.083   1.848
16651WAT     H150195   3.832   0.991   1.876
16651WAT     H250196   3.884   1.145   1.855
16652WAT      O50197   4.830   1.314   4.359
16652WAT     H150198   4.857   1.407   4.334
16652WAT     H250199   4.740   1.316   4.403
16653WAT      O50200   6.697   7.214   9.127
16653WAT     H150201   6.667   7.140   9.187
16653WAT     H250202   6.773   7.182   9.070
16654WAT      O50203   7.391   0.878   5.623
16654WAT     H150204   7.459   0.806   5.633
16654WAT     H250205   7.327   0.875   5.700
16655WAT      O50206   8.341   4.127   6.007
16655WAT     H150207   8.318   4.148   6.102
16655WAT     H250208   8.351   4.028   5.996
16656WAT      O50209   3.827   9.144   2.671
16656WAT     H150210   3.831   9.171   2.767
16656WAT     H250211   3.910   9.175   2.624
16657WAT      O50212   9.636   7.524   0.653
16657WAT     H150213   9.676   7.585   0.585
16657WAT     H250214   9.595   7.579   0.726
16658WAT      O50215   1.976   6.298   8.405
16658WAT     H150216   1.879   6.294   8.427
16658WAT     H250217   2.000   6.218   8.349
16659WAT      O50218   1.730   4.350   5.051
16659WAT     H150219   1.704   4.360   4.955
16659WAT     H250220   1.747   4.254   5.071
16660WAT      O50221   0.827   0.744   9.064
16660WAT     H150222   0.796   0.661   9.111
16660WAT     H250223   0.766   0.820   9.087
16661WAT      O50224   7.781   6.609   4.651
16661WAT     H150225   7.817   6.589   4.560
16661WAT     H250226   7.829   6.553   4.719
16662WAT      O50227   8.780   9.064   0.386
16662WAT     H150228   8.818   9.091   0.475
16662WAT     H250229   8.710   8.994   0.400
16663WAT      O50230   4.246   2.289   2.163
16663WAT     H150231   4.150   2.265   2.147
16663WAT     H250232   4.305   2.221   2.118
16664WAT      O50233   0.686   6.741   7.562
16664WAT     H150234   0.756   6.763   7.494
16664WAT     H250235   0.716   6.663   7.617
16665WAT      O50236   3.539   0.703   1.993
16665WAT     H150237   3.631   0.731   2.020
16665WAT     H250238   3.477   0.712   2.071
16666WAT      O50239   3.504   2.777   1.844
16666WAT     H150240   3.548   2.749   1.759
16666WAT     H250241   3.565   2.758   1.921
16667WAT      O50242   2.597   2.198   9.235
16667WAT     H150243   2.676   2.138   9.249
16667WAT     H250244   2.528   2.151   9.181
16668WAT      O50245   0.148   7.903   9.143
16668WAT     H150246   0.049   7.899   9.129
16668WAT     H250247   0.182   7.994   9.119
16669WAT      O50248   3.295   8.653   7.605
16669WAT     H150249   3.243   8.572   7.578
16669WAT     H250250   3.252   8.694   7.685
16670WAT      O50251   1.465   1.953   1.388
16670WAT     H150252   1.466   1.993   1.480
16670WAT     H250253   1.448   2.025   1.321
16671WAT      O50254   4.414   2.196   3.266
16671WAT     H150255   4.366   2.171   3.351
16671WAT     H250256   4.511   2.205   3.285
16672WAT      O50257   8.549   2.478   8.950
16672WAT     H150258   8.512   2.509   8.863
16672WAT     H250259   8.639   2.519   8.965
16673WAT      O50260   9.513   5.904   0.960
16673WAT     H150261   9.537   6.001   0.951
16673WAT     H250262   9.517   5.878   1.056
16674WAT      O50263   4.771   4.849   8.857
16674WAT     H150264   4.827   4.928   8.834
16674WAT     H250265   4.770   4.836   8.957
16675WAT      O50266   1.614   6.140   2.780
16675WAT     H150267   1.617   6.240   2.782
16675WAT     H250268   1.652   6.105   2.866
16676WAT      O50269   5.479   1.871   8.651
16676WAT     H150270   5.429   1.803   8.596
16676WAT     H250271   5.417   1.911   8.718
16677WAT      O50272   4.113   7.493   5.157
16677WAT     H150273   4.070   7.528   5.073
16677WAT     H250274   4.175   7.562   5.193
16678WAT      O50275   3.282   4.437   7.932
16678WAT     H150276   3.189   4.471   7.917
16678WAT     H250277   3.320   4.402   7.846
16679WAT      O50278   7.858   0.060   7.155
16679WAT     H150279   7.881  -0.027   7.198
16679WAT     H250280   7.827   0.044   7.061
16680WAT      O50281   5.891   5.270   1.647
16680WAT     H150282   5.950   5.291   1.725
16680WAT     H250283   5.947   5.245   1.569
16681WAT      O50284   6.315   2.528   6.494
16681WAT     H150285   6.243   2.566   6.552
16681WAT     H250286   6.331   2.433   6.519
16682WAT      O50287   8.233   1.357   3.983
16682WAT     H150288   8.215   1.260   3.997
16682WAT     H250289   8.286   1.369   3.899
16683WAT      O50290   4.957   6.088   8.442
16683WAT     H150291   4.921   6.180   8.430
16683WAT     H250292   5.043   6.091   8.492
16684WAT      O50293   0.915   7.225   2.971
16684WAT     H150294   0.933   7.323   2.962
16684WAT     H250295   0.855   7.195   2.897
16685WAT      O50296   7.499   1.537   0.795
16685WAT     H150297   7.513   1.615   0.736
16685WAT     H250298   7.529   1.453   0.748
16686WAT      O50299   6.493   2.165   7.115
16686WAT     H150300   6.513   2.230   7.189
16686WAT     H250301   6.520   2.073   7.143
16687WAT      O50302   7.517   8.621   6.492
16687WAT     H150303   7.471   8.579   6.414
16687WAT     H250304   7.534   8.718   6.472
16688WAT      O50305   8.587   8.960   8.753
16688WAT     H150306   8.523   9.035   8.772
16688WAT     H250307   8.589   8.942   8.655
16689WAT      O50308   7.896   2.224   4.345
16689WAT     H150309   7.910   2.125   4.342
16689WAT     H250310   7.799   2.243   4.362
16690WAT      O50311   3.646   8.393   1.843
16690WAT     H150312   3.733   8.401   1.796
16690WAT     H250313   3.607   8.484   1.858
16691WAT      O50314   9.728   1.714   1.633
16691WAT     H150315   9.669   1.641   1.597
16691WAT     H250316   9.673   1.793   1.659
16692WAT      O50317   8.206   7.378   0.185
16692WAT     H150318   8.273   7.433   0.135
16692WAT     H250319   8.202   7.408   0.280
16693WAT      O50320   0.534   5.789   4.608
16693WAT     H150321   0.522   5.846   4.689
16693WAT     H250322   0.491   5.834   4.529
16694WAT      O50323   0.293   7.375   3.666
16694WAT     H150324   0.265   7.427   3.585
16694WAT     H250325   0.310   7.280   3.640
16695WAT      O50326   4.852   7.387   3.507
16695WAT     H150327   4.929   7.444   3.536
16695WAT     H250328   4.885   7.298   3.477
16696WAT      O50329   3.825   1.124   3.063
16696WAT     H150330   3.829   1.114   3.163
16696WAT     H250331   3.853   1.216   3.038
16697WAT      O50332   4.213   0.081   3.888
16697WAT     H150333   4.256   0.071   3.978
16697WAT     H250334   4.136   0.143   3.894
16698WAT      O50335   0.363   8.069   0.018
16698WAT     H150336   0.315   8.140  -0.034
16698WAT     H250337   0.459   8.067  -0.009
16699WAT      O50338   1.455   1.145   9.121
16699WAT     H150339   1.355   1.141   9.121
16699WAT     H250340   1.485   1.220   9.061
16700WAT      O50341   9.675   2.459   4.706
16700WAT     H150342   9.684   2.553   4.671
16700WAT     H250343   9.638   2.462   4.799
16701WAT      O50344   2.577   5.344   8.084
16701WAT     H150345   2.667   5.309   8.109
16701WAT     H250346   2.553   5.311   7.993
16702WAT      O50347   3.043   6.136   3.876
16702WAT     H150348   3.083   6.170   3.791
16702WAT     H250349   2.944   6.150   3.874
16703WAT      O50350   7.447   6.586   1.007
16703WAT     H150351   7.385   6.551   0.936
16703WAT     H250352   7.470   6.511   1.069
16704WAT      O50353   3.031   5.282   8.081
16704WAT     H150354   2.936   5.256   8.100
16704WAT     H250355   3.032   5.369   8.032
16705WAT      O50356   6.540   3.337   9.769
16705WAT     H150357   6.564   3.431   9.748
16705WAT     H250358   6.585   3.309   9.854
16706WAT      O50359   2.026   5.536   3.241
16706WAT     H150360   2.038   5.563   3.145
16706WAT     H250361   2.068   5.447   3.257
16707WAT      O50362   6.439   6.686   5.597
16707WAT     H150363   6.490   6.706   5.514
16707WAT     H250364   6.362   6.626   5.576
16708WAT      O50365   2.552   2.502   1.445
16708WAT     H150366   2.521   2.512   1.540
16708WAT     H250367   2.476   2.470   1.388
16709WAT      O50368   5.374   2.293   7.311
16709WAT     H150369   5.452   2.355   7.322
16709WAT     H250370   5.368   2.264   7.215
16710WAT      O50371   9.032   6.657   9.429
16710WAT     H150372   8.983   6.743   9.422
16710WAT     H250373   9.121   6.665   9.384
16711WAT      O50374   0.851   9.492   2.592
16711WAT     H150375   0.759   9.517   2.625
16711WAT     H250376   0.907   9.465   2.670
16712WAT      O50377   1.275   1.284   6.132
16712WAT     H150378   1.212   1.252   6.062
16712WAT     H250379   1.225   1.300   6.217
16713WAT      O50380   1.229   9.742   3.215
16713WAT     H150381   1.233   9.749   3.115
16713WAT     H250382   1.183   9.823   3.251
16714WAT      O50383   8.564   0.682   8.519
16714WAT     H150384   8.550   0.757   8.585
16714WAT     H250385   8.662   0.671   8.503
16715WAT      O50386   6.469   1.334   6.441
16715WAT     H150387   6.424   1.421   6.420
16715WAT     H250388   6.567   1.343   6.426
16716WAT      O50389   8.630   5.024   3.723
16716WAT     H150390   8.581   5.112   3.729
16716WAT     H250391   8.570   4.951   3.753
16717WAT      O50392   7.646   3.812   6.398
16717WAT     H150393   7.699   3.856   6.326
16717WAT     H250394   7.655   3.866   6.482
16718WAT      O50395   8.786   0.788   4.575
16718WAT     H150396   8.779   0.851   4.653
16718WAT     H250397   8.717   0.811   4.507
16719WAT      O50398   2.337   7.611   4.181
16719WAT     H150399   2.422   7.599   4.232
16719WAT     H250400   2.358   7.645   4.089
16720WAT      O50401   0.516   6.056   7.547
16720WAT     H150402   0.491   5.971   7.499
16720WAT     H250403   0.557   6.120   7.482
16721WAT      O50404   2.872   9.149   1.595
16721WAT     H150405   2.965   9.168   1.564
16721WAT     H250406   2.808   9.212   1.551
16722WAT      O50407   6.646   3.947   8.054
16722WAT     H150408   6.701   3.871   8.087
16722WAT     H250409   6.619   3.930   7.959
16723WAT      O50410   1.235   1.345   3.937
16723WAT     H150411   1.234   1.445   3.935
16723WAT     H250412   1.165   1.310   3.874
16724WAT      O50413   4.478   3.652   3.241
16724WAT     H150414   4.430   3.691   3.162
16724WAT     H250415   4.454   3.704   3.323
16725WAT      O50416   4.730   9.416   1.352
16725WAT     H150417   4.829   9.405   1.364
16725WAT     H250418   4.685   9.327   1.359
16726WAT      O50419   2.609   4.322   8.878
16726WAT     H150420   2.512   4.343   8.876
16726WAT     H250421   2.660   4.395   8.833
16727WAT      O50422   3.003   2.817   5.489
16727WAT     H150423   2.954   2.890   5.536
16727WAT     H250424   3.097   2.813   5.523
16728WAT      O50425   5.539   2.318   0.069
16728WAT     H150426   5.569   2.401   0.117
16728WAT     H250427   5.564   2.238   0.123
16729WAT      O50428   8.639   7.712   8.734
16729WAT     H150429   8.544   7.714   8.766
16729WAT     H250430   8.642   7.726   8.635
16730WAT      O50431   5.861   1.908   7.391
16730WAT     H150432   5.869   1.915   7.490
16730WAT     H250433   5.771   1.869   7.368
16731WAT      O50434   8.706   1.695   5.197
16731WAT     H150435   8.733   1.700   5.293
16731WAT     H250436   8.621   1.642   5.188
16732WAT      O50437   9.338   8.131   3.753
16732WAT     H150438   9.266   8.145   3.822
16732WAT     H250439   9.295   8.122   3.663
16733WAT      O50440   5.340   5.237   2.167
16733WAT     H150441   5.412   5.203   2.106
16733WAT     H250442   5.375   5.314   2.220
16734WAT      O50443   2.857   8.112   1.073
16734WAT     H150444   2.875   8.089   1.168
16734WAT     H250445   2.879   8.209   1.057
16735WAT      O50446   7.289   6.988   9.040
16735WAT     H150447   7.240   6.945   8.964
16735WAT     H250448   7.383   7.007   9.013
16736WAT      O50449   8.880   7.674   2.713
16736WAT     H150450   8.866   7.736   2.790
16736WAT     H250451   8.886   7.726   2.628
16737WAT      O50452   8.234   3.751   2.931
16737WAT     H150453   8.169   3.752   3.007
16737WAT     H250454   8.193   3.703   2.853
16738WAT      O50455   4.989   2.006   4.318
16738WAT     H150456   4.910   2.015   4.256
16738WAT     H250457   4.957   2.014   4.413
16739WAT      O50458   3.359   1.349   3.187
16739WAT     H150459   3.451   1.386   3.195
16739WAT     H250460   3.341   1.323   3.093
16740WAT      O50461   3.782   8.522   9.790
16740WAT     H150462   3.855   8.500   9.726
16740WAT     H250463   3.820   8.574   9.867
16741WAT      O50464   8.321   3.053   2.961
16741WAT     H150465   8.330   2.980   3.028
16741WAT     H250466   8.297   3.138   3.007
16742WAT      O50467   2.268   6.511   8.897
16742WAT     H150468   2.325   6.580   8.853
16742WAT     H250469   2.293   6.503   8.993
16743WAT      O50470   9.680   1.552   3.496
16743WAT     H150471   9.754   1.565   3.561
16743WAT     H250472   9.651   1.640   3.459
16744WAT      O50473   6.158   4.494   7.352
16744WAT     H150474   6.102   4.487   7.435
16744WAT     H250475   6.195   4.404   7.329
16745WAT      O50476   1.726   1.638   3.353
16745WAT     H150477   1.790   1.562   3.345
16745WAT     H250478   1.730   1.676   3.446
16746WAT      O50479   3.382   5.668   1.414
16746WAT     H150480   3.449   5.604   1.450
16746WAT     H250481   3.290   5.640   1.443
16747WAT      O50482   1.850   4.843   8.706
16747WAT     H150483   1.765   4.797   8.733
16747WAT     H250484   1.928   4.784   8.726
16748WAT      O50485   1.287   4.741   4.129
16748WAT     H150486   1.228   4.749   4.209
16748WAT     H250487   1.380   4.717   4.159
16749WAT      O50488   0.417   4.344   6.805
16749WAT     H150489   0.468   4.321   6.888
16749WAT     H250490   0.375   4.434   6.816
16750WAT      O50491   4.245   3.148   7.471
16750WAT     H150492   4.253   3.169   7.569
16750WAT     H250493   4.178   3.209   7.429
16751WAT      O50494   6.693   7.834   2.171
16751WAT     H150495   6.749   7.813   2.091
16751WAT     H250496   6.753   7.855   2.249
16752WAT      O50497   5.853   5.499   0.552
16752WAT     H150498   5.913   5.483   0.474
16752WAT     H250499   5.895   5.566   0.614
16753WAT      O50500   8.465   2.844   2.017
16753WAT     H150501   8.522   2.903   2.075
16753WAT     H250502   8.524   2.788   1.959
16754WAT      O50503   8.367   9.824   0.999
16754WAT     H150504   8.360   9.822   0.899
16754WAT     H250505   8.362   9.918   1.031
16755WAT      O50506   5.498   3.602   0.682
16755WAT     H150507   5.491   3.685   0.626
16755WAT     H250508   5.565   3.617   0.755
16756WAT      O50509   1.707   1.017   7.226
16756WAT     H150510   1.732   1.014   7.129
16756WAT     H250511   1.789   1.028   7.282
16757WAT      O50512   8.804   9.553   4.304
16757WAT     H150513   8.794   9.559   4.403
16757WAT     H250514   8.820   9.458   4.278
16758WAT      O50515   2.549   7.958   5.186
16758WAT     H150516   2.474   7.939   5.249
16758WAT     H250517   2.516   8.014   5.110
16759WAT      O50518   8.277   2.009   4.991
16759WAT     H150519   8.293   2.106   4.974
16759WAT     H250520   8.347   1.974   5.053
16760WAT      O50521   4.320   8.181   7.115
16760WAT     H150522   4.317   8.163   7.213
16760WAT     H250523   4.229   8.208   7.083
16761WAT      O50524   8.204   1.350   4.263
16761WAT     H150525   8.241   1.357   4.170
16761WAT     H250526   8.104   1.344   4.259
16762WAT      O50527   5.892   6.988   8.931
16762WAT     H150528   5.796   7.016   8.930
16762WAT     H250529   5.901   6.897   8.891
16763WAT      O50530   8.125   4.632   9.831
16763WAT     H150531   8.129   4.691   9.912
16763WAT     H250532   8.030   4.606   9.813
16764WAT      O50533   5.161   5.512   0.962
16764WAT     H150534   5.089   5.490   1.028
16764WAT     H250535   5.132   5.486   0.870
16765WAT      O50536   2.606   2.914   5.591
16765WAT     H150537   2.616   3.013   5.595
16765WAT     H250538   2.545   2.890   5.515
16766WAT      O50539   2.308   5.117   2.438
16766WAT     H150540   2.349   5.157   2.520
16766WAT     H250541   2.372   5.050   2.399
16767WAT      O50542   6.189   7.041   7.904
16767WAT     H150543   6.221   7.056   7.810
16767WAT     H250544   6.214   7.120   7.960
16768WAT      O50545   2.153   2.617   4.425
16768WAT     H150546   2.199   2.631   4.512
16768WAT     H250547   2.219   2.587   4.356
16769WAT      O50548   2.790   1.422   1.692
16769WAT     H150549   2.833   1.384   1.775
16769WAT     H250550   2.861   1.443   1.625
16770WAT      O50551   7.023   1.095   4.260
16770WAT     H150552   7.057   1.136   4.175
16770WAT     H250553   6.924   1.108   4.266
16771WAT      O50554   5.337   2.277   9.221
16771WAT     H150555   5.308   2.264   9.316
16771WAT     H250556   5.413   2.342   9.218
16772WAT      O50557   5.398   7.981   8.532
16772WAT     H150558   5.489   7.951   8.506
16772WAT     H250559   5.336   7.974   8.454
16773WAT      O50560   7.588   0.889   2.267
16773WAT     H150561   7.503   0.837   2.253
16773WAT     H250562   7.634   0.856   2.349
16774WAT      O50563   6.182   1.412   4.322
16774WAT     H150564   6.101   1.353   4.327
16774WAT     H250565   6.171   1.489   4.385
16775WAT      O50566   6.764   7.231   1.346
16775WAT     H150567   6.701   7.302   1.311
16775WAT     H250568   6.770   7.238   1.445
16776WAT      O50569   3.959   1.303   7.514
16776WAT     H150570   3.967   1.296   7.614
16776WAT     H250571   4.033   1.251   7.471
16777WAT      O50572   1.541   1.523   5.506
16777WAT     H150573   1.618   1.464   5.531
16777WAT     H250574   1.574   1.595   5.444
16778WAT      O50575   5.902   5.660   1.794
16778WAT     H150576   5.943   5.641   1.883
16778WAT     H250577   5.822   5.602   1.781
16779WAT      O50578   5.382   8.007   3.902
16779WAT     H150579   5.328   7.957   3.834
16779WAT     H250580   5.479   7.995   3.882
16780WAT      O50581   3.797   4.698   2.002
16780WAT     H150582   3.817   4.660   2.092
16780WAT     H250583   3.732   4.637   1.955
16781WAT      O50584   0.334   1.089   4.346
16781WAT     H150585   0.378   1.015   4.295
16781WAT     H250586   0.316   1.058   4.440
16782WAT      O50587   2.665   8.730   9.764
16782WAT     H150588   2.759   8.713   9.793
16782WAT     H250589   2.658   8.721   9.665
16783WAT      O50590   7.126   9.607   4.912
16783WAT     H150591   7.055   9.662   4.868
16783WAT     H250592   7.194   9.667   4.954
16784WAT      O50593   1.509   1.806   2.235
16784WAT     H150594   1.468   1.889   2.196
16784WAT     H250595   1.590   1.830   2.287
16785WAT      O50596   5.942   4.270   4.999
16785WAT     H150597   5.848   4.260   5.032
16785WAT     H250598   6.005   4.236   5.069
16786WAT      O50599   5.613   5.499   0.410
16786WAT     H150600   5.591   5.404   0.390
16786WAT     H250601   5.699   5.503   0.462
16787WAT      O50602   9.207   4.012   6.457
16787WAT     H150603   9.158   4.033   6.542
16787WAT     H250604   9.147   4.030   6.379
16788WAT      O50605   1.086   5.666   4.996
16788WAT     H150606   1.005   5.607   4.994
16788WAT     H250607   1.118   5.676   5.089
16789WAT      O50608   1.244   9.362   0.883
16789WAT     H150609   1.338   9.339   0.908
16789WAT     H250610   1.216   9.445   0.931
16790WAT      O50611   6.229   5.438   4.899
16790WAT     H150612   6.266   5.432   4.992
16790WAT     H250613   6.245   5.530   4.862
16791WAT      O50614   5.883   7.630   9.865
16791WAT     H150615   5.822   7.612   9.942
16791WAT     H250616   5.956   7.561   9.863
16792WAT      O50617   6.113   5.522   1.141
16792WAT     H150618   6.132   5.430   1.108
16792WAT     H250619   6.148   5.533   1.234
16793WAT      O50620   2.088   1.513   8.955
16793WAT     H150621   2.141   1.444   8.906
16793WAT     H250622   2.044   1.574   8.889
16794WAT      O50623   1.985   0.119   4.234
16794WAT     H150624   2.002   0.113   4.332
16794WAT     H250625   1.960   0.214   4.210
16795WAT      O50626   0.911   0.525   1.661
16795WAT     H150627   0.911   0.425   1.664
16795WAT     H250628   0.979   0.556   1.595
16796WAT      O50629   3.485   0.760   2.818
16796WAT     H150630   3.421   0.811   2.876
16796WAT     H250631   3.437   0.684   2.774
16797WAT      O50632   6.066   7.097   9.242
16797WAT     H150633   6.156   7.113   9.283
16797WAT     H250634   6.073   7.104   9.142
16798WAT      O50635   4.024   6.601   7.378
16798WAT     H150636   3.981   6.512   7.395
16798WAT     H250637   3.955   6.665   7.344
16799WAT      O50638   6.511   0.296   5.501
16799WAT     H150639   6.420   0.320   5.535
16799WAT     H250640   6.539   0.209   5.541
16800WAT      O50641   5.662   3.009   4.245
16800WAT     H150642   5.672   3.089   4.186
16800WAT     H250643   5.647   3.038   4.339
16801WAT      O50644   7.511   9.756   0.490
16801WAT     H150645   7.590   9.694   0.489
16801WAT     H250646   7.441   9.723   0.427
16802WAT      O50647   1.987   4.550   2.508
16802WAT     H150648   2.028   4.474   2.559
16802WAT     H250649   2.009   4.542   2.411
16803WAT      O50650   3.304   0.043   2.645
16803WAT     H150651   3.320  -0.016   2.566
16803WAT     H250652   3.220   0.016   2.691
16804WAT      O50653   7.251   7.892   5.205
16804WAT     H150654   7.238   7.970   5.143
16804WAT     H250655   7.346   7.862   5.202
16805WAT      O50656   1.242   9.381   4.931
16805WAT     H150657   1.186   9.361   5.011
16805WAT     H250658   1.265   9.295   4.885
16806WAT      O50659   2.743   1.382   5.936
16806WAT     H150660   2.666   1.380   5.999
16806WAT     H250661   2.826   1.352   5.983
16807WAT      O50662   1.635   1.801   0.690
16807WAT     H150663   1.717   1.857   0.679
16807WAT     H250664   1.660   1.711   0.725
16808WAT      O50665   1.778   2.371   6.892
16808WAT     H150666   1.786   2.445   6.959
16808WAT     H250667   1.682   2.357   6.869
16809WAT      O50668   9.016   3.347   9.476
16809WAT     H150669   9.081   3.291   9.527
16809WAT     H250670   8.970   3.291   9.407
16810WAT      O50671   5.209   0.785   6.583
16810WAT     H150672   5.244   0.877   6.600
16810WAT     H250673   5.277   0.718   6.614
16811WAT      O50674   0.321   6.298   5.890
16811WAT     H150675   0.295   6.236   5.816
16811WAT     H250676   0.413   6.332   5.872
16812WAT      O50677   9.535   6.990   7.251
16812WAT     H150678   9.619   6.955   7.292
16812WAT     H250679   9.498   7.064   7.307
16813WAT      O50680   7.963   0.891   3.418
16813WAT     H150681   7.864   0.899   3.404
16813WAT     H250682   8.002   0.981   3.437
16814WAT      O50683   1.712   5.008   3.463
16814WAT     H150684   1.682   4.946   3.536
16814WAT     H250685   1.658   4.991   3.381
16815WAT      O50686   9.665   2.567   9.565
16815WAT     H150687   9.568   2.577   9.585
16815WAT     H250688   9.713   2.651   9.590
16816WAT      O50689   0.722   7.791   9.570
16816WAT     H150690   0.782   7.816   9.493
16816WAT     H250691   0.635   7.757   9.534
16817WAT      O50692   2.985   4.242   5.813
16817WAT     H150693   2.893   4.217   5.842
16817WAT     H250694   3.048   4.167   5.835
16818WAT      O50695   0.994   4.778   6.720
16818WAT     H150696   1.026   4.734   6.803
16818WAT     H250697   1.064   4.773   6.649
16819WAT      O50698   2.243   1.338   8.846
16819WAT     H150699   2.321   1.306   8.901
16819WAT     H250700   2.225   1.271   8.774
16820WAT      O50701   6.037   1.086   1.367
16820WAT     H150702   5.996   1.039   1.445
16820WAT     H250703   5.978   1.077   1.287
16821WAT      O50704   1.127   6.455   8.480
16821WAT     H150705   1.220   6.473   8.446
16821WAT     H250706   1.061   6.490   8.414
16822WAT      O50707   1.858   8.370   4.914
16822WAT     H150708   1.957   8.374   4.901
16822WAT     H250709   1.837   8.325   5.001
16823WAT      O50710   4.367   8.426   1.492
16823WAT     H150711   4.436   8.478   1.441
16823WAT     H250712   4.338   8.347   1.438
16824WAT      O50713   8.939   0.945   0.487
16824WAT     H150714   8.862   0.882   0.481
16824WAT     H250715   9.009   0.907   0.547
16825WAT      O50716   2.583   0.795   3.552
16825WAT     H150717   2.652   0.839   3.495
16825WAT     H250718   2.624   0.764   3.638
16826WAT      O50719   2.510   9.292   8.252
16826WAT     H150720   2.549   9.307   8.342
16826WAT     H250721   2.422   9.245   8.261
16827WAT      O50722   6.765   0.312   6.799
16827WAT     H150723   6.785   0.408   6.821
16827WAT     H250724   6.822   0.284   6.722
16828WAT      O50725   5.176   0.566   8.488
16828WAT     H150726   5.156   0.645   8.431
16828WAT     H250727   5.167   0.482   8.434
16829WAT      O50728   1.980   9.669   1.033
16829WAT     H150729   1.978   9.570   1.049
16829WAT     H250730   2.013   9.687   0.940
16830WAT      O50731   6.153   6.451   1.529
16830WAT     H150732   6.068   6.417   1.489
16830WAT     H250733   6.157   6.427   1.626
16831WAT      O50734   4.158   7.773   6.791
16831WAT     H150735   4.133   7.732   6.879
16831WAT     H250736   4.146   7.873   6.797
16832WAT      O50737   5.365   0.696   3.137
16832WAT     H150738   5.388   0.599   3.142
16832WAT     H250739   5.355   0.724   3.042
16833WAT      O50740   0.069   7.115   6.377
16833WAT     H150741   0.034   7.116   6.284
16833WAT     H250742   0.108   7.024   6.397
16834WAT      O50743   1.379   2.007   7.751
16834WAT     H150744   1.451   2.023   7.819
16834WAT     H250745   1.304   2.070   7.768
16835WAT      O50746   4.589   9.824   2.856
16835WAT     H150747   4.520   9.852   2.923
16835WAT     H250748   4.622   9.905   2.807
16836WAT      O50749   6.496   4.713   3.450
16836WAT     H150750   6.596   4.714   3.450
16836WAT     H250751   6.463   4.619   3.438
16837WAT      O50752   3.668   7.149   2.627
16837WAT     H150753   3.711   7.203   2.699
16837WAT     H250754   3.570   7.164   2.627
16838WAT      O50755   9.574   2.947   7.518
16838WAT     H150756   9.669   2.934   7.547
16838WAT     H250757   9.570   2.959   7.419
16839WAT      O50758   6.964   7.620   1.580
16839WAT     H150759   7.019   7.644   1.660
16839WAT     H250760   7.000   7.667   1.499
16840WAT      O50761   5.975   5.674   6.377
16840WAT     H150762   6.011   5.767   6.378
16840WAT     H250763   6.044   5.612   6.414
16841WAT      O50764   7.092   7.917   5.662
16841WAT     H150765   7.165   7.958   5.717
16841WAT     H250766   7.003   7.949   5.694
16842WAT      O50767   0.737   7.576   3.422
16842WAT     H150768   0.643   7.571   3.457
16842WAT     H250769   0.773   7.668   3.436
16843WAT      O50770   8.501   2.157   3.935
16843WAT     H150771   8.417   2.181   3.888
16843WAT     H250772   8.523   2.227   4.003
16844WAT      O50773   8.692   0.947   5.535
16844WAT     H150774   8.669   0.963   5.631
16844WAT     H250775   8.705   1.034   5.488
16845WAT      O50776   9.533   0.092   2.087
16845WAT     H150777   9.524   0.166   2.021
16845WAT     H250778   9.461   0.102   2.157
16846WAT      O50779   8.878   5.897   4.867
16846WAT     H150780   8.973   5.923   4.853
16846WAT     H250781   8.847   5.839   4.792
16847WAT      O50782   3.185   0.736   5.500
16847WAT     H150783   3.227   0.759   5.587
16847WAT     H250784   3.197   0.811   5.435
16848WAT      O50785   1.059   4.390   7.424
16848WAT     H150786   1.090   4.461   7.361
16848WAT     H250787   0.963   4.408   7.449
16849WAT      O50788   1.020   8.063   0.314
16849WAT     H150789   1.020   8.084   0.412
16849WAT     H250790   1.108   8.090   0.274
16850WAT      O50791   8.997   3.800   3.252
16850WAT     H150792   9.074   3.818   3.190
16850WAT     H250793   9.011   3.850   3.338
16851WAT      O50794   1.870   9.772   6.368
16851WAT     H150795   1.840   9.696   6.425
16851WAT     H250796   1.906   9.846   6.425
16852WAT      O50797   2.552   8.713   3.225
16852WAT     H150798   2.583   8.618   3.232
16852WAT     H250799   2.481   8.730   3.294
16853WAT      O50800   0.756   7.037   2.545
16853WAT     H150801   0.779   7.125   2.587
16853WAT     H250802   0.802   6.963   2.594
16854WAT      O50803   7.152   0.487   6.431
16854WAT     H150804   7.236   0.516   6.384
16854WAT     H250805   7.173   0.411   6.492
16855WAT      O50806   2.205   2.361   9.482
16855WAT     H150807   2.274   2.405   9.425
16855WAT     H250808   2.236   2.268   9.506
16856WAT      O50809   7.332   7.800   1.516
16856WAT     H150810   7.416   7.853   1.512
16856WAT     H250811   7.354   7.702   1.515
16857WAT      O50812   8.768   0.858   8.846
16857WAT     H150813   8.686   0.906   8.817
16857WAT     H250814   8.833   0.853   8.770
16858WAT      O50815   7.477   3.091   8.264
16858WAT     H150816   7.491   3.188   8.283
16858WAT     H250817   7.460   3.042   8.350
16859WAT      O50818   2.519   2.443   4.289
16859WAT     H150819   2.456   2.371   4.260
16859WAT     H250820   2.571   2.476   4.210
16860WAT      O50821   8.426   6.853   2.819
16860WAT     H150822   8.513   6.882   2.780
16860WAT     H250823   8.368   6.933   2.837
16861WAT      O50824   9.563   8.557   5.776
16861WAT     H150825   9.499   8.625   5.810
16861WAT     H250826   9.522   8.466   5.783
16862WAT      O50827   8.590   5.788   6.746
16862WAT     H150828   8.624   5.811   6.654
16862WAT     H250829   8.661   5.738   6.795
16863WAT      O50830   8.122   5.378   7.034
16863WAT     H150831   8.138   5.290   7.078
16863WAT     H250832   8.043   5.423   7.077
16864WAT      O50833   1.584   1.036   1.354
16864WAT     H150834   1.655   1.102   1.330
16864WAT     H250835   1.505   1.048   1.293
16865WAT      O50836   8.947   1.161   0.022
16865WAT     H150837   8.863   1.180   0.074
16865WAT     H250838   8.924   1.113  -0.062
16866WAT      O50839   3.027   7.456   2.029
16866WAT     H150840   3.096   7.434   2.098
16866WAT     H250841   3.052   7.542   1.984
16867WAT      O50842   3.462   6.149   0.466
16867WAT     H150843   3.451   6.051   0.486
16867WAT     H250844   3.452   6.165   0.368
16868WAT      O50845   9.600   4.231   7.601
16868WAT     H150846   9.640   4.141   7.619
16868WAT     H250847   9.500   4.223   7.598
16869WAT      O50848   0.597   2.102   0.273
16869WAT     H150849   0.592   2.049   0.357
16869WAT     H250850   0.608   2.199   0.295
16870WAT      O50851   0.744   1.115   1.908
16870WAT     H150852   0.691   1.192   1.872
16870WAT     H250853   0.824   1.100   1.851
16871WAT      O50854   1.795   9.074   3.563
16871WAT     H150855   1.749   8.989   3.589
16871WAT     H250856   1.741   9.152   3.595
16872WAT      O50857   1.507   4.979   0.669
16872WAT     H150858   1.551   4.966   0.758
16872WAT     H250859   1.441   4.905   0.654
16873WAT      O50860   2.410   5.721   0.126
16873WAT     H150861   2.454   5.652   0.067
16873WAT     H250862   2.479   5.762   0.185
16874WAT      O50863   6.825   8.719   4.188
16874WAT     H150864   6.879   8.636   4.174
16874WAT     H250865   6.757   8.728   4.115
16875WAT      O50866   4.091   0.090   6.469
16875WAT     H150867   4.052   0.169   6.517
16875WAT     H250868   4.184   0.111   6.439
16876WAT      O50869   7.082   7.877   5.403
16876WAT     H150870   7.100   7.912   5.495
16876WAT     H250871   7.155   7.905   5.342
16877WAT      O50872   1.401   2.682   7.095
16877WAT     H150873   1.407   2.649   7.189
16877WAT     H250874   1.443   2.772   7.089
16878WAT      O50875   0.502   6.262   5.480
16878WAT     H150876   0.564   6.185   5.492
16878WAT     H250877   0.536   6.341   5.531
16879WAT      O50878   9.113   6.828   7.313
16879WAT     H150879   9.161   6.874   7.388
16879WAT     H250880   9.027   6.875   7.295
16880WAT      O50881   8.949   7.621   7.925
16880WAT     H150882   8.954   7.524   7.901
16880WAT     H250883   8.896   7.670   7.856
16881WAT      O50884   1.095   7.924   3.843
16881WAT     H150885   1.118   7.840   3.892
16881WAT     H250886   1.155   7.998   3.875
16882WAT      O50887   6.225   8.117   7.681
16882WAT     H150888   6.186   8.030   7.649
16882WAT     H250889   6.152   8.181   7.701
16883WAT      O50890   7.621   0.571   2.900
16883WAT     H150891   7.541   0.630   2.889
16883WAT     H250892   7.703   0.628   2.902
16884WAT      O50893   2.654   6.374   3.224
16884WAT     H150894   2.659   6.468   3.257
16884WAT     H250895   2.683   6.370   3.129
16885WAT      O50896   3.001   1.969   6.563
16885WAT     H150897   3.012   1.977   6.662
16885WAT     H250898   3.076   1.913   6.526
16886WAT      O50899   7.627   6.173   1.621
16886WAT     H150900   7.576   6.109   1.563
16886WAT     H250901   7.713   6.197   1.576
16887WAT      O50902   9.551   0.704   6.111
16887WAT     H150903   9.571   0.802   6.120
16887WAT     H250904   9.635   0.651   6.124
16888WAT      O50905   1.556   3.771   0.426
16888WAT     H150906   1.581   3.860   0.464
16888WAT     H250907   1.540   3.707   0.501
16889WAT      O50908   4.316   1.791   9.125
16889WAT     H150909   4.343   1.840   9.042
16889WAT     H250910   4.387   1.801   9.195
16890WAT      O50911   1.906   3.471   2.730
16890WAT     H150912   1.818   3.425   2.715
16890WAT     H250913   1.978   3.421   2.682
16891WAT      O50914   5.155   7.236   6.588
16891WAT     H150915   5.140   7.156   6.530
16891WAT     H250916   5.070   7.264   6.631
16892WAT      O50917   0.285   6.463   4.276
16892WAT     H150918   0.250   6.418   4.359
16892WAT     H250919   0.252   6.557   4.273
16893WAT      O50920   1.388   4.704   3.870
16893WAT     H150921   1.359   4.712   3.965
16893WAT     H250922   1.318   4.744   3.811
16894WAT      O50923   3.276   8.579   0.966
16894WAT     H150924   3.188   8.578   0.918
16894WAT     H250925   3.278   8.504   1.032
16895WAT      O50926   5.584   5.956   7.740
16895WAT     H150927   5.680   5.964   7.716
16895WAT     H250928   5.528   5.977   7.660
16896WAT      O50929   2.518   7.389   4.572
16896WAT     H150930   2.450   7.463   4.569
16896WAT     H250931   2.536   7.365   4.667
16897WAT      O50932   8.668   9.758   7.666
16897WAT     H150933   8.694   9.662   7.658
16897WAT     H250934   8.722   9.813   7.603
16898WAT      O50935   1.226   8.483   7.915
16898WAT     H150936   1.280   8.559   7.878
16898WAT     H250937   1.140   8.476   7.864
16899WAT      O50938   3.325   7.960   7.571
16899WAT     H150939   3.313   7.893   7.644
16899WAT     H250940   3.351   7.913   7.487
16900WAT      O50941   1.681   8.200   5.497
16900WAT     H150942   1.597   8.148   5.489
16900WAT     H250943   1.690   8.235   5.591
16901WAT      O50944   5.056   4.396   8.496
16901WAT     H150945   5.103   4.418   8.410
16901WAT     H250946   4.962   4.368   8.476
16902WAT      O50947   9.608   3.179   3.141
16902WAT     H150948   9.546   3.217   3.210
16902WAT     H250949   9.570   3.195   3.050
16903WAT      O50950   4.139   3.414   0.774
16903WAT     H150951   4.040   3.429   0.769
16903WAT     H250952   4.165   3.391   0.867
16904WAT      O50953   4.350   7.979   0.564
16904WAT     H150954   4.282   7.905   0.573
16904WAT     H250955   4.326   8.036   0.486
16905WAT      O50956   2.539   8.321   9.513
16905WAT     H150957   2.521   8.293   9.419
16905WAT     H250958   2.460   8.373   9.548
16906WAT      O50959   5.616   2.977   1.369
16906WAT     H150960   5.591   2.902   1.430
16906WAT     H250961   5.707   2.961   1.330
16907WAT      O50962   2.562   3.367   8.744
16907WAT     H150963   2.494   3.310   8.699
16907WAT     H250964   2.590   3.441   8.683
16908WAT      O50965   5.839   0.758   9.427
16908WAT     H150966   5.739   0.760   9.424
16908WAT     H250967   5.874   0.721   9.341
16909WAT      O50968   4.184   1.278   8.345
16909WAT     H150969   4.136   1.352   8.298
16909WAT     H250970   4.124   1.198   8.351
16910WAT      O50971   0.432   0.896   6.669
16910WAT     H150972   0.500   0.929   6.734
16910WAT     H250973   0.376   0.972   6.638
16911WAT      O50974   5.803   5.286   1.300
16911WAT     H150975   5.796   5.270   1.201
16911WAT     H250976   5.806   5.198   1.347
16912WAT      O50977   8.848   4.871   5.885
16912WAT     H150978   8.809   4.805   5.820
16912WAT     H250979   8.813   4.963   5.864
16913WAT      O50980   2.994   9.727   7.433
16913WAT     H150981   2.952   9.662   7.370
16913WAT     H250982   3.047   9.794   7.380
16914WAT      O50983   0.053   8.668   9.411
16914WAT     H150984  -0.001   8.659   9.495
16914WAT     H250985   0.108   8.752   9.416
16915WAT      O50986   2.579   1.293   5.671
16915WAT     H150987   2.673   1.271   5.700
16915WAT     H250988   2.532   1.209   5.644
16916WAT      O50989   4.228   6.958   5.176
16916WAT     H150990   4.229   7.058   5.184
16916WAT     H250991   4.322   6.925   5.165
16917WAT      O50992   4.565   2.131   1.586
16917WAT     H150993   4.622   2.146   1.506
16917WAT     H250994   4.574   2.036   1.617
16918WAT      O50995   8.514   1.856   6.648
16918WAT     H150996   8.560   1.891   6.729
16918WAT     H250997   8.415   1.867   6.658
16919WAT      O50998   1.762   5.703   8.459
16919WAT     H150999   1.679   5.758   8.448
16919WAT     H251000   1.797   5.677   8.369
16920WAT      O51001   6.724   2.703   4.677
16920WAT     H151002   6.763   2.765   4.609
16920WAT     H251003   6.790   2.687   4.750
16921WAT      O51004   0.054   9.324   0.888
16921WAT     H151005   0.055   9.423   0.873
16921WAT     H251006  -0.015   9.282   0.828
16922WAT      O51007   6.456   0.477   5.288
16922WAT     H151008   6.478   0.409   5.357
16922WAT     H251009   6.358   0.477   5.270
16923WAT      O51010   9.174   3.514   0.138
16923WAT     H151011   9.097   3.550   0.086
16923WAT     H251012   9.225   3.589   0.179
16924WAT      O51013   9.119   9.717   7.157
16924WAT     H151014   9.109   9.618   7.143
16924WAT     H251015   9.110   9.738   7.254
16925WAT      O51016   9.258   2.252   4.226
16925WAT     H151017   9.329   2.266   4.156
16925WAT     H251018   9.291   2.286   4.314
16926WAT      O51019   9.156   2.454   5.537
16926WAT     H151020   9.211   2.455   5.453
16926WAT     H251021   9.085   2.523   5.531
16927WAT      O51022   4.263   1.774   5.803
16927WAT     H151023   4.329   1.846   5.819
16927WAT     H251024   4.307   1.699   5.753
16928WAT      O51025   6.782   7.415   0.238
16928WAT     H151026   6.746   7.336   0.287
16928WAT     H251027   6.781   7.495   0.298
16929WAT      O51028   3.253   5.118   5.904
16929WAT     H151029   3.203   5.164   5.978
16929WAT     H251030   3.257   5.020   5.922
16930WAT      O51031   1.317   4.123   8.007
16930WAT     H151032   1.345   4.121   8.103
16930WAT     H251033   1.218   4.111   8.001
16931WAT      O51034   3.713   0.712   4.065
16931WAT     H151035   3.777   0.698   3.989
16931WAT     H251036   3.740   0.655   4.142
16932WAT      O51037   4.740   7.768   0.708
16932WAT     H151038   4.729   7.855   0.661
16932WAT     H251039   4.687   7.697   0.661
16933WAT      O51040   5.706   1.381   5.135
16933WAT     H151041   5.806   1.380   5.145
16933WAT     H251042   5.678   1.466   5.092
16934WAT      O51043   0.262   6.018   8.818
16934WAT     H151044   0.360   6.023   8.800
16934WAT     H251045   0.246   5.989   8.912
16935WAT      O51046   3.628   4.409   5.835
16935WAT     H151047   3.534   4.444   5.834
16935WAT     H251048   3.687   4.470   5.783
16936WAT      O51049   6.074   9.576   1.584
16936WAT     H151050   6.057   9.504   1.516
16936WAT     H251051   6.062   9.539   1.676
16937WAT      O51052   3.737   4.681   4.540
16937WAT     H151053   3.735   4.777   4.566
16937WAT     H251054   3.774   4.626   4.615
16938WAT      O51055   3.205   5.226   5.671
16938WAT     H151056   3.110   5.228   5.639
16938WAT     H251057   3.210   5.178   5.758
16939WAT      O51058   8.629   1.003   3.426
16939WAT     H151059   8.622   0.935   3.353
16939WAT     H251060   8.725   1.017   3.450
16940WAT      O51061   8.058   7.633   3.311
16940WAT     H151062   8.036   7.535   3.316
16940WAT     H251063   8.031   7.678   3.396
16941WAT      O51064   7.582   8.612   0.342
16941WAT     H151065   7.528   8.615   0.258
16941WAT     H251066   7.535   8.557   0.411
16942WAT      O51067   5.741   2.489   3.459
16942WAT     H151068   5.675   2.414   3.462
16942WAT     H251069   5.832   2.455   3.481
16943WAT      O51070   4.148   8.462   1.004
16943WAT     H151071   4.100   8.436   1.087
16943WAT     H251072   4.174   8.380   0.953
16944WAT      O51073   4.950   1.930   3.797
16944WAT     H151074   4.922   2.006   3.855
16944WAT     H251075   4.992   1.965   3.713
16945WAT      O51076   5.449   0.868   6.382
16945WAT     H151077   5.377   0.892   6.448
16945WAT     H251078   5.425   0.903   6.292
16946WAT      O51079   1.674   4.700   9.312
16946WAT     H151080   1.707   4.745   9.229
16946WAT     H251081   1.625   4.616   9.286
16947WAT      O51082   9.239   7.907   4.844
16947WAT     H151083   9.225   7.815   4.807
16947WAT     H251084   9.172   7.923   4.917
16948WAT      O51085   7.350   0.842   8.298
16948WAT     H151086   7.307   0.761   8.339
16948WAT     H251087   7.347   0.835   8.199
16949WAT      O51088   6.979   2.297   9.868
16949WAT     H151089   7.020   2.207   9.858
16949WAT     H251090   6.880   2.291   9.854
16950WAT      O51091   5.009   0.338   7.141
16950WAT     H151092   5.063   0.254   7.144
16950WAT     H251093   4.952   0.339   7.059
16951WAT      O51094   8.528   6.005   5.157
16951WAT     H151095   8.482   5.917   5.169
16951WAT     H251096   8.627   5.990   5.153
16952WAT      O51097   3.057   8.546   8.183
16952WAT     H151098   3.144   8.545   8.233
16952WAT     H251099   2.982   8.536   8.247
16953WAT      O51100   4.600   8.582   4.228
16953WAT     H151101   4.634   8.649   4.162
16953WAT     H251102   4.535   8.624   4.290
16954WAT      O51103   7.934   1.110   0.138
16954WAT     H151104   7.942   1.083   0.234
16954WAT     H251105   7.837   1.116   0.114
16955WAT      O51106   7.329   2.225   5.373
16955WAT     H151107   7.255   2.201   5.435
16955WAT     H251108   7.341   2.152   5.306
16956WAT      O51109   5.685   9.516   0.597
16956WAT     H151110   5.657   9.566   0.679
16956WAT     H251111   5.738   9.577   0.537
16957WAT      O51112   3.517   1.614   6.281
16957WAT     H151113   3.513   1.699   6.229
16957WAT     H251114   3.467   1.625   6.368
16958WAT      O51115   0.217   3.983   1.533
16958WAT     H151116   0.121   3.986   1.562
16958WAT     H251117   0.272   4.040   1.594
16959WAT      O51118   1.609   4.079   0.872
16959WAT     H151119   1.528   4.025   0.895
16959WAT     H251120   1.580   4.167   0.833
16960WAT      O51121   1.315   8.069   3.889
16960WAT     H151122   1.343   8.077   3.985
16960WAT     H251123   1.395   8.047   3.833
16961WAT      O51124   0.408   1.980   8.875
16961WAT     H151125   0.362   1.953   8.790
16961WAT     H251126   0.445   1.899   8.920
16962WAT      O51127   8.614   1.831   9.395
16962WAT     H151128   8.677   1.754   9.391
16962WAT     H251129   8.641   1.900   9.327
16963WAT      O51130   0.567   8.988   6.279
16963WAT     H151131   0.602   9.076   6.248
16963WAT     H251132   0.643   8.932   6.313
16964WAT      O51133   1.324   3.151   5.682
16964WAT     H151134   1.404   3.119   5.631
16964WAT     H251135   1.263   3.075   5.700
16965WAT      O51136   0.735   1.724   8.904
16965WAT     H151137   0.784   1.767   8.981
16965WAT     H251138   0.777   1.753   8.818
16966WAT      O51139   2.368   2.673   3.885
16966WAT     H151140   2.347   2.770   3.889
16966WAT     H251141   2.289   2.623   3.849
16967WAT      O51142   5.727   0.010   1.800
16967WAT     H151143   5.679  -0.022   1.881
16967WAT     H251144   5.823   0.026   1.822
16968WAT      O51145   4.373   1.736   5.254
16968WAT     H151146   4.360   1.826   5.214
16968WAT     H251147   4.445   1.740   5.325
16969WAT      O51148   2.346   4.500   5.907
16969WAT     H151149   2.267   4.553   5.877
16969WAT     H251150   2.376   4.533   5.997
16970WAT      O51151   4.376   3.024   4.806
16970WAT     H151152   4.355   3.112   4.764
16970WAT     H251153   4.436   2.971   4.746
16971WAT      O51154   6.537   5.885   6.508
16971WAT     H151155   6.559   5.882   6.410
16971WAT     H251156   6.555   5.978   6.542
16972WAT      O51157   7.932   6.009   4.959
16972WAT     H151158   7.915   6.076   4.887
16972WAT     H251159   7.871   5.930   4.946
16973WAT      O51160   1.116   7.101   4.191
16973WAT     H151161   1.096   7.080   4.095
16973WAT     H251162   1.069   7.185   4.217
16974WAT      O51163   5.851   9.523   1.076
16974WAT     H151164   5.895   9.437   1.048
16974WAT     H251165   5.757   9.525   1.043
16975WAT      O51166   8.128   2.277   0.313
16975WAT     H151167   8.080   2.350   0.263
16975WAT     H251168   8.061   2.219   0.359
16976WAT      O51169   1.379   7.295   7.302
16976WAT     H151170   1.287   7.276   7.336
16976WAT     H251171   1.423   7.363   7.361
16977WAT      O51172   2.221   3.114   6.196
16977WAT     H151173   2.140   3.163   6.228
16977WAT     H251174   2.290   3.113   6.269
16978WAT      O51175   3.068   6.689   4.421
16978WAT     H151176   3.106   6.606   4.379
16978WAT     H251177   2.973   6.700   4.391
16979WAT      O51178   8.392   6.806   1.231
16979WAT     H151179   8.411   6.882   1.292
16979WAT     H251180   8.470   6.791   1.170
16980WAT      O51181   6.845   3.762   6.333
16980WAT     H151182   6.800   3.807   6.256
16980WAT     H251183   6.937   3.800   6.346
16981WAT      O51184   9.183  -0.001   4.877
16981WAT     H151185   9.137  -0.021   4.963
16981WAT     H251186   9.124   0.056   4.820
16982WAT      O51187   2.759   0.379   2.564
16982WAT     H151188   2.768   0.321   2.645
16982WAT     H251189   2.727   0.324   2.487
16983WAT      O51190   4.349   3.944   9.384
16983WAT     H151191   4.402   3.880   9.329
16983WAT     H251192   4.399   3.965   9.468
16984WAT      O51193   6.331   7.605   7.917
16984WAT     H151194   6.270   7.684   7.922
16984WAT     H251195   6.303   7.544   7.843
16985WAT      O51196   6.505   5.700   1.434
16985WAT     H151197   6.427   5.643   1.407
16985WAT     H251198   6.536   5.752   1.355
16986WAT      O51199   2.058   3.247   7.663
16986WAT     H151200   2.047   3.179   7.591
16986WAT     H251201   2.142   3.229   7.714
16987WAT      O51202   1.720   8.821   2.933
16987WAT     H151203   1.742   8.906   2.886
16987WAT     H251204   1.769   8.819   3.021
16988WAT      O51205   2.508   5.785   3.540
16988WAT     H151206   2.517   5.686   3.532
16988WAT     H251207   2.471   5.808   3.630
16989WAT      O51208   4.298   3.759   0.532
16989WAT     H151209   4.242   3.828   0.576
16989WAT     H251210   4.371   3.804   0.480
16990WAT      O51211   1.784   4.513   5.683
16990WAT     H151212   1.730   4.596   5.676
16990WAT     H251213   1.811   4.483   5.591
16991WAT      O51214   6.350   0.746   7.705
16991WAT     H151215   6.311   0.667   7.753
16991WAT     H251216   6.447   0.754   7.728
16992WAT      O51217   4.242   9.591   5.060
16992WAT     H151218   4.228   9.533   5.141
16992WAT     H251219   4.306   9.665   5.083
16993WAT      O51220   0.299   4.864   7.313
16993WAT     H151221   0.333   4.946   7.359
16993WAT     H251222   0.282   4.792   7.381
16994WAT      O51223   9.054   7.477   3.053
16994WAT     H151224   9.060   7.491   3.152
16994WAT     H251225   9.093   7.556   3.006
16995WAT      O51226   9.422   0.074   8.883
16995WAT     H151227   9.505   0.028   8.853
16995WAT     H251228   9.400   0.148   8.819
16996WAT      O51229   6.189   8.255   1.333
16996WAT     H151230   6.262   8.239   1.266
16996WAT     H251231   6.198   8.347   1.371
16997WAT      O51232   5.431   4.104   7.134
16997WAT     H151233   5.333   4.081   7.136
16997WAT     H251234   5.478   4.043   7.071
16998WAT      O51235   9.027   7.032   9.681
16998WAT     H151236   9.099   7.001   9.743
16998WAT     H251237   8.941   6.985   9.704
16999WAT      O51238   5.482   2.833   0.580
16999WAT     H151239   5.488   2.759   0.648
16999WAT     H251240   5.477   2.793   0.488
17000WAT      O51241   3.173   9.516   9.793
17000WAT     H151242   3.104   9.564   9.738
17000WAT     H251243   3.221   9.582   9.851
17001WAT      O51244   0.912   9.616   6.445
17001WAT     H151245   0.910   9.656   6.536
17001WAT     H251246   1.005   9.624   6.407
17002WAT      O51247   1.889   6.941   2.754
17002WAT     H151248   1.801   6.896   2.767
17002WAT     H251249   1.877   7.024   2.700
17003WAT      O51250   3.034   3.464   9.201
17003WAT     H151251   2.974   3.452   9.122
17003WAT     H251252   2.998   3.536   9.260
17004WAT      O51253   1.857   4.209   0.865
17004WAT     H151254   1.834   4.302   0.893
17004WAT     H251255   1.776   4.151   0.870
17005WAT      O51256   5.059   2.489   7.294
17005WAT     H151257   5.075   2.407   7.349
17005WAT     H251258   5.144   2.519   7.253
17006WAT      O51259   6.984   7.684   6.598
17006WAT     H151260   6.974   7.746   6.520
17006WAT     H251261   7.072   7.701   6.642
17007WAT      O51262   2.249   7.699   4.792
17007WAT     H151263   2.304   7.660   4.718
17007WAT     H251264   2.222   7.792   4.769
17008WAT      O51265   0.602   1.325   2.782
17008WAT     H151266   0.638   1.264   2.853
17008WAT     H251267   0.559   1.404   2.824
17009WAT      O51268   8.411   1.822   7.226
17009WAT     H151269   8.423   1.831   7.127
17009WAT     H251270   8.321   1.782   7.245
17010WAT      O51271   1.996   6.462   5.544
17010WAT     H151272   2.066   6.518   5.499
17010WAT     H251273   1.933   6.427   5.474
17011WAT      O51274   3.558   8.930   8.776
17011WAT     H151275   3.459   8.948   8.774
17011WAT     H251276   3.577   8.859   8.843
17012WAT      O51277   2.416   3.424   4.949
17012WAT     H151278   2.472   3.393   5.026
17012WAT     H251279   2.319   3.415   4.971
17013WAT      O51280   3.203   3.799   8.510
17013WAT     H151281   3.219   3.876   8.448
17013WAT     H251282   3.268   3.803   8.586
17014WAT      O51283   8.125   7.617   1.551
17014WAT     H151284   8.062   7.592   1.625
17014WAT     H251285   8.170   7.535   1.516
17015WAT      O51286   8.867   1.936   9.878
17015WAT     H151287   8.880   1.900   9.970
17015WAT     H251288   8.955   1.944   9.832
17016WAT      O51289   6.316   2.941   2.701
17016WAT     H151290   6.227   2.985   2.686
17016WAT     H251291   6.348   2.899   2.616
17017WAT      O51292   8.496   1.666   7.611
17017WAT     H151293   8.537   1.639   7.524
17017WAT     H251294   8.527   1.758   7.636
17018WAT      O51295   3.073   8.386   4.879
17018WAT     H151296   2.979   8.414   4.856
17018WAT     H251297   3.084   8.386   4.978
17019WAT      O51298   2.858   3.247   2.637
17019WAT     H151299   2.791   3.307   2.595
17019WAT     H251300   2.927   3.301   2.684
17020WAT      O51301   6.610   0.739   7.161
17020WAT     H151302   6.593   0.642   7.177
17020WAT     H251303   6.689   0.768   7.214
17021WAT      O51304   0.852   2.266   4.022
17021WAT     H151305   0.873   2.200   4.094
17021WAT     H251306   0.828   2.354   4.064
17022WAT      O51307   1.119   4.417   9.310
17022WAT     H151308   1.162   4.407   9.400
17022WAT     H251309   1.139   4.508   9.274
17023WAT      O51310   3.600   0.039   0.505
17023WAT     H151311   3.695   0.052   0.532
17023WAT     H251312   3.540   0.091   0.565
17024WAT      O51313   5.869   1.366   0.485
17024WAT     H151314   5.773   1.346   0.506
17024WAT     H251315   5.924   1.357   0.568
17025WAT      O51316   8.203   4.307   3.752
17025WAT     H151317   8.193   4.292   3.851
17025WAT     H251318   8.211   4.405   3.734
17026WAT      O51319   5.861   0.583   2.377
17026WAT     H151320   5.804   0.587   2.459
17026WAT     H251321   5.813   0.531   2.306
17027WAT      O51322   1.449   2.208   8.284
17027WAT     H151323   1.541   2.247   8.285
17027WAT     H251324   1.382   2.282   8.289
17028WAT      O51325   9.587   0.504   3.334
17028WAT     H151326   9.615   0.467   3.423
17028WAT     H251327   9.650   0.470   3.264
17029WAT      O51328   7.374   0.136   4.599
17029WAT     H151329   7.351   0.209   4.663
17029WAT     H251330   7.446   0.079   4.639
17030WAT      O51331   9.333   6.128   8.500
17030WAT     H151332   9.376   6.055   8.447
17030WAT     H251333   9.347   6.216   8.454
17031WAT      O51334   0.869   2.065   1.196
17031WAT     H151335   0.917   2.152   1.204
17031WAT     H251336   0.794   2.062   1.262
17032WAT      O51337   0.874   8.605   1.080
17032WAT     H151338   0.881   8.621   0.982
17032WAT     H251339   0.832   8.515   1.096
17033WAT      O51340   4.998   7.812   0.825
17033WAT     H151341   4.915   7.813   0.769
17033WAT     H251342   5.073   7.771   0.774
17034WAT      O51343   7.091   5.398   1.206
17034WAT     H151344   7.087   5.323   1.273
17034WAT     H251345   7.012   5.458   1.220
17035WAT      O51346   4.774   1.377   6.521
17035WAT     H151347   4.861   1.423   6.502
17035WAT     H251348   4.721   1.430   6.586
17036WAT      O51349   0.514   2.722   2.231
17036WAT     H151350   0.504   2.791   2.160
17036WAT     H251351   0.511   2.631   2.190
17037WAT      O51352   4.852   2.448   1.601
17037WAT     H151353   4.794   2.417   1.526
17037WAT     H251354   4.922   2.510   1.565
17038WAT      O51355   5.464   9.199   3.862
17038WAT     H151356   5.423   9.202   3.771
17038WAT     H251357   5.473   9.104   3.892
17039WAT      O51358   1.626   7.545   1.824
17039WAT     H151359   1.674   7.580   1.745
17039WAT     H251360   1.680   7.471   1.866
17040WAT      O51361   3.788   9.777   0.149
17040WAT     H151362   3.878   9.801   0.186
17040WAT     H251363   3.720   9.842   0.182
17041WAT      O51364   6.351   3.881   3.500
17041WAT     H151365   6.345   3.899   3.402
17041WAT     H251366   6.432   3.927   3.537
17042WAT      O51367   1.073   0.682   8.915
17042WAT     H151368   1.006   0.733   8.970
17042WAT     H251369   1.163   0.725   8.924
17043WAT      O51370   2.417   8.711   9.420
17043WAT     H151371   2.369   8.740   9.503
17043WAT     H251372   2.364   8.642   9.372
17044WAT      O51373   5.947   7.402   4.418
17044WAT     H151374   5.965   7.443   4.329
17044WAT     H251375   6.031   7.361   4.454
17045WAT      O51376   7.312   8.599   1.300
17045WAT     H151377   7.291   8.555   1.387
17045WAT     H251378   7.408   8.628   1.299
17046WAT      O51379   8.640   1.105   9.163
17046WAT     H151380   8.609   1.186   9.112
17046WAT     H251381   8.681   1.040   9.100
17047WAT      O51382   4.289   0.529   8.059
17047WAT     H151383   4.377   0.494   8.091
17047WAT     H251384   4.300   0.623   8.027
17048WAT      O51385   8.950   6.527   3.812
17048WAT     H151386   8.914   6.446   3.856
17048WAT     H251387   8.949   6.604   3.876
17049WAT      O51388   9.820   9.229   4.245
17049WAT     H151389   9.881   9.279   4.307
17049WAT     H251390   9.734   9.211   4.292
17050WAT      O51391   4.569   3.998   8.153
17050WAT     H151392   4.533   3.908   8.131
17050WAT     H251393   4.666   4.002   8.130
17051WAT      O51394   4.465   2.889   1.007
17051WAT     H151395   4.484   2.914   0.912
17051WAT     H251396   4.367   2.874   1.019
17052WAT      O51397   7.000   9.413   1.262
17052WAT     H151398   7.038   9.504   1.243
17052WAT     H251399   6.989   9.363   1.176
17053WAT      O51400   2.381   0.658   4.860
17053WAT     H151401   2.321   0.686   4.785
17053WAT     H251402   2.333   0.667   4.947
17054WAT      O51403   2.121   8.639   9.803
17054WAT     H151404   2.187   8.611   9.872
17054WAT     H251405   2.034   8.592   9.819
17055WAT      O51406   3.119   8.004   8.739
17055WAT     H151407   3.194   7.945   8.712
17055WAT     H251408   3.100   8.070   8.667
17056WAT      O51409   8.125   1.628   1.533
17056WAT     H151410   8.118   1.726   1.550
17056WAT     H251411   8.122   1.611   1.435
17057WAT      O51412   6.201   2.185   6.102
17057WAT     H151413   6.196   2.087   6.120
17057WAT     H251414   6.206   2.201   6.004
17058WAT      O51415   8.533   5.195   6.407
17058WAT     H151416   8.459   5.128   6.399
17058WAT     H251417   8.620   5.151   6.388
17059WAT      O51418   0.223   4.541   3.479
17059WAT     H151419   0.263   4.579   3.562
17059WAT     H251420   0.267   4.583   3.399
17060WAT      O51421   6.834   2.123   1.768
17060WAT     H151422   6.739   2.105   1.792
17060WAT     H251423   6.877   2.038   1.737
17061WAT      O51424   2.136   4.504   3.022
17061WAT     H151425   2.096   4.539   2.938
17061WAT     H251426   2.063   4.474   3.083
17062WAT      O51427   6.011   0.817   7.946
17062WAT     H151428   6.012   0.745   7.877
17062WAT     H251429   6.103   0.856   7.956
17063WAT      O51430   5.898   8.880   5.388
17063WAT     H151431   5.883   8.918   5.296
17063WAT     H251432   5.986   8.833   5.391
17064WAT      O51433   1.035   6.652   6.146
17064WAT     H151434   1.077   6.604   6.223
17064WAT     H251435   1.091   6.730   6.120
17065WAT      O51436   7.070   8.529   3.656
17065WAT     H151437   6.975   8.519   3.626
17065WAT     H251438   7.131   8.496   3.584
17066WAT      O51439   2.594   6.108   0.987
17066WAT     H151440   2.575   6.059   1.072
17066WAT     H251441   2.529   6.078   0.916
17067WAT      O51442   4.980   5.265   3.091
17067WAT     H151443   4.900   5.312   3.129
17067WAT     H251444   4.972   5.167   3.108
17068WAT      O51445   2.460   7.041   4.126
17068WAT     H151446   2.538   6.992   4.164
17068WAT     H251447   2.388   6.976   4.103
17069WAT      O51448   0.056   4.820   9.265
17069WAT     H151449   0.135   4.785   9.314
17069WAT     H251450  -0.025   4.814   9.324
17070WAT      O51451   6.557   4.792   7.627
17070WAT     H151452   6.513   4.875   7.594
17070WAT     H251453   6.498   4.713   7.609
17071WAT      O51454   3.453   7.705   1.196
17071WAT     H151455   3.396   7.626   1.173
17071WAT     H251456   3.497   7.690   1.285
17072WAT      O51457   1.148   8.000   9.690
17072WAT     H151458   1.206   7.945   9.629
17072WAT     H251459   1.123   7.945   9.770
17073WAT      O51460   2.601   4.938   6.539
17073WAT     H151461   2.568   4.845   6.521
17073WAT     H251462   2.545   4.979   6.611
17074WAT      O51463   6.000   6.781   3.647
17074WAT     H151464   5.951   6.702   3.685
17074WAT     H251465   6.050   6.827   3.720
17075WAT      O51466   5.050   4.746   7.111
17075WAT     H151467   5.143   4.781   7.095
17075WAT     H251468   5.040   4.721   7.207
17076WAT      O51469   6.783   7.874   1.118
17076WAT     H151470   6.855   7.929   1.076
17076WAT     H251471   6.806   7.777   1.109
17077WAT      O51472   6.821   9.060   6.493
17077WAT     H151473   6.758   9.121   6.541
17077WAT     H251474   6.809   8.967   6.527
17078WAT      O51475   4.666   8.705   2.658
17078WAT     H151476   4.700   8.735   2.747
17078WAT     H251477   4.742   8.670   2.603
17079WAT      O51478   6.101   4.798   7.032
17079WAT     H151479   6.050   4.785   7.117
17079WAT     H251480   6.197   4.818   7.054
17080WAT      O51481   4.443   9.507   9.487
17080WAT     H151482   4.413   9.413   9.473
17080WAT     H251483   4.364   9.564   9.510
17081WAT      O51484   8.172   2.404   2.821
17081WAT     H151485   8.073   2.389   2.822
17081WAT     H251486   8.193   2.485   2.876
17082WAT      O51487   8.016   5.670   0.081
17082WAT     H151488   8.103   5.622   0.072
17082WAT     H251489   7.952   5.638   0.011
17083WAT      O51490   2.349   6.123   1.695
17083WAT     H151491   2.401   6.041   1.673
17083WAT     H251492   2.358   6.190   1.621
17084WAT      O51493   5.561   3.389   4.138
17084WAT     H151494   5.502   3.368   4.060
17084WAT     H251495   5.521   3.465   4.189
17085WAT      O51496   6.178   3.139   1.480
17085WAT     H151497   6.080   3.120   1.469
17085WAT     H251498   6.192   3.188   1.566
17086WAT      O51499   4.310   2.429   9.211
17086WAT     H151500   4.348   2.337   9.212
17086WAT     H251501   4.288   2.456   9.117
17087WAT      O51502   9.460   7.130   4.465
17087WAT     H151503   9.429   7.080   4.385
17087WAT     H251504   9.384   7.185   4.500
17088WAT      O51505   7.084   3.266   7.131
17088WAT     H151506   7.170   3.302   7.168
17088WAT     H251507   7.032   3.341   7.091
17089WAT      O51508   4.568   3.371   1.802
17089WAT     H151509   4.487   3.413   1.844
17089WAT     H251510   4.608   3.305   1.865
17090WAT      O51511   5.361   0.257   2.417
17090WAT     H151512   5.443   0.313   2.427
17090WAT     H251513   5.386   0.166   2.383
17091WAT      O51514   7.259   4.672   1.312
17091WAT     H151515   7.331   4.686   1.379
17091WAT     H251516   7.229   4.761   1.277
17092WAT      O51517   9.377   8.012   2.404
17092WAT     H151518   9.302   8.076   2.423
17092WAT     H251519   9.433   8.000   2.485
17093WAT      O51520   8.950   6.071   4.090
17093WAT     H151521   9.034   6.057   4.036
17093WAT     H251522   8.872   6.036   4.038
17094WAT      O51523   0.801   1.601   5.265
17094WAT     H151524   0.752   1.680   5.227
17094WAT     H251525   0.741   1.521   5.261
17095WAT      O51526   7.778   8.589   3.867
17095WAT     H151527   7.834   8.514   3.902
17095WAT     H251528   7.812   8.617   3.777
17096WAT      O51529   0.559   1.649   7.813
17096WAT     H151530   0.472   1.651   7.763
17096WAT     H251531   0.599   1.740   7.814
17097WAT      O51532   7.310   2.861   7.935
17097WAT     H151533   7.355   2.948   7.919
17097WAT     H251534   7.213   2.876   7.953
17098WAT      O51535   5.100   8.897   6.164
17098WAT     H151536   5.081   8.863   6.071
17098WAT     H251537   5.056   8.838   6.231
17099WAT      O51538   3.086   2.118   2.738
17099WAT     H151539   3.092   2.052   2.814
17099WAT     H251540   3.062   2.208   2.774
17100WAT      O51541   0.011   3.627   8.166
17100WAT     H151542  -0.021   3.532   8.161
17100WAT     H251543   0.025   3.663   8.074
17101WAT      O51544   7.128   7.970   3.617
17101WAT     H151545   7.110   7.893   3.678
17101WAT     H251546   7.181   8.040   3.665
17102WAT      O51547   2.839   2.163   5.662
17102WAT     H151548   2.923   2.202   5.699
17102WAT     H251549   2.850   2.065   5.647
17103WAT      O51550   1.272   0.760   5.553
17103WAT     H151551   1.297   0.852   5.585
17103WAT     H251552   1.353   0.701   5.557
17104WAT      O51553   8.695   0.970   7.157
17104WAT     H151554   8.757   0.914   7.102
17104WAT     H251555   8.601   0.944   7.138
17105WAT      O51556   8.919   3.725   2.491
17105WAT     H151557   8.824   3.699   2.507
17105WAT     H251558   8.959   3.759   2.576
17106WAT      O51559   4.676   4.692   4.100
17106WAT     H151560   4.749   4.665   4.163
17106WAT     H251561   4.604   4.622   4.101
17107WAT      O51562   2.820   5.839   8.559
17107WAT     H151563   2.809   5.797   8.648
17107WAT     H251564   2.806   5.771   8.487
17108WAT      O51565   8.404   5.857   1.573
17108WAT     H151566   8.399   5.945   1.526
17108WAT     H251567   8.496   5.819   1.562
17109WAT      O51568   4.860   2.067   4.058
17109WAT     H151569   4.835   2.134   3.987
17109WAT     H251570   4.795   1.990   4.054
17110WAT      O51571   5.660   8.426   5.670
17110WAT     H151572   5.644   8.500   5.735
17110WAT     H251573   5.659   8.339   5.719
17111WAT      O51574   2.754   2.275   7.541
17111WAT     H151575   2.669   2.314   7.575
17111WAT     H251576   2.734   2.190   7.491
17112WAT      O51577   9.262   3.103   1.881
17112WAT     H151578   9.286   3.151   1.796
17112WAT     H251579   9.346   3.087   1.934
17113WAT      O51580   1.414   3.362   8.957
17113WAT     H151581   1.318   3.372   8.982
17113WAT     H251582   1.464   3.321   9.033
17114WAT      O51583   1.631   7.651   7.966
17114WAT     H151584   1.576   7.728   7.932
17114WAT     H251585   1.727   7.666   7.941
17115WAT      O51586   6.238   9.800   0.467
17115WAT     H151587   6.303   9.868   0.501
17115WAT     H251588   6.145   9.829   0.486
17116WAT      O51589   8.085   6.109   1.672
17116WAT     H151590   8.052   6.064   1.589
17116WAT     H251591   8.090   6.208   1.655
17117WAT      O51592   9.258   9.032   4.583
17117WAT     H151593   9.275   9.121   4.625
17117WAT     H251594   9.180   9.038   4.522
17118WAT      O51595   5.251   9.431   1.223
17118WAT     H151596   5.278   9.388   1.136
17118WAT     H251597   5.331   9.436   1.283
17119WAT      O51598   6.566   0.598   9.836
17119WAT     H151599   6.597   0.693   9.828
17119WAT     H251600   6.499   0.579   9.764
17120WAT      O51601   1.908   3.608   0.101
17120WAT     H151602   1.822   3.629   0.148
17120WAT     H251603   1.901   3.519   0.058
17121WAT      O51604   2.928   3.312   0.998
17121WAT     H151605   2.951   3.307   1.095
17121WAT     H251606   2.984   3.246   0.947
17122WAT      O51607   0.083   2.730   5.282
17122WAT     H151608   0.101   2.633   5.295
17122WAT     H251609   0.151   2.768   5.219
17123WAT      O51610   4.444   3.929   2.815
17123WAT     H151611   4.462   3.978   2.729
17123WAT     H251612   4.399   3.991   2.879
17124WAT      O51613   1.104   0.082   3.379
17124WAT     H151614   1.177   0.130   3.426
17124WAT     H251615   1.035   0.147   3.348
17125WAT      O51616   6.817   8.902   3.747
17125WAT     H151617   6.900   8.879   3.798
17125WAT     H251618   6.744   8.923   3.812
17126WAT      O51619   7.054   2.116   8.710
17126WAT     H151620   7.035   2.213   8.720
17126WAT     H251621   7.056   2.072   8.800
17127WAT      O51622   7.939   9.175   0.164
17127WAT     H151623   7.972   9.090   0.125
17127WAT     H251624   7.955   9.175   0.263
17128WAT      O51625   0.775   3.812   1.626
17128WAT     H151626   0.780   3.713   1.617
17128WAT     H251627   0.712   3.836   1.700
17129WAT      O51628   2.833   3.554   9.625
17129WAT     H151629   2.760   3.498   9.665
17129WAT     H251630   2.920   3.530   9.668
17130WAT      O51631   4.603   5.707   9.841
17130WAT     H151632   4.522   5.725   9.897
17130WAT     H251633   4.597   5.614   9.804
17131WAT      O51634   1.956   1.938   8.925
17131WAT     H151635   2.009   1.871   8.978
17131WAT     H251636   1.997   2.028   8.935
17132WAT      O51637   1.411   4.932   8.417
17132WAT     H151638   1.467   4.873   8.475
17132WAT     H251639   1.431   4.913   8.320
17133WAT      O51640   5.089   8.794   0.566
17133WAT     H151641   5.004   8.744   0.557
17133WAT     H251642   5.079   8.865   0.636
17134WAT      O51643   7.180   3.313   0.585
17134WAT     H151644   7.224   3.379   0.646
17134WAT     H251645   7.225   3.224   0.594
17135WAT      O51646   1.964   0.839   3.350
17135WAT     H151647   1.994   0.904   3.421
17135WAT     H251648   1.940   0.752   3.393
17136WAT      O51649   6.464   8.949   1.004
17136WAT     H151650   6.469   8.984   0.911
17136WAT     H251651   6.370   8.957   1.038
17137WAT      O51652   2.503   7.790   8.963
17137WAT     H151653   2.479   7.742   9.047
17137WAT     H251654   2.595   7.763   8.934
17138WAT      O51655   7.283   4.474   3.443
17138WAT     H151656   7.322   4.563   3.419
17138WAT     H251657   7.227   4.441   3.367
17139WAT      O51658   2.432   0.309   2.444
17139WAT     H151659   2.501   0.241   2.467
17139WAT     H251660   2.430   0.379   2.515
17140WAT      O51661   0.454   5.302   0.967
17140WAT     H151662   0.428   5.236   1.037
17140WAT     H251663   0.373   5.332   0.918
17141WAT      O51664   7.517   7.288   3.216
17141WAT     H151665   7.494   7.223   3.288
17141WAT     H251666   7.604   7.332   3.236
17142WAT      O51667   0.537   3.906   1.246
17142WAT     H151668   0.440   3.882   1.257
17142WAT     H251669   0.546   3.971   1.171
17143WAT      O51670   7.442   5.698   6.723
17143WAT     H151671   7.451   5.795   6.747
17143WAT     H251672   7.348   5.680   6.695
17144WAT      O51673   5.109   3.633   8.090
17144WAT     H151674   5.079   3.675   8.176
17144WAT     H251675   5.201   3.664   8.068
17145WAT      O51676   2.339   3.462   3.851
17145WAT     H151677   2.279   3.522   3.904
17145WAT     H251678   2.356   3.502   3.761
17146WAT      O51679   2.239   5.440   1.462
17146WAT     H151680   2.262   5.511   1.396
17146WAT     H251681   2.288   5.457   1.548
17147WAT      O51682   7.026   0.473   3.334
17147WAT     H151683   6.947   0.436   3.285
17147WAT     H251684   7.093   0.508   3.269
17148WAT      O51685   6.863   3.830   4.094
17148WAT     H151686   6.791   3.765   4.071
17148WAT     H251687   6.945   3.781   4.122
17149WAT      O51688   0.569   8.457   5.686
17149WAT     H151689   0.595   8.419   5.775
17149WAT     H251690   0.490   8.518   5.698
17150WAT      O51691   3.156   0.027   5.838
17150WAT     H151692   3.086  -0.026   5.789
17150WAT     H251693   3.208  -0.034   5.898
17151WAT      O51694   4.009   3.852   4.019
17151WAT     H151695   4.046   3.935   4.062
17151WAT     H251696   4.081   3.783   4.013
17152WAT      O51697   2.479   2.671   2.661
17152WAT     H151698   2.561   2.613   2.661
17152WAT     H251699   2.502   2.761   2.699
17153WAT      O51700   2.126   0.325   6.814
17153WAT     H151701   2.041   0.283   6.781
17153WAT     H251702   2.173   0.261   6.874
17154WAT      O51703   2.283   4.788   7.857
17154WAT     H151704   2.279   4.878   7.899
17154WAT     H251705   2.190   4.755   7.840
17155WAT      O51706   2.701   5.743   7.584
17155WAT     H151707   2.734   5.665   7.637
17155WAT     H251708   2.769   5.816   7.587
17156WAT      O51709   0.099   8.735   5.609
17156WAT     H151710   0.026   8.717   5.675
17156WAT     H251711   0.122   8.833   5.610
17157WAT      O51712   3.841   4.275   1.727
17157WAT     H151713   3.832   4.374   1.719
17157WAT     H251714   3.865   4.250   1.821
17158WAT      O51715   3.776   3.108   6.107
17158WAT     H151716   3.733   3.035   6.161
17158WAT     H251717   3.832   3.165   6.167
17159WAT      O51718   7.967   6.469   2.053
17159WAT     H151719   7.900   6.482   1.980
17159WAT     H251720   7.970   6.372   2.078
17160WAT      O51721   9.173   4.407   3.664
17160WAT     H151722   9.118   4.457   3.730
17160WAT     H251723   9.237   4.470   3.620
17161WAT      O51724   6.834   6.436   9.176
17161WAT     H151725   6.894   6.359   9.154
17161WAT     H251726   6.881   6.522   9.155
17162WAT      O51727   3.340   8.805   2.202
17162WAT     H151728   3.318   8.757   2.118
17162WAT     H251729   3.436   8.787   2.227
17163WAT      O51730   6.893   0.681   7.536
17163WAT     H151731   6.893   0.632   7.624
17163WAT     H251732   6.844   0.627   7.468
17164WAT      O51733   8.160   3.185   3.286
17164WAT     H151734   8.063   3.208   3.297
17164WAT     H251735   8.209   3.205   3.371
17165WAT      O51736   4.912   5.738   3.678
17165WAT     H151737   4.986   5.712   3.617
17165WAT     H251738   4.824   5.719   3.634
17166WAT      O51739   5.633   1.329   9.183
17166WAT     H151740   5.636   1.429   9.196
17166WAT     H251741   5.648   1.284   9.271
17167WAT      O51742   2.167   6.709   6.238
17167WAT     H151743   2.205   6.654   6.163
17167WAT     H251744   2.091   6.660   6.280
17168WAT      O51745   6.893   4.403   7.125
17168WAT     H151746   6.828   4.414   7.200
17168WAT     H251747   6.875   4.472   7.055
17169WAT      O51748   2.673   8.682   9.175
17169WAT     H151749   2.652   8.629   9.257
17169WAT     H251750   2.721   8.624   9.109
17170WAT      O51751   7.098   0.790   1.509
17170WAT     H151752   7.132   0.759   1.597
17170WAT     H251753   7.087   0.890   1.511
17171WAT      O51754   0.857   7.175   1.443
17171WAT     H151755   0.799   7.197   1.365
17171WAT     H251756   0.836   7.083   1.476
17172WAT      O51757   0.951   1.549   6.508
17172WAT     H151758   0.919   1.599   6.428
17172WAT     H251759   0.873   1.530   6.569
17173WAT      O51760   1.539   7.000   6.535
17173WAT     H151761   1.445   7.027   6.555
17173WAT     H251762   1.575   7.056   6.461
17174WAT      O51763   0.635   9.110   3.787
17174WAT     H151764   0.722   9.159   3.785
17174WAT     H251765   0.564   9.168   3.747
17175WAT      O51766   7.122   5.964   2.760
17175WAT     H151767   7.187   6.039   2.772
17175WAT     H251768   7.032   6.002   2.739
17176WAT      O51769   5.632   6.255   4.360
17176WAT     H151770   5.578   6.182   4.401
17176WAT     H251771   5.712   6.217   4.315
17177WAT      O51772   5.706   1.569   9.386
17177WAT     H151773   5.752   1.656   9.369
17177WAT     H251774   5.774   1.496   9.390
17178WAT      O51775   4.669   6.708   0.408
17178WAT     H151776   4.678   6.630   0.471
17178WAT     H251777   4.613   6.779   0.450
17179WAT      O51778   8.302   6.455   5.825
17179WAT     H151779   8.333   6.399   5.903
17179WAT     H251780   8.208   6.486   5.842
17180WAT      O51781   4.400   0.186   1.107
17180WAT     H151782   4.400   0.233   1.019
17180WAT     H251783   4.306   0.162   1.131
17181WAT      O51784   1.809   6.925   3.691
17181WAT     H151785   1.717   6.898   3.717
17181WAT     H251786   1.839   7.001   3.748
17182WAT      O51787   9.394   4.863   6.779
17182WAT     H151788   9.344   4.872   6.692
17182WAT     H251789   9.338   4.899   6.853
17183WAT      O51790   4.839   3.104   2.318
17183WAT     H151791   4.765   3.108   2.385
17183WAT     H251792   4.801   3.077   2.229
17184WAT      O51793   0.847   1.871   6.785
17184WAT     H151794   0.854   1.970   6.773
17184WAT     H251795   0.757   1.840   6.752
17185WAT      O51796   1.510   2.326   1.349
17185WAT     H151797   1.591   2.269   1.338
17185WAT     H251798   1.538   2.418   1.376
17186WAT      O51799   6.840   2.601   7.366
17186WAT     H151800   6.932   2.586   7.331
17186WAT     H251801   6.829   2.697   7.392
17187WAT      O51802   5.096   7.144   5.224
17187WAT     H151803   5.161   7.069   5.206
17187WAT     H251804   5.139   7.211   5.285
17188WAT      O51805   8.858   1.134   9.334
17188WAT     H151806   8.907   1.059   9.290
17188WAT     H251807   8.772   1.150   9.285
17189WAT      O51808   8.961   5.653   9.312
17189WAT     H151809   8.872   5.684   9.345
17189WAT     H251810   9.034   5.703   9.358
17190WAT      O51811   0.696   8.934   9.011
17190WAT     H151812   0.731   8.885   9.092
17190WAT     H251813   0.634   8.874   8.961
17191WAT      O51814   6.590   5.288   5.231
17191WAT     H151815   6.684   5.280   5.197
17191WAT     H251816   6.584   5.366   5.294
17192WAT      O51817   6.245   2.039   7.372
17192WAT     H151818   6.316   1.968   7.372
17192WAT     H251819   6.287   2.127   7.350
17193WAT      O51820   9.450   0.437   4.957
17193WAT     H151821   9.462   0.416   4.860
17193WAT     H251822   9.499   0.521   4.979
17194WAT      O51823   0.470   3.095   5.401
17194WAT     H151824   0.516   3.096   5.312
17194WAT     H251825   0.464   3.001   5.434
17195WAT      O51826   0.839   0.674   6.122
17195WAT     H151827   0.892   0.759   6.122
17195WAT     H251828   0.803   0.658   6.030
17196WAT      O51829   6.738   1.436   6.379
17196WAT     H151830   6.712   1.393   6.292
17196WAT     H251831   6.835   1.420   6.396
17197WAT      O51832   9.093   9.272   0.384
17197WAT     H151833   9.045   9.237   0.464
17197WAT     H251834   9.059   9.363   0.362
17198WAT      O51835   7.903   7.044   2.442
17198WAT     H151836   7.905   7.143   2.456
17198WAT     H251837   7.929   6.998   2.527
17199WAT      O51838   4.190   5.079   1.470
17199WAT     H151839   4.121   5.122   1.528
17199WAT     H251840   4.229   5.000   1.517
17200WAT      O51841   2.027   9.136   2.270
17200WAT     H151842   2.016   9.048   2.318
17200WAT     H251843   1.938   9.176   2.252
17201WAT      O51844   5.160   0.224   7.492
17201WAT     H151845   5.157   0.180   7.582
17201WAT     H251846   5.072   0.214   7.447
17202WAT      O51847   4.237   9.250   1.131
17202WAT     H151848   4.214   9.335   1.178
17202WAT     H251849   4.247   9.177   1.198
17203WAT      O51850   5.149   5.529   2.535
17203WAT     H151851   5.220   5.470   2.573
17203WAT     H251852   5.099   5.573   2.609
17204WAT      O51853   2.745   0.681   7.296
17204WAT     H151854   2.834   0.650   7.329
17204WAT     H251855   2.712   0.620   7.224
17205WAT      O51856   9.362   0.078   3.253
17205WAT     H151857   9.331   0.163   3.210
17205WAT     H251858   9.413   0.024   3.186
17206WAT      O51859   8.091   9.295   2.571
17206WAT     H151860   8.126   9.242   2.493
17206WAT     H251861   8.053   9.381   2.538
17207WAT      O51862   4.172   2.825   3.074
17207WAT     H151863   4.238   2.899   3.059
17207WAT     H251864   4.217   2.748   3.118
17208WAT      O51865   5.412   1.035   0.317
17208WAT     H151866   5.414   0.956   0.256
17208WAT     H251867   5.359   1.012   0.399
17209WAT      O51868   0.791   0.502   1.199
17209WAT     H151869   0.823   0.504   1.294
17209WAT     H251870   0.791   0.408   1.166
17210WAT      O51871   4.480   8.443   7.815
17210WAT     H151872   4.453   8.415   7.722
17210WAT     H251873   4.527   8.531   7.811
17211WAT      O51874   6.563   1.645   8.360
17211WAT     H151875   6.596   1.722   8.416
17211WAT     H251876   6.608   1.648   8.271
17212WAT      O51877   1.505   7.777   7.367
17212WAT     H151878   1.473   7.820   7.283
17212WAT     H251879   1.602   7.796   7.380
17213WAT      O51880   1.096   6.917   4.928
17213WAT     H151881   1.081   6.837   4.870
17213WAT     H251882   1.031   6.989   4.903
17214WAT      O51883   2.308   2.586   0.064
17214WAT     H151884   2.375   2.592  -0.010
17214WAT     H251885   2.351   2.613   0.150
17215WAT      O51886   6.979   1.156   7.727
17215WAT     H151887   7.063   1.193   7.766
17215WAT     H251888   7.001   1.071   7.677
17216WAT      O51889   7.193   5.135   9.827
17216WAT     H151890   7.127   5.184   9.771
17216WAT     H251891   7.285   5.165   9.804
17217WAT      O51892   1.623   9.142   7.882
17217WAT     H151893   1.544   9.116   7.826
17217WAT     H251894   1.705   9.097   7.847
17218WAT      O51895   3.768   1.040   2.779
17218WAT     H151896   3.759   1.065   2.876
17218WAT     H251897   3.848   1.086   2.740
17219WAT      O51898   2.008   2.700   5.340
17219WAT     H151899   2.015   2.635   5.415
17219WAT     H251900   1.912   2.712   5.314
17220WAT      O51901   5.610   3.828   4.270
17220WAT     H151902   5.626   3.921   4.301
17220WAT     H251903   5.689   3.771   4.291
17221WAT      O51904   5.247   5.396   7.760
17221WAT     H151905   5.174   5.448   7.717
17221WAT     H251906   5.308   5.458   7.809
17222WAT      O51907   7.192   8.523   9.031
17222WAT     H151908   7.206   8.459   8.956
17222WAT     H251909   7.103   8.568   9.020
17223WAT      O51910   4.692   4.126   7.934
17223WAT     H151911   4.709   4.212   7.981
17223WAT     H251912   4.600   4.126   7.895
17224WAT      O51913   8.335   8.337   2.092
17224WAT     H151914   8.307   8.242   2.081
17224WAT     H251915   8.406   8.359   2.024
17225WAT      O51916   9.470   7.058   1.393
17225WAT     H151917   9.516   7.040   1.306
17225WAT     H251918   9.471   6.974   1.448
17226WAT      O51919   5.701   3.220   6.767
17226WAT     H151920   5.650   3.250   6.848
17226WAT     H251921   5.794   3.256   6.772
17227WAT      O51922   0.621   1.496   4.821
17227WAT     H151923   0.630   1.397   4.811
17227WAT     H251924   0.556   1.531   4.754
17228WAT      O51925   1.752   1.878   8.442
17228WAT     H151926   1.774   1.782   8.457
17228WAT     H251927   1.672   1.903   8.496
17229WAT      O51928   8.027   7.307   5.740
17229WAT     H151929   8.071   7.385   5.695
17229WAT     H251930   7.927   7.318   5.736
17230WAT      O51931   7.210   3.698   8.559
17230WAT     H151932   7.299   3.661   8.533
17230WAT     H251933   7.224   3.776   8.621
17231WAT      O51934   1.774   4.458   8.894
17231WAT     H151935   1.865   4.451   8.934
17231WAT     H251936   1.754   4.376   8.840
17232WAT      O51937   7.693   2.200   9.793
17232WAT     H151938   7.694   2.166   9.699
17232WAT     H251939   7.650   2.133   9.853
17233WAT      O51940   0.175   3.631   6.975
17233WAT     H151941   0.113   3.682   6.914
17233WAT     H251942   0.206   3.691   7.048
17234WAT      O51943   3.539   6.002   0.083
17234WAT     H151944   3.615   6.060   0.113
17234WAT     H251945   3.492   6.046   0.007
17235WAT      O51946   7.589   7.211   6.043
17235WAT     H151947   7.589   7.181   6.138
17235WAT     H251948   7.659   7.282   6.031
17236WAT      O51949   5.658   4.141   4.776
17236WAT     H151950   5.566   4.174   4.753
17236WAT     H251951   5.680   4.167   4.870
17237WAT      O51952   2.131   1.408   8.018
17237WAT     H151953   2.071   1.472   7.971
17237WAT     H251954   2.091   1.316   8.014
17238WAT      O51955   2.829   2.388   1.795
17238WAT     H151956   2.882   2.449   1.854
17238WAT     H251957   2.846   2.293   1.820
17239WAT      O51958   5.345   7.006   1.009
17239WAT     H151959   5.408   6.929   1.015
17239WAT     H251960   5.312   7.014   0.915
17240WAT      O51961   7.710   8.145   1.485
17240WAT     H151962   7.809   8.135   1.474
17240WAT     H251963   7.677   8.215   1.422
17241WAT      O51964   8.485   1.882   1.706
17241WAT     H151965   8.478   1.860   1.609
17241WAT     H251966   8.487   1.798   1.760
17242WAT      O51967   8.279   3.402   9.212
17242WAT     H151968   8.214   3.475   9.190
17242WAT     H251969   8.252   3.359   9.298
17243WAT      O51970   5.195   7.344   0.188
17243WAT     H151971   5.153   7.386   0.268
17243WAT     H251972   5.124   7.314   0.125
17244WAT      O51973   8.242   4.483   6.810
17244WAT     H151974   8.253   4.397   6.859
17244WAT     H251975   8.233   4.464   6.712
17245WAT      O51976   1.124   9.736   5.054
17245WAT     H151977   1.035   9.748   5.010
17245WAT     H251978   1.196   9.773   4.995
17246WAT      O51979   5.203   0.553   1.072
17246WAT     H151980   5.193   0.639   1.021
17246WAT     H251981   5.269   0.494   1.025
17247WAT      O51982   6.569   9.543   3.511
17247WAT     H151983   6.620   9.499   3.586
17247WAT     H251984   6.594   9.501   3.424
17248WAT      O51985   0.303   9.646   7.392
17248WAT     H151986   0.347   9.732   7.364
17248WAT     H251987   0.220   9.667   7.443
17249WAT      O51988   5.747   4.013   0.410
17249WAT     H151989   5.761   4.066   0.494
17249WAT     H251990   5.834   4.003   0.363
17250WAT      O51991   2.334   9.271   7.866
17250WAT     H151992   2.383   9.328   7.932
17250WAT     H251993   2.332   9.176   7.900
17251WAT      O51994   4.348   1.104   5.026
17251WAT     H151995   4.340   1.204   5.021
17251WAT     H251996   4.319   1.074   5.117
17252WAT      O51997   6.002   8.820   1.411
17252WAT     H151998   5.998   8.747   1.479
17252WAT     H251999   6.093   8.860   1.409
17253WAT      O52000   0.787   4.308   5.338
17253WAT     H152001   0.751   4.308   5.244
17253WAT     H252002   0.757   4.391   5.385
17254WAT      O52003   6.894   2.546   8.567
17254WAT     H152004   6.969   2.596   8.524
17254WAT     H252005   6.930   2.491   8.643
17255WAT      O52006   5.303   4.239   4.238
17255WAT     H152007   5.359   4.187   4.172
17255WAT     H252008   5.226   4.182   4.267
17256WAT      O52009   7.154   8.941   5.346
17256WAT     H152010   7.149   9.040   5.365
17256WAT     H252011   7.215   8.925   5.269
17257WAT      O52012   2.846   4.590   5.056
17257WAT     H152013   2.931   4.552   5.019
17257WAT     H252014   2.793   4.517   5.099
17258WAT      O52015   6.939   2.309   6.390
17258WAT     H152016   6.913   2.267   6.303
17258WAT     H252017   6.872   2.284   6.461
17259WAT      O52018   5.351   0.962   7.297
17259WAT     H152019   5.313   1.037   7.351
17259WAT     H252020   5.383   0.889   7.359
17260WAT      O52021   4.873   2.137   0.825
17260WAT     H152022   4.889   2.187   0.740
17260WAT     H252023   4.843   2.200   0.897
17261WAT      O52024   1.373   6.363   3.269
17261WAT     H152025   1.361   6.373   3.368
17261WAT     H252026   1.374   6.454   3.227
17262WAT      O52027   0.427   3.438   9.756
17262WAT     H152028   0.356   3.458   9.688
17262WAT     H252029   0.515   3.471   9.723
17263WAT      O52030   3.987   6.827   7.882
17263WAT     H152031   3.921   6.876   7.940
17263WAT     H252032   4.003   6.736   7.920
17264WAT      O52033   4.997   0.339   8.628
17264WAT     H152034   4.943   0.353   8.546
17264WAT     H252035   4.991   0.243   8.656
17265WAT      O52036   3.133   2.709   3.953
17265WAT     H152037   3.206   2.659   4.001
17265WAT     H252038   3.057   2.648   3.935
17266WAT      O52039   5.512   0.400   3.685
17266WAT     H152040   5.517   0.410   3.784
17266WAT     H252041   5.432   0.345   3.661
17267WAT      O52042   9.266   2.177   3.049
17267WAT     H152043   9.331   2.199   3.121
17267WAT     H252044   9.315   2.137   2.971
17268WAT      O52045   8.200   7.891   3.887
17268WAT     H152046   8.138   7.813   3.891
17268WAT     H252047   8.287   7.867   3.928
17269WAT      O52048   0.597   4.866   0.721
17269WAT     H152049   0.658   4.938   0.690
17269WAT     H252050   0.502   4.897   0.712
17270WAT      O52051   7.920   1.630   4.174
17270WAT     H152052   7.900   1.696   4.102
17270WAT     H252053   7.897   1.538   4.142
17271WAT      O52054   1.669   7.667   6.044
17271WAT     H152055   1.590   7.710   6.087
17271WAT     H252056   1.682   7.576   6.082
17272WAT      O52057   1.713   1.214   2.237
17272WAT     H152058   1.800   1.264   2.238
17272WAT     H252059   1.653   1.250   2.309
17273WAT      O52060   6.712   0.700   0.392
17273WAT     H152061   6.728   0.730   0.486
17273WAT     H252062   6.621   0.730   0.362
17274WAT      O52063   5.233   4.498   3.832
17274WAT     H152064   5.161   4.519   3.765
17274WAT     H252065   5.193   4.453   3.911
17275WAT      O52066   7.023   7.151   3.395
17275WAT     H152067   7.016   7.059   3.356
17275WAT     H252068   6.972   7.155   3.481
17276WAT      O52069   1.025   0.121   5.222
17276WAT     H152070   1.072   0.040   5.187
17276WAT     H252071   0.964   0.157   5.152
17277WAT      O52072   5.717   3.815   1.154
17277WAT     H152073   5.749   3.852   1.066
17277WAT     H252074   5.650   3.742   1.136
17278WAT      O52075   7.044   3.320   0.117
17278WAT     H152076   7.078   3.388   0.183
17278WAT     H252077   7.025   3.235   0.165
17279WAT      O52078   6.933   9.634   0.913
17279WAT     H152079   6.869   9.620   0.989
17279WAT     H252080   7.019   9.586   0.933
17280WAT      O52081   5.107   3.112   3.765
17280WAT     H152082   5.035   3.089   3.831
17280WAT     H252083   5.166   3.183   3.803
17281WAT      O52084   3.110   2.714   2.463
17281WAT     H152085   3.106   2.778   2.539
17281WAT     H252086   3.076   2.624   2.492
17282WAT      O52087   5.079   9.675   9.329
17282WAT     H152088   5.112   9.587   9.363
17282WAT     H252089   5.089   9.744   9.401
17283WAT      O52090   7.332   2.141   6.787
17283WAT     H152091   7.250   2.198   6.796
17283WAT     H252092   7.378   2.163   6.701
17284WAT      O52093   7.614   2.416   2.257
17284WAT     H152094   7.553   2.420   2.336
17284WAT     H252095   7.565   2.450   2.176
17285WAT      O52096   3.231   6.269   2.755
17285WAT     H152097   3.262   6.265   2.660
17285WAT     H252098   3.309   6.283   2.815
17286WAT      O52099   0.019   7.651   3.234
17286WAT     H152100   0.054   7.597   3.158
17286WAT     H252101   0.090   7.714   3.265
17287WAT      O52102   4.516   7.268   2.063
17287WAT     H152103   4.464   7.305   2.140
17287WAT     H252104   4.605   7.236   2.095
17288WAT      O52105   5.789   9.760   2.223
17288WAT     H152106   5.870   9.816   2.239
17288WAT     H252107   5.814   9.663   2.224
17289WAT      O52108   2.069   4.805   0.798
17289WAT     H152109   2.008   4.861   0.741
17289WAT     H252110   2.033   4.801   0.891
17290WAT      O52111   2.998   1.794   1.343
17290WAT     H152112   3.060   1.717   1.328
17290WAT     H252113   2.907   1.770   1.309
17291WAT      O52114   9.041   6.563   6.909
17291WAT     H152115   9.067   6.575   7.005
17291WAT     H252116   8.989   6.479   6.900
17292WAT      O52117   4.140   8.517   9.284
17292WAT     H152118   4.154   8.499   9.187
17292WAT     H252119   4.072   8.589   9.296
17293WAT      O52120   6.140   3.662   3.198
17293WAT     H152121   6.144   3.753   3.238
17293WAT     H252122   6.090   3.601   3.260
17294WAT      O52123   1.617   3.038   3.710
17294WAT     H152124   1.665   2.992   3.635
17294WAT     H252125   1.645   2.996   3.797
17295WAT      O52126   2.843   6.284   8.013
17295WAT     H152127   2.809   6.212   8.074
17295WAT     H252128   2.929   6.319   8.048
17296WAT      O52129   9.825   2.070   8.618
17296WAT     H152130   9.924   2.080   8.608
17296WAT     H252131   9.800   1.974   8.605
17297WAT      O52132   2.567   4.096   4.067
17297WAT     H152133   2.645   4.034   4.068
17297WAT     H252134   2.561   4.144   4.154
17298WAT      O52135   3.220   6.138   7.530
17298WAT     H152136   3.147   6.205   7.546
17298WAT     H252137   3.280   6.172   7.458
17299WAT      O52138   7.425   9.119   3.812
17299WAT     H152139   7.459   9.193   3.753
17299WAT     H252140   7.327   9.110   3.800
17300WAT      O52141   3.657   7.303   8.663
17300WAT     H152142   3.670   7.286   8.565
17300WAT     H252143   3.610   7.225   8.704
17301WAT      O52144   5.538   4.411   0.921
17301WAT     H152145   5.458   4.464   0.895
17301WAT     H252146   5.515   4.349   0.996
17302WAT      O52147   5.330   1.695   1.662
17302WAT     H152148   5.253   1.666   1.719
17302WAT     H252149   5.381   1.616   1.631
17303WAT      O52150   9.005   3.758   1.497
17303WAT     H152151   9.002   3.702   1.415
17303WAT     H252152   8.959   3.845   1.479
17304WAT      O52153   1.848   7.856   8.324
17304WAT     H152154   1.761   7.858   8.275
17304WAT     H252155   1.923   7.876   8.261
17305WAT      O52156   6.631   3.882   6.765
17305WAT     H152157   6.537   3.847   6.768
17305WAT     H252158   6.643   3.939   6.684
17306WAT      O52159   1.016   2.973   2.630
17306WAT     H152160   1.019   3.016   2.720
17306WAT     H252161   1.103   2.987   2.583
17307WAT      O52162   4.558   7.957   3.357
17307WAT     H152163   4.496   7.994   3.288
17307WAT     H252164   4.642   7.925   3.313
17308WAT      O52165   2.741   7.831   6.283
17308WAT     H152166   2.794   7.808   6.201
17308WAT     H252167   2.655   7.780   6.283
17309WAT      O52168   7.610   5.181   3.549
17309WAT     H152169   7.578   5.266   3.507
17309WAT     H252170   7.707   5.168   3.528
17310WAT      O52171   4.062   7.347   0.380
17310WAT     H152172   4.019   7.360   0.290
17310WAT     H252173   4.076   7.435   0.424
17311WAT      O52174   7.192   4.289   8.213
17311WAT     H152175   7.152   4.230   8.283
17311WAT     H252176   7.256   4.237   8.157
17312WAT      O52177   6.146   0.595   8.553
17312WAT     H152178   6.080   0.541   8.606
17312WAT     H252179   6.207   0.533   8.504
17313WAT      O52180   2.214   3.484   5.379
17313WAT     H152181   2.188   3.392   5.407
17313WAT     H252182   2.139   3.526   5.328
17314WAT      O52183   5.813   7.264   8.878
17314WAT     H152184   5.894   7.209   8.860
17314WAT     H252185   5.738   7.205   8.908
17315WAT      O52186   2.989   5.439   5.363
17315WAT     H152187   2.907   5.425   5.418
17315WAT     H252188   3.042   5.354   5.361
17316WAT      O52189   4.857   3.550   3.518
17316WAT     H152190   4.796   3.560   3.439
17316WAT     H252191   4.808   3.502   3.591
17317WAT      O52192   7.153   2.115   1.549
17317WAT     H152193   7.158   2.137   1.451
17317WAT     H252194   7.063   2.077   1.570
17318WAT      O52195   8.249   6.245   5.683
17318WAT     H152196   8.296   6.316   5.735
17318WAT     H252197   8.311   6.168   5.669
17319WAT      O52198   2.273   2.020   4.808
17319WAT     H152199   2.214   2.079   4.863
17319WAT     H252200   2.217   1.966   4.745
17320WAT      O52201   3.473   7.631   1.693
17320WAT     H152202   3.461   7.605   1.789
17320WAT     H252203   3.512   7.554   1.642
17321WAT      O52204   9.442   8.416   6.080
17321WAT     H152205   9.452   8.343   6.012
17321WAT     H252206   9.400   8.379   6.162
17322WAT      O52207   4.278   7.007   6.322
17322WAT     H152208   4.360   6.992   6.266
17322WAT     H252209   4.208   7.051   6.266
17323WAT      O52210   4.167   9.642   2.843
17323WAT     H152211   4.073   9.611   2.859
17323WAT     H252212   4.165   9.727   2.789
17324WAT      O52213   2.089   5.303   0.591
17324WAT     H152214   2.024   5.250   0.647
17324WAT     H252215   2.170   5.325   0.646
17325WAT      O52216   6.003   0.828   3.712
17325WAT     H152217   5.943   0.748   3.717
17325WAT     H252218   6.031   0.854   3.805
17326WAT      O52219   3.472   5.663   3.641
17326WAT     H152220   3.568   5.674   3.616
17326WAT     H252221   3.414   5.689   3.564
17327WAT      O52222   0.186   1.372   7.695
17327WAT     H152223   0.249   1.445   7.721
17327WAT     H252224   0.109   1.412   7.645
17328WAT      O52225   9.004   3.057   5.728
17328WAT     H152226   8.928   3.040   5.665
17328WAT     H252227   8.978   3.032   5.821
17329WAT      O52228   8.792   8.126   8.876
17329WAT     H152229   8.693   8.120   8.862
17329WAT     H252230   8.815   8.216   8.914
17330WAT      O52231   4.488   4.140   7.767
17330WAT     H152232   4.528   4.211   7.709
17330WAT     H252233   4.396   4.168   7.794
17331WAT      O52234   8.061   8.124   9.773
17331WAT     H152235   8.155   8.088   9.770
17331WAT     H252236   8.019   8.098   9.860
17332WAT      O52237   7.111   0.779   6.843
17332WAT     H152238   7.179   0.849   6.822
17332WAT     H252239   7.019   0.815   6.826
17333WAT      O52240   8.705   7.728   6.531
17333WAT     H152241   8.668   7.748   6.440
17333WAT     H252242   8.718   7.814   6.581
17334WAT      O52243   9.137   2.829   3.265
17334WAT     H152244   9.212   2.891   3.242
17334WAT     H252245   9.167   2.734   3.253
17335WAT      O52246   3.239   4.581   7.385
17335WAT     H152247   3.318   4.637   7.410
17335WAT     H252248   3.243   4.560   7.287
17336WAT      O52249   1.644   1.721   3.665
17336WAT     H152250   1.575   1.679   3.724
17336WAT     H252251   1.600   1.787   3.604
17337WAT      O52252   5.006   1.732   2.649
17337WAT     H152253   4.933   1.781   2.696
17337WAT     H252254   5.026   1.647   2.698
17338WAT      O52255   3.197   7.567   4.705
17338WAT     H152256   3.272   7.611   4.754
17338WAT     H252257   3.112   7.618   4.722
17339WAT      O52258   8.454   3.574   0.925
17339WAT     H152259   8.394   3.495   0.912
17339WAT     H252260   8.476   3.584   1.022
17340WAT      O52261   3.137   6.398   6.724
17340WAT     H152262   3.184   6.310   6.729
17340WAT     H252263   3.203   6.471   6.740
17341WAT      O52264   3.478   5.490   8.887
17341WAT     H152265   3.397   5.441   8.855
17341WAT     H252266   3.516   5.544   8.812
17342WAT      O52267   7.512   7.868   8.567
17342WAT     H152268   7.559   7.904   8.647
17342WAT     H252269   7.561   7.787   8.533
17343WAT      O52270   6.035   5.365   1.862
17343WAT     H152271   6.048   5.452   1.909
17343WAT     H252272   6.052   5.290   1.925
17344WAT      O52273   3.292   8.871   1.880
17344WAT     H152274   3.372   8.816   1.904
17344WAT     H252275   3.212   8.811   1.872
17345WAT      O52276   7.676   1.484   1.007
17345WAT     H152277   7.727   1.565   1.036
17345WAT     H252278   7.607   1.510   0.940
17346WAT      O52279   0.134   4.437   1.847
17346WAT     H152280   0.051   4.466   1.895
17346WAT     H252281   0.193   4.388   1.910
17347WAT      O52282   0.560   3.141   3.674
17347WAT     H152283   0.647   3.191   3.667
17347WAT     H252284   0.533   3.134   3.770
17348WAT      O52285   9.693   8.575   8.479
17348WAT     H152286   9.675   8.672   8.466
17348WAT     H252287   9.636   8.540   8.554
17349WAT      O52288   0.818   5.135   5.089
17349WAT     H152289   0.877   5.067   5.046
17349WAT     H252290   0.772   5.189   5.019
17350WAT      O52291   4.982   1.097   9.863
17350WAT     H152292   5.025   1.007   9.850
17350WAT     H252293   5.050   1.163   9.894
17351WAT      O52294   8.458   1.560   6.838
17351WAT     H152295   8.521   1.541   6.913
17351WAT     H252296   8.503   1.538   6.751
17352WAT      O52297   1.042   8.223   1.005
17352WAT     H152298   0.942   8.234   1.004
17352WAT     H252299   1.085   8.301   0.960
17353WAT      O52300   7.853   8.648   1.841
17353WAT     H152301   7.890   8.592   1.766
17353WAT     H252302   7.835   8.589   1.920
17354WAT      O52303   8.087   6.160   5.157
17354WAT     H152304   8.049   6.234   5.212
17354WAT     H252305   8.014   6.117   5.104
17355WAT      O52306   3.314   0.108   4.827
17355WAT     H152307   3.335   0.010   4.838
17355WAT     H252308   3.363   0.143   4.747
17356WAT      O52309   4.942   3.632   0.679
17356WAT     H152310   4.958   3.545   0.632
17356WAT     H252311   4.889   3.616   0.763
17357WAT      O52312   1.685   3.760   3.954
17357WAT     H152313   1.758   3.783   4.018
17357WAT     H252314   1.608   3.821   3.968
17358WAT      O52315   0.259   1.404   7.306
17358WAT     H152316   0.174   1.393   7.359
17358WAT     H252317   0.308   1.318   7.304
17359WAT      O52318   7.350   6.242   1.632
17359WAT     H152319   7.332   6.145   1.650
17359WAT     H252320   7.448   6.259   1.634
17360WAT      O52321   8.598   0.616   7.872
17360WAT     H152322   8.684   0.570   7.848
17360WAT     H252323   8.594   0.628   7.971
17361WAT      O52324   2.987   5.655   5.827
17361WAT     H152325   2.888   5.664   5.838
17361WAT     H252326   3.026   5.745   5.807
17362WAT      O52327   0.069   6.816   7.166
17362WAT     H152328   0.099   6.787   7.075
17362WAT     H252329   0.148   6.827   7.226
17363WAT      O52330   9.050   6.187   8.961
17363WAT     H152331   9.081   6.261   9.020
17363WAT     H252332   9.109   6.180   8.881
17364WAT      O52333   8.672   2.688   1.310
17364WAT     H152334   8.638   2.776   1.277
17364WAT     H252335   8.674   2.688   1.410
17365WAT      O52336   0.352   8.465   2.049
17365WAT     H152337   0.447   8.470   2.018
17365WAT     H252338   0.290   8.465   1.970
17366WAT      O52339   3.220   9.036   2.643
17366WAT     H152340   3.290   9.105   2.625
17366WAT     H252341   3.166   9.021   2.560
17367WAT      O52342   2.464   1.015   2.239
17367WAT     H152343   2.481   0.928   2.285
17367WAT     H252344   2.483   1.091   2.302
17368WAT      O52345   0.328   7.227   2.872
17368WAT     H152346   0.297   7.313   2.913
17368WAT     H252347   0.395   7.248   2.801
17369WAT      O52348   5.240   2.061   5.991
17369WAT     H152349   5.170   1.990   5.979
17369WAT     H252350   5.278   2.054   6.084
17370WAT      O52351   3.059   0.613   1.774
17370WAT     H152352   3.151   0.643   1.751
17370WAT     H252353   3.014   0.684   1.830
17371WAT      O52354   7.659   2.755   1.479
17371WAT     H152355   7.591   2.681   1.472
17371WAT     H252356   7.726   2.746   1.406
17372WAT      O52357   8.018   7.392   8.446
17372WAT     H152358   8.055   7.445   8.370
17372WAT     H252359   8.089   7.333   8.485
17373WAT      O52360   6.831   6.706   2.640
17373WAT     H152361   6.861   6.792   2.680
17373WAT     H252362   6.787   6.650   2.710
17374WAT      O52363   5.442   5.664   9.219
17374WAT     H152364   5.419   5.602   9.294
17374WAT     H252365   5.375   5.653   9.145
17375WAT      O52366   1.778   4.536   8.123
17375WAT     H152367   1.849   4.516   8.056
17375WAT     H252368   1.721   4.454   8.137
17376WAT      O52369   7.469   5.832   7.293
17376WAT     H152370   7.374   5.801   7.287
17376WAT     H252371   7.472   5.924   7.330
17377WAT      O52372   5.248   7.186   8.244
17377WAT     H152373   5.264   7.088   8.252
17377WAT     H252374   5.173   7.213   8.305
17378WAT      O52375   4.999   3.175   9.546
17378WAT     H152376   4.978   3.094   9.602
17378WAT     H252377   5.097   3.177   9.526
17379WAT      O52378   8.755   5.960   1.672
17379WAT     H152379   8.749   6.049   1.718
17379WAT     H252380   8.819   5.901   1.721
17380WAT      O52381   3.663   6.479   9.201
17380WAT     H152382   3.581   6.527   9.171
17380WAT     H252383   3.696   6.419   9.127
17381WAT      O52384   9.781   3.834   5.156
17381WAT     H152385   9.732   3.752   5.182
17381WAT     H252386   9.719   3.912   5.156
17382WAT      O52387   4.208   5.184   6.710
17382WAT     H152388   4.280   5.194   6.641
17382WAT     H252389   4.249   5.174   6.800
17383WAT      O52390   5.952   2.164   8.538
17383WAT     H152391   5.972   2.180   8.634
17383WAT     H252392   5.869   2.214   8.513
17384WAT      O52393   0.146   8.600   4.150
17384WAT     H152394   0.170   8.608   4.247
17384WAT     H252395   0.226   8.573   4.098
17385WAT      O52396   0.283   1.942   2.586
17385WAT     H152397   0.351   1.995   2.534
17385WAT     H252398   0.327   1.901   2.665
17386WAT      O52399   5.466   5.158   9.235
17386WAT     H152400   5.551   5.161   9.287
17386WAT     H252401   5.452   5.066   9.200
17387WAT      O52402   8.447   7.285   6.959
17387WAT     H152403   8.383   7.216   6.926
17387WAT     H252404   8.540   7.249   6.957
17388WAT      O52405   0.260   6.912   4.661
17388WAT     H152406   0.288   6.968   4.740
17388WAT     H252407   0.341   6.890   4.606
17389WAT      O52408   1.771   9.077   2.587
17389WAT     H152409   1.774   9.076   2.687
17389WAT     H252410   1.681   9.049   2.556
17390WAT      O52411   8.692   5.053   5.506
17390WAT     H152412   8.595   5.028   5.511
17390WAT     H252413   8.716   5.071   5.411
17391WAT      O52414   8.089   6.059   0.408
17391WAT     H152415   8.143   6.141   0.388
17391WAT     H252416   8.084   6.001   0.327
17392WAT      O52417   8.525   4.283   3.091
17392WAT     H152418   8.508   4.216   3.164
17392WAT     H252419   8.462   4.266   3.015
17393WAT      O52420   5.811   9.353   5.734
17393WAT     H152421   5.764   9.292   5.798
17393WAT     H252422   5.882   9.301   5.685
17394WAT      O52423   1.553   4.909   6.506
17394WAT     H152424   1.474   4.944   6.456
17394WAT     H252425   1.562   4.811   6.488
17395WAT      O52426   7.242   8.928   2.004
17395WAT     H152427   7.259   8.846   2.059
17395WAT     H252428   7.161   8.976   2.040
17396WAT      O52429   5.525   3.349   1.806
17396WAT     H152430   5.534   3.279   1.736
17396WAT     H252431   5.453   3.413   1.780
17397WAT      O52432   4.387   6.127   0.251
17397WAT     H152433   4.363   6.224   0.240
17397WAT     H252434   4.485   6.119   0.268
17398WAT      O52435   3.713   9.117   9.843
17398WAT     H152436   3.704   9.211   9.876
17398WAT     H252437   3.809   9.089   9.849
17399WAT      O52438   5.989   0.217   6.955
17399WAT     H152439   5.974   0.120   6.934
17399WAT     H252440   5.988   0.230   7.054
17400WAT      O52441   3.106   3.526   6.602
17400WAT     H152442   3.095   3.454   6.671
17400WAT     H252443   3.189   3.509   6.549
17401WAT      O52444   1.078   3.553   4.479
17401WAT     H152445   1.002   3.558   4.544
17401WAT     H252446   1.152   3.500   4.519
17402WAT      O52447   7.640   5.949   3.445
17402WAT     H152448   7.665   5.955   3.541
17402WAT     H252449   7.560   6.006   3.428
17403WAT      O52450   4.374   9.681   9.089
17403WAT     H152451   4.311   9.618   9.133
17403WAT     H252452   4.463   9.636   9.077
17404WAT      O52453   3.507   6.389   6.013
17404WAT     H152454   3.526   6.293   5.994
17404WAT     H252455   3.549   6.446   5.941
17405WAT      O52456   2.015   0.716   5.624
17405WAT     H152457   1.958   0.639   5.596
17405WAT     H252458   2.027   0.778   5.546
17406WAT      O52459   9.348   1.916   4.188
17406WAT     H152460   9.296   1.937   4.271
17406WAT     H252461   9.300   1.952   4.108
17407WAT      O52462   2.055   8.650   6.849
17407WAT     H152463   2.154   8.661   6.841
17407WAT     H252464   2.012   8.740   6.859
17408WAT      O52465   7.191   5.470   1.642
17408WAT     H152466   7.115   5.528   1.672
17408WAT     H252467   7.247   5.521   1.577
17409WAT      O52468   1.234   7.017   8.595
17409WAT     H152469   1.254   6.997   8.499
17409WAT     H252470   1.272   7.106   8.619
17410WAT      O52471   3.472   4.677   9.827
17410WAT     H152472   3.556   4.728   9.810
17410WAT     H252473   3.404   4.698   9.757
17411WAT      O52474   7.130   2.354   9.623
17411WAT     H152475   7.171   2.441   9.648
17411WAT     H252476   7.037   2.348   9.661
17412WAT      O52477   5.407   3.547   6.996
17412WAT     H152478   5.392   3.584   6.905
17412WAT     H252479   5.319   3.528   7.040
17413WAT      O52480   4.296   2.466   5.278
17413WAT     H152481   4.382   2.418   5.298
17413WAT     H252482   4.294   2.553   5.327
17414WAT      O52483   8.069   9.248   4.707
17414WAT     H152484   7.982   9.271   4.750
17414WAT     H252485   8.059   9.161   4.657
17415WAT      O52486   9.120   3.508   6.516
17415WAT     H152487   9.141   3.581   6.581
17415WAT     H252488   9.205   3.478   6.472
17416WAT      O52489   4.394   0.470   2.997
17416WAT     H152490   4.389   0.570   2.995
17416WAT     H252491   4.490   0.441   2.987
17417WAT      O52492   7.508   9.190   1.615
17417WAT     H152493   7.498   9.117   1.684
17417WAT     H252494   7.605   9.212   1.604
17418WAT      O52495   0.039   7.796   7.744
17418WAT     H152496   0.079   7.844   7.822
17418WAT     H252497   0.093   7.814   7.662
17419WAT      O52498   5.590   5.102   6.277
17419WAT     H152499   5.682   5.119   6.312
17419WAT     H252500   5.528   5.172   6.311
17420WAT      O52501   2.702   8.378   5.673
17420WAT     H152502   2.647   8.424   5.743
17420WAT     H252503   2.641   8.336   5.605
17421WAT      O52504   8.370   4.668   2.596
17421WAT     H152505   8.446   4.633   2.652
17421WAT     H252506   8.313   4.591   2.568
17422WAT      O52507   5.462   9.291   8.398
17422WAT     H152508   5.493   9.356   8.328
17422WAT     H252509   5.539   9.267   8.457
17423WAT      O52510   2.292   6.750   0.547
17423WAT     H152511   2.290   6.657   0.510
17423WAT     H252512   2.282   6.748   0.646
17424WAT      O52513   6.425   7.592   1.150
17424WAT     H152514   6.476   7.650   1.213
17424WAT     H252515   6.328   7.615   1.152
17425WAT      O52516   6.702   2.119   3.090
17425WAT     H152517   6.774   2.140   3.156
17425WAT     H252518   6.724   2.034   3.042
17426WAT      O52519   2.483   2.694   7.839
17426WAT     H152520   2.478   2.608   7.891
17426WAT     H252521   2.446   2.768   7.894
17427WAT      O52522   5.635   3.231   6.298
17427WAT     H152523   5.549   3.214   6.346
17427WAT     H252524   5.704   3.261   6.363
17428WAT      O52525   6.315   8.377   9.226
17428WAT     H152526   6.378   8.448   9.257
17428WAT     H252527   6.364   8.291   9.214
17429WAT      O52528   0.862   1.664   0.414
17429WAT     H152529   0.910   1.750   0.431
17429WAT     H252530   0.846   1.617   0.501
17430WAT      O52531   7.992   0.630   8.807
17430WAT     H152532   7.975   0.565   8.733
17430WAT     H252533   7.915   0.631   8.870
17431WAT      O52534   7.152   0.633   5.637
17431WAT     H152535   7.177   0.692   5.560
17431WAT     H252536   7.052   0.622   5.639
17432WAT      O52537   1.420   2.927   0.482
17432WAT     H152538   1.506   2.883   0.457
17432WAT     H252539   1.407   3.010   0.426
17433WAT      O52540   3.812   8.746   6.646
17433WAT     H152541   3.861   8.757   6.733
17433WAT     H252542   3.783   8.836   6.613
17434WAT      O52543   6.612   4.589   1.315
17434WAT     H152544   6.695   4.600   1.259
17434WAT     H252545   6.554   4.518   1.274
17435WAT      O52546   9.810   4.978   4.083
17435WAT     H152547   9.721   4.945   4.113
17435WAT     H252548   9.836   5.058   4.137
17436WAT      O52549   4.806   2.570   5.449
17436WAT     H152550   4.901   2.561   5.419
17436WAT     H252551   4.745   2.530   5.380
17437WAT      O52552   1.508   9.101   3.960
17437WAT     H152553   1.450   9.164   3.908
17437WAT     H252554   1.600   9.100   3.920
17438WAT      O52555   6.955   6.307   9.738
17438WAT     H152556   6.914   6.294   9.648
17438WAT     H252557   7.046   6.267   9.739
17439WAT      O52558   8.808   4.855   4.407
17439WAT     H152559   8.717   4.836   4.371
17439WAT     H252560   8.818   4.953   4.423
17440WAT      O52561   7.537   0.225   1.178
17440WAT     H152562   7.538   0.202   1.081
17440WAT     H252563   7.484   0.156   1.228
17441WAT      O52564   9.016   5.890   5.279
17441WAT     H152565   8.932   5.881   5.226
17441WAT     H252566   9.016   5.978   5.327
17442WAT      O52567   6.439   8.159   2.698
17442WAT     H152568   6.392   8.245   2.682
17442WAT     H252569   6.432   8.101   2.616
17443WAT      O52570   2.134   1.442   0.862
17443WAT     H152571   2.141   1.393   0.775
17443WAT     H252572   2.044   1.486   0.868
17444WAT      O52573   6.709   9.624   8.422
17444WAT     H152574   6.806   9.610   8.401
17444WAT     H252575   6.654   9.590   8.345
17445WAT      O52576   8.013   3.232   5.857
17445WAT     H152577   8.000   3.331   5.861
17445WAT     H252578   7.978   3.190   5.941
17446WAT      O52579   2.733   7.784   2.408
17446WAT     H152580   2.815   7.795   2.463
17446WAT     H252581   2.678   7.868   2.412
17447WAT      O52582   0.590   9.271   5.166
17447WAT     H152583   0.493   9.287   5.148
17447WAT     H252584   0.612   9.302   5.258
17448WAT      O52585   7.024   8.031   8.070
17448WAT     H152586   7.060   8.124   8.058
17448WAT     H252587   6.956   8.032   8.143
17449WAT      O52588   5.093   2.202   6.604
17449WAT     H152589   5.112   2.154   6.690
17449WAT     H252590   5.155   2.280   6.595
17450WAT      O52591   1.820   6.754   8.767
17450WAT     H152592   1.750   6.746   8.695
17450WAT     H252593   1.890   6.684   8.753
17451WAT      O52594   4.645   3.667   8.188
17451WAT     H152595   4.575   3.696   8.123
17451WAT     H252596   4.727   3.640   8.138
17452WAT      O52597   2.955   9.518   0.098
17452WAT     H152598   2.923   9.423   0.090
17452WAT     H252599   3.001   9.544   0.013
17453WAT      O52600   3.259   7.418   5.032
17453WAT     H152601   3.293   7.377   4.947
17453WAT     H252602   3.179   7.367   5.063
17454WAT      O52603   4.106   2.589   4.058
17454WAT     H152604   4.070   2.679   4.085
17454WAT     H252605   4.154   2.597   3.971
17455WAT      O52606   7.650   4.300   0.254
17455WAT     H152607   7.674   4.232   0.184
17455WAT     H252608   7.568   4.270   0.302
17456WAT      O52609   2.195   9.606   3.663
17456WAT     H152610   2.143   9.666   3.603
17456WAT     H252611   2.172   9.511   3.642
17457WAT      O52612   1.504   5.832   9.414
17457WAT     H152613   1.444   5.881   9.477
17457WAT     H252614   1.594   5.819   9.456
17458WAT      O52615   5.883   4.501   6.631
17458WAT     H152616   5.904   4.517   6.535
17458WAT     H252617   5.832   4.416   6.641
17459WAT      O52618   8.954   2.653   8.710
17459WAT     H152619   8.978   2.619   8.801
17459WAT     H252620   8.999   2.742   8.695
17460WAT      O52621   7.263   4.240   6.508
17460WAT     H152622   7.287   4.208   6.416
17460WAT     H252623   7.346   4.251   6.562
17461WAT      O52624   9.097   2.009   3.119
17461WAT     H152625   9.034   1.990   3.044
17461WAT     H252626   9.156   2.086   3.094
17462WAT      O52627   3.268   5.332   4.571
17462WAT     H152628   3.229   5.270   4.639
17462WAT     H252629   3.301   5.414   4.617
17463WAT      O52630   4.359   1.665   6.473
17463WAT     H152631   4.314   1.637   6.558
17463WAT     H252632   4.317   1.617   6.396
17464WAT      O52633   4.380   5.651   9.125
17464WAT     H152634   4.440   5.613   9.055
17464WAT     H252635   4.285   5.650   9.091
17465WAT      O52636   5.922   8.170   1.920
17465WAT     H152637   5.850   8.204   1.981
17465WAT     H252638   6.011   8.177   1.966
17466WAT      O52639   0.639   5.391   3.406
17466WAT     H152640   0.697   5.448   3.347
17466WAT     H252641   0.570   5.345   3.350
17467WAT      O52642   5.256   2.152   0.172
17467WAT     H152643   5.254   2.107   0.261
17467WAT     H252644   5.269   2.083   0.100
17468WAT      O52645   2.270   8.232   1.100
17468WAT     H152646   2.334   8.273   1.036
17468WAT     H252647   2.242   8.300   1.167
17469WAT      O52648   1.629   6.402   0.475
17469WAT     H152649   1.677   6.322   0.440
17469WAT     H252650   1.537   6.405   0.436
17470WAT      O52651   7.871   6.274   8.453
17470WAT     H152652   7.908   6.196   8.402
17470WAT     H252653   7.805   6.323   8.396
17471WAT      O52654   2.936   2.654   0.286
17471WAT     H152655   2.866   2.590   0.254
17471WAT     H252656   2.982   2.616   0.367
17472WAT      O52657   3.233   0.529   1.013
17472WAT     H152658   3.278   0.589   0.947
17472WAT     H252659   3.210   0.582   1.095
17473WAT      O52660   8.794   1.858   2.290
17473WAT     H152661   8.727   1.793   2.255
17473WAT     H252662   8.803   1.847   2.389
17474WAT      O52663   4.153   3.734   5.069
17474WAT     H152664   4.072   3.768   5.116
17474WAT     H252665   4.162   3.781   4.981
17475WAT      O52666   8.780   9.815   8.606
17475WAT     H152667   8.828   9.767   8.679
17475WAT     H252668   8.709   9.757   8.568
17476WAT      O52669   4.866   9.789   1.098
17476WAT     H152670   4.922   9.707   1.104
17476WAT     H252671   4.920   9.868   1.127
17477WAT      O52672   6.175   6.288   8.362
17477WAT     H152673   6.087   6.252   8.392
17477WAT     H252674   6.195   6.373   8.411
17478WAT      O52675   7.007   1.564   9.754
17478WAT     H152676   7.025   1.507   9.834
17478WAT     H252677   7.085   1.624   9.737
17479WAT      O52678   4.454   3.034   4.340
17479WAT     H152679   4.456   2.982   4.425
17479WAT     H252680   4.476   2.974   4.263
17480WAT      O52681   4.184   2.213   5.759
17480WAT     H152682   4.202   2.224   5.661
17480WAT     H252683   4.250   2.266   5.811
17481WAT      O52684   4.661   2.498   4.479
17481WAT     H152685   4.624   2.469   4.567
17481WAT     H252686   4.717   2.425   4.441
17482WAT      O52687   7.023   2.822   1.277
17482WAT     H152688   7.014   2.922   1.274
17482WAT     H252689   6.936   2.782   1.307
17483WAT      O52690   7.863   1.535   1.592
17483WAT     H152691   7.825   1.481   1.517
17483WAT     H252692   7.960   1.554   1.573
17484WAT      O52693   3.162   7.712   6.816
17484WAT     H152694   3.156   7.668   6.726
17484WAT     H252695   3.108   7.661   6.882
17485WAT      O52696   8.122   0.090   0.312
17485WAT     H152697   8.023   0.083   0.308
17485WAT     H252698   8.154   0.160   0.247
17486WAT      O52699   9.231   5.294   7.353
17486WAT     H152700   9.155   5.234   7.376
17486WAT     H252701   9.220   5.381   7.401
17487WAT      O52702   8.158   7.622   0.857
17487WAT     H152703   8.130   7.717   0.870
17487WAT     H252704   8.100   7.580   0.787
17488WAT      O52705   0.520   9.103   9.475
17488WAT     H152706   0.558   9.012   9.461
17488WAT     H252707   0.587   9.172   9.448
17489WAT      O52708   3.207   6.572   0.353
17489WAT     H152709   3.205   6.593   0.451
17489WAT     H252710   3.297   6.538   0.329
17490WAT      O52711   3.404   7.306   0.804
17490WAT     H152712   3.401   7.323   0.705
17490WAT     H252713   3.335   7.237   0.828
17491WAT      O52714   4.122   6.691   2.916
17491WAT     H152715   4.130   6.598   2.880
17491WAT     H252716   4.154   6.693   3.011
17492WAT      O52717   6.594   6.551   7.148
17492WAT     H152718   6.514   6.562   7.089
17492WAT     H252719   6.624   6.641   7.180
17493WAT      O52720   4.111   5.790   3.783
17493WAT     H152721   4.035   5.726   3.771
17493WAT     H252722   4.111   5.856   3.708
17494WAT      O52723   7.885   3.086   6.042
17494WAT     H152724   7.787   3.099   6.061
17494WAT     H252725   7.897   3.004   5.986
17495WAT      O52726   1.875   1.975   6.732
17495WAT     H152727   1.914   2.034   6.802
17495WAT     H252728   1.810   2.026   6.676
17496WAT      O52729   4.026   4.637   1.869
17496WAT     H152730   4.073   4.569   1.924
17496WAT     H252731   3.946   4.670   1.919
17497WAT      O52732   5.595   7.245   1.152
17497WAT     H152733   5.687   7.211   1.171
17497WAT     H252734   5.601   7.331   1.102
17498WAT      O52735   0.986   7.768   2.515
17498WAT     H152736   0.910   7.704   2.499
17498WAT     H252737   0.968   7.853   2.466
17499WAT      O52738   5.378   6.122   8.389
17499WAT     H152739   5.289   6.141   8.348
17499WAT     H252740   5.428   6.057   8.331
17500WAT      O52741   4.243   2.596   6.793
17500WAT     H152742   4.147   2.601   6.821
17500WAT     H252743   4.300   2.581   6.874
17501WAT      O52744   5.069   1.056   4.367
17501WAT     H152745   4.990   1.086   4.313
17501WAT     H252746   5.045   1.056   4.464
17502WAT      O52747   9.501   0.179   4.361
17502WAT     H152748   9.530   0.248   4.296
17502WAT     H252749   9.574   0.161   4.427
17503WAT      O52750   3.916   9.011   7.090
17503WAT     H152751   3.834   9.040   7.139
17503WAT     H252752   3.996   9.025   7.147
17504WAT      O52753   0.316   8.695   3.363
17504WAT     H152754   0.398   8.709   3.418
17504WAT     H252755   0.279   8.784   3.335
17505WAT      O52756   1.286   8.926   3.818
17505WAT     H152757   1.333   8.995   3.873
17505WAT     H252758   1.252   8.968   3.735
17506WAT      O52759   1.562   3.542   7.475
17506WAT     H152760   1.655   3.527   7.442
17506WAT     H252761   1.506   3.461   7.454
17507WAT      O52762   5.606   2.994   9.830
17507WAT     H152763   5.659   3.049   9.895
17507WAT     H252764   5.509   3.019   9.837
17508WAT      O52765   9.259   0.449   2.783
17508WAT     H152766   9.173   0.486   2.817
17508WAT     H252767   9.305   0.518   2.728
17509WAT      O52768   5.256   8.009   0.665
17509WAT     H152769   5.166   8.026   0.626
17509WAT     H252770   5.266   7.911   0.683
17510WAT      O52771   7.646   4.564   0.299
17510WAT     H152772   7.655   4.469   0.270
17510WAT     H252773   7.611   4.566   0.393
17511WAT      O52774   5.783   7.887   4.050
17511WAT     H152775   5.827   7.975   4.032
17511WAT     H252776   5.849   7.813   4.035
17512WAT      O52777   9.305   4.224   3.885
17512WAT     H152778   9.281   4.127   3.874
17512WAT     H252779   9.327   4.263   3.795
17513WAT      O52780   9.714   5.920   6.143
17513WAT     H152781   9.796   5.866   6.124
17513WAT     H252782   9.730   5.977   6.223
17514WAT      O52783   0.099   2.612   2.799
17514WAT     H152784   0.012   2.635   2.755
17514WAT     H252785   0.112   2.513   2.798
17515WAT      O52786   5.570   1.353   9.655
17515WAT     H152787   5.485   1.376   9.606
17515WAT     H252788   5.575   1.407   9.739
17516WAT      O52789   3.069   4.184   6.195
17516WAT     H152790   3.144   4.208   6.133
17516WAT     H252791   2.982   4.214   6.155
17517WAT      O52792   4.214   0.405   2.807
17517WAT     H152793   4.267   0.425   2.890
17517WAT     H252794   4.269   0.429   2.726
17518WAT      O52795   8.033   3.237   7.696
17518WAT     H152796   8.130   3.221   7.713
17518WAT     H252797   7.992   3.155   7.656
17519WAT      O52798   9.785   4.600   4.164
17519WAT     H152799   9.734   4.552   4.093
17519WAT     H252800   9.780   4.699   4.149
17520WAT      O52801   9.626   4.062   9.867
17520WAT     H152802   9.590   3.997   9.934
17520WAT     H252803   9.714   4.098   9.898
17521WAT      O52804   0.207   7.270   5.048
17521WAT     H152805   0.214   7.339   4.976
17521WAT     H252806   0.111   7.262   5.077
17522WAT      O52807   0.618   3.854   1.852
17522WAT     H152808   0.610   3.939   1.904
17522WAT     H252809   0.547   3.790   1.881
17523WAT      O52810   8.306   4.767   8.086
17523WAT     H152811   8.255   4.764   8.000
17523WAT     H252812   8.262   4.832   8.148
17524WAT      O52813   4.139   9.800   8.074
17524WAT     H152814   4.201   9.873   8.102
17524WAT     H252815   4.190   9.715   8.064
17525WAT      O52816   3.165   1.880   0.705
17525WAT     H152817   3.212   1.887   0.793
17525WAT     H252818   3.085   1.822   0.715
17526WAT      O52819   3.284   9.302   8.309
17526WAT     H152820   3.204   9.245   8.328
17526WAT     H252821   3.280   9.334   8.214
17527WAT      O52822   6.054   8.930   5.744
17527WAT     H152823   6.089   8.881   5.823
17527WAT     H252824   6.003   8.866   5.685
17528WAT      O52825   9.865   2.932   4.463
17528WAT     H152826   9.933   3.001   4.483
17528WAT     H252827   9.776   2.976   4.447
17529WAT      O52828   9.248   4.844   4.805
17529WAT     H152829   9.282   4.790   4.728
17529WAT     H252830   9.325   4.872   4.862
17530WAT      O52831   8.507   5.956   2.411
17530WAT     H152832   8.584   6.019   2.412
17530WAT     H252833   8.462   5.959   2.322
17531WAT      O52834   2.827   0.910   9.261
17531WAT     H152835   2.744   0.937   9.310
17531WAT     H252836   2.803   0.880   9.169
17532WAT      O52837   3.103   2.341   9.757
17532WAT     H152838   3.015   2.300   9.733
17532WAT     H252839   3.165   2.271   9.791
17533WAT      O52840   1.209   1.224   8.712
17533WAT     H152841   1.185   1.128   8.696
17533WAT     H252842   1.129   1.274   8.745
17534WAT      O52843   1.157   7.646   8.312
17534WAT     H152844   1.147   7.573   8.245
17534WAT     H252845   1.224   7.618   8.381
17535WAT      O52846   7.251   7.384   6.896
17535WAT     H152847   7.298   7.351   6.814
17535WAT     H252848   7.313   7.444   6.947
17536WAT      O52849   0.317   7.020   2.542
17536WAT     H152850   0.403   7.023   2.593
17536WAT     H252851   0.245   6.984   2.601
17537WAT      O52852   8.199   6.481   6.435
17537WAT     H152853   8.220   6.575   6.460
17537WAT     H252854   8.102   6.463   6.449
17538WAT      O52855   5.310   2.208   8.421
17538WAT     H152856   5.328   2.274   8.349
17538WAT     H252857   5.336   2.248   8.509
17539WAT      O52858   8.731   6.335   7.799
17539WAT     H152859   8.672   6.286   7.735
17539WAT     H252860   8.820   6.353   7.756
17540WAT      O52861   0.186   4.039   0.356
17540WAT     H152862   0.286   4.039   0.357
17540WAT     H252863   0.153   4.105   0.423
17541WAT      O52864   0.917   2.412   3.793
17541WAT     H152865   0.884   2.383   3.883
17541WAT     H252866   0.839   2.433   3.734
17542WAT      O52867   6.415   0.886   2.482
17542WAT     H152868   6.453   0.945   2.553
17542WAT     H252869   6.359   0.814   2.523
17543WAT      O52870   3.951   8.596   4.536
17543WAT     H152871   3.854   8.579   4.552
17543WAT     H252872   3.963   8.690   4.504
17544WAT      O52873   2.401   9.757   8.504
17544WAT     H152874   2.432   9.682   8.445
17544WAT     H252875   2.437   9.843   8.469
17545WAT      O52876   6.130   0.004   6.242
17545WAT     H152877   6.107  -0.085   6.281
17545WAT     H252878   6.194   0.051   6.302
17546WAT      O52879   1.838   6.784   6.455
17546WAT     H152880   1.923   6.732   6.445
17546WAT     H252881   1.784   6.776   6.371
17547WAT      O52882   0.432   6.818   3.222
17547WAT     H152883   0.441   6.906   3.270
17547WAT     H252884   0.346   6.817   3.171
17548WAT      O52885   0.970   0.259   2.385
17548WAT     H152886   0.954   0.288   2.290
17548WAT     H252887   0.895   0.201   2.415
17549WAT      O52888   9.107   1.198   8.109
17549WAT     H152889   9.156   1.175   8.025
17549WAT     H252890   9.023   1.143   8.114
17550WAT      O52891   5.316   0.989   6.871
17550WAT     H152892   5.271   1.078   6.877
17550WAT     H252893   5.248   0.916   6.878
17551WAT      O52894   0.050   0.657   2.316
17551WAT     H152895   0.092   0.639   2.227
17551WAT     H252896  -0.040   0.612   2.320
17552WAT      O52897   7.050   5.760   3.687
17552WAT     H152898   7.015   5.684   3.741
17552WAT     H252899   7.006   5.845   3.716
17553WAT      O52900   8.557   5.595   5.298
17553WAT     H152901   8.641   5.624   5.345
17553WAT     H252902   8.499   5.674   5.281
17554WAT      O52903   7.606   7.328   8.222
17554WAT     H152904   7.612   7.298   8.317
17554WAT     H252905   7.627   7.426   8.217
17555WAT      O52906   1.841   8.927   9.790
17555WAT     H152907   1.913   8.965   9.848
17555WAT     H252908   1.777   9.000   9.765
17556WAT      O52909   9.112   6.386   4.539
17556WAT     H152910   9.157   6.389   4.628
17556WAT     H252911   9.037   6.320   4.542
17557WAT      O52912   1.646   8.293   2.988
17557WAT     H152913   1.732   8.275   2.941
17557WAT     H252914   1.633   8.392   2.998
17558WAT      O52915   9.718   8.344   0.655
17558WAT     H152916   9.764   8.369   0.740
17558WAT     H252917   9.734   8.247   0.635
17559WAT      O52918   0.219   2.786   7.750
17559WAT     H152919   0.134   2.833   7.773
17559WAT     H252920   0.285   2.853   7.715
17560WAT      O52921   9.565   9.381   2.996
17560WAT     H152922   9.627   9.303   3.010
17560WAT     H252923   9.614   9.455   2.950
17561WAT      O52924   0.754   0.014   9.553
17561WAT     H152925   0.819   0.089   9.538
17561WAT     H252926   0.803  -0.073   9.548
17562WAT      O52927   7.300   5.602   6.369
17562WAT     H152928   7.282   5.687   6.319
17562WAT     H252929   7.296   5.525   6.306
17563WAT      O52930   1.017   3.684   3.723
17563WAT     H152931   1.004   3.768   3.670
17563WAT     H252932   1.114   3.673   3.745
17564WAT      O52933   8.312   9.708   8.529
17564WAT     H152934   8.318   9.774   8.604
17564WAT     H252935   8.279   9.620   8.565
17565WAT      O52936   9.477   7.897   1.699
17565WAT     H152937   9.447   7.910   1.794
17565WAT     H252938   9.571   7.931   1.689
17566WAT      O52939   0.594   5.517   1.923
17566WAT     H152940   0.585   5.614   1.904
17566WAT     H252941   0.681   5.483   1.886
17567WAT      O52942   8.572   0.051   6.549
17567WAT     H152943   8.545   0.076   6.456
17567WAT     H252944   8.514   0.099   6.615
17568WAT      O52945   0.447   2.600   0.517
17568WAT     H152946   0.465   2.526   0.582
17568WAT     H252947   0.452   2.688   0.564
17569WAT      O52948   5.962   3.810   6.946
17569WAT     H152949   5.871   3.772   6.931
17569WAT     H252950   6.005   3.766   7.025
17570WAT      O52951   5.001   5.198   8.586
17570WAT     H152952   4.966   5.237   8.671
17570WAT     H252953   4.946   5.231   8.510
17571WAT      O52954   2.278   0.797   0.944
17571WAT     H152955   2.338   0.742   1.002
17571WAT     H252956   2.208   0.841   1.000
17572WAT      O52957   9.018   5.469   2.283
17572WAT     H152958   9.080   5.496   2.357
17572WAT     H252959   9.072   5.444   2.202
17573WAT      O52960   7.117   8.238   2.264
17573WAT     H152961   7.033   8.291   2.274
17573WAT     H252962   7.177   8.282   2.197
17574WAT      O52963   8.376   1.693   3.074
17574WAT     H152964   8.313   1.765   3.046
17574WAT     H252965   8.326   1.606   3.082
17575WAT      O52966   0.505   9.309   2.231
17575WAT     H152967   0.462   9.346   2.149
17575WAT     H252968   0.441   9.317   2.308
17576WAT      O52969   9.132   0.072   5.990
17576WAT     H152970   9.154   0.166   6.019
17576WAT     H252971   9.174   0.055   5.900
17577WAT      O52972   1.968   4.465   7.925
17577WAT     H152973   1.905   4.463   7.848
17577WAT     H252974   2.030   4.387   7.920
17578WAT      O52975   3.728   2.604   2.020
17578WAT     H152976   3.680   2.573   2.101
17578WAT     H252977   3.740   2.528   1.956
17579WAT      O52978   0.189   5.724   9.250
17579WAT     H152979   0.149   5.695   9.337
17579WAT     H252980   0.217   5.644   9.197
17580WAT      O52981   6.989   0.072   7.008
17580WAT     H152982   6.897   0.112   7.010
17580WAT     H252983   6.983  -0.024   6.980
17581WAT      O52984   9.056   6.286   2.541
17581WAT     H152985   8.974   6.313   2.592
17581WAT     H252986   9.099   6.367   2.502
17582WAT      O52987   0.598   2.313   1.758
17582WAT     H152988   0.544   2.242   1.803
17582WAT     H252989   0.641   2.372   1.827
17583WAT      O52990   4.237   6.453   3.216
17583WAT     H152991   4.307   6.496   3.272
17583WAT     H252992   4.183   6.524   3.169
17584WAT      O52993   5.404   8.936   7.788
17584WAT     H152994   5.348   9.016   7.765
17584WAT     H252995   5.487   8.965   7.835
17585WAT      O52996   7.359   7.855   9.402
17585WAT     H152997   7.306   7.895   9.477
17585WAT     H252998   7.433   7.799   9.440
17586WAT      O52999   0.920   8.396   8.530
17586WAT     H153000   1.019   8.386   8.544
17586WAT     H253001   0.898   8.493   8.518
17587WAT      O53002   3.616   4.112   8.156
17587WAT     H153003   3.696   4.167   8.134
17587WAT     H253004   3.535   4.171   8.161
17588WAT      O53005   8.229   8.888   7.333
17588WAT     H153006   8.185   8.977   7.318
17588WAT     H253007   8.261   8.882   7.428
17589WAT      O53008   6.831   1.798   1.339
17589WAT     H153009   6.733   1.788   1.319
17589WAT     H253010   6.865   1.882   1.296
17590WAT      O53011   2.604   1.168   6.573
17590WAT     H153012   2.537   1.113   6.523
17590WAT     H253013   2.696   1.143   6.544
17591WAT      O53014   3.777   2.057   2.289
17591WAT     H153015   3.839   1.980   2.272
17591WAT     H253016   3.817   2.117   2.358
17592WAT      O53017   6.737   5.503   8.890
17592WAT     H153018   6.795   5.584   8.890
17592WAT     H253019   6.738   5.461   8.981
17593WAT      O53020   1.909   7.507   4.950
17593WAT     H153021   1.936   7.411   4.948
17593WAT     H253022   1.843   7.525   4.878
17594WAT      O53023   9.389   5.368   3.796
17594WAT     H153024   9.440   5.423   3.730
17594WAT     H253025   9.339   5.427   3.858
17595WAT      O53026   8.170   0.610   1.872
17595WAT     H153027   8.179   0.633   1.775
17595WAT     H253028   8.117   0.680   1.919
17596WAT      O53029   3.903   4.498   0.521
17596WAT     H153030   3.974   4.536   0.581
17596WAT     H253031   3.945   4.469   0.435
17597WAT      O53032   4.644   4.916   1.284
17597WAT     H153033   4.728   4.913   1.231
17597WAT     H253034   4.651   4.987   1.354
17598WAT      O53035   1.793   5.255   2.308
17598WAT     H153036   1.749   5.213   2.388
17598WAT     H253037   1.874   5.201   2.284
17599WAT      O53038   1.318   8.088   7.138
17599WAT     H153039   1.241   8.064   7.197
17599WAT     H253040   1.304   8.048   7.047
17600WAT      O53041   1.808   7.282   8.088
17600WAT     H153042   1.877   7.210   8.087
17600WAT     H253043   1.853   7.372   8.090
17601WAT      O53044   9.767   1.304   7.109
17601WAT     H153045   9.832   1.340   7.042
17601WAT     H253046   9.723   1.380   7.157
17602WAT      O53047   4.485   9.597   0.932
17602WAT     H153048   4.394   9.558   0.943
17602WAT     H253049   4.483   9.670   0.864
17603WAT      O53050   5.154   8.629   8.597
17603WAT     H153051   5.056   8.630   8.616
17603WAT     H253052   5.184   8.720   8.568
17604WAT      O53053   0.828   8.827   5.732
17604WAT     H153054   0.843   8.921   5.699
17604WAT     H253055   0.827   8.826   5.832
17605WAT      O53056   9.182   6.447   0.508
17605WAT     H153057   9.086   6.474   0.511
17605WAT     H253058   9.207   6.404   0.595
17606WAT      O53059   2.839   8.990   0.005
17606WAT     H153060   2.780   9.037  -0.061
17606WAT     H253061   2.787   8.920   0.053
17607WAT      O53062   2.729   7.420   2.569
17607WAT     H153063   2.702   7.338   2.619
17607WAT     H253064   2.667   7.494   2.590
17608WAT      O53065   5.811   8.778   4.144
17608WAT     H153066   5.773   8.841   4.076
17608WAT     H253067   5.906   8.756   4.121
17609WAT      O53068   8.772   7.584   8.944
17609WAT     H153069   8.698   7.615   8.883
17609WAT     H253070   8.849   7.551   8.889
17610WAT      O53071   9.287   2.862   7.508
17610WAT     H153072   9.383   2.887   7.505
17610WAT     H253073   9.233   2.940   7.542
17611WAT      O53074   5.379   5.995   1.371
17611WAT     H153075   5.350   6.087   1.346
17611WAT     H253076   5.469   5.999   1.414
17612WAT      O53077   9.337   6.571   0.903
17612WAT     H153078   9.400   6.495   0.895
17612WAT     H253079   9.308   6.601   0.812
17613WAT      O53080   9.734   9.052   3.731
17613WAT     H153081   9.784   9.126   3.775
17613WAT     H253082   9.690   9.085   3.648
17614WAT      O53083   2.189   3.795   2.703
17614WAT     H153084   2.177   3.729   2.629
17614WAT     H253085   2.110   3.790   2.765
17615WAT      O53086   8.324   9.531   3.987
17615WAT     H153087   8.262   9.537   4.065
17615WAT     H253088   8.273   9.548   3.902
17616WAT      O53089   1.012   1.979   0.392
17616WAT     H153090   0.943   2.032   0.440
17616WAT     H253091   1.094   1.972   0.449
17617WAT      O53092   6.995   0.581   4.655
17617WAT     H153093   6.909   0.623   4.680
17617WAT     H253094   7.011   0.592   4.557
17618WAT      O53095   3.409   2.460   0.230
17618WAT     H153096   3.321   2.438   0.272
17618WAT     H253097   3.400   2.457   0.131
17619WAT      O53098   1.817   2.370   6.301
17619WAT     H153099   1.839   2.395   6.395
17619WAT     H253100   1.842   2.274   6.286
17620WAT      O53101   5.837   8.609   0.704
17620WAT     H153102   5.913   8.548   0.679
17620WAT     H253103   5.798   8.648   0.621
17621WAT      O53104   6.969   8.270   2.983
17621WAT     H153105   6.929   8.253   3.072
17621WAT     H253106   6.917   8.342   2.936
17622WAT      O53107   4.176   9.508   0.491
17622WAT     H153108   4.100   9.505   0.556
17622WAT     H253109   4.200   9.604   0.473
17623WAT      O53110   7.651   1.551   7.311
17623WAT     H153111   7.732   1.579   7.365
17623WAT     H253112   7.679   1.486   7.241
17624WAT      O53113   5.274   3.275   2.941
17624WAT     H153114   5.366   3.310   2.953
17624WAT     H253115   5.225   3.276   3.028
17625WAT      O53116   8.854   1.950   3.292
17625WAT     H153117   8.809   1.965   3.203
17625WAT     H253118   8.846   2.033   3.347
17626WAT      O53119   7.473   5.989   4.339
17626WAT     H153120   7.498   6.085   4.356
17626WAT     H253121   7.388   5.968   4.388
17627WAT      O53122   8.745   6.683   6.883
17627WAT     H153123   8.836   6.657   6.917
17627WAT     H253124   8.735   6.782   6.888
17628WAT      O53125   1.577   6.783   3.837
17628WAT     H153126   1.597   6.789   3.935
17628WAT     H253127   1.516   6.705   3.820
17629WAT      O53128   2.517   4.846   3.252
17629WAT     H153129   2.548   4.856   3.347
17629WAT     H253130   2.426   4.888   3.243
17630WAT      O53131   6.629   4.658   7.317
17630WAT     H153132   6.545   4.647   7.265
17630WAT     H253133   6.607   4.677   7.413
17631WAT      O53134   9.363   6.254   5.284
17631WAT     H153135   9.448   6.290   5.323
17631WAT     H253136   9.363   6.268   5.185
17632WAT      O53137   1.301   4.819   7.339
17632WAT     H153138   1.275   4.843   7.432
17632WAT     H253139   1.394   4.783   7.339
17633WAT      O53140   5.625   9.107   6.462
17633WAT     H153141   5.648   9.012   6.441
17633WAT     H253142   5.526   9.117   6.469
17634WAT      O53143   6.311   2.768   4.131
17634WAT     H153144   6.280   2.677   4.160
17634WAT     H253145   6.243   2.836   4.157
17635WAT      O53146   6.611   6.527   5.165
17635WAT     H153147   6.583   6.467   5.240
17635WAT     H253148   6.711   6.529   5.160
17636WAT      O53149   1.234   1.915   8.068
17636WAT     H153150   1.294   1.995   8.061
17636WAT     H253151   1.146   1.935   8.026
17637WAT      O53152   4.854   5.985   7.497
17637WAT     H153153   4.904   5.912   7.545
17637WAT     H253154   4.780   6.018   7.554
17638WAT      O53155   4.452   9.767   5.136
17638WAT     H153156   4.491   9.838   5.078
17638WAT     H253157   4.521   9.698   5.156
17639WAT      O53158   0.191   0.123   4.141
17639WAT     H153159   0.161   0.125   4.046
17639WAT     H253160   0.112   0.134   4.201
17640WAT      O53161   2.602   9.589   2.133
17640WAT     H153162   2.546   9.573   2.214
17640WAT     H253163   2.631   9.502   2.094
17641WAT      O53164   9.096   7.576   6.049
17641WAT     H153165   9.006   7.577   6.091
17641WAT     H253166   9.087   7.570   5.949
17642WAT      O53167   2.970   6.945   9.114
17642WAT     H153168   2.888   6.933   9.058
17642WAT     H253169   3.009   6.856   9.135
17643WAT      O53170   8.872   9.677   1.764
17643WAT     H153171   8.899   9.592   1.719
17643WAT     H253172   8.949   9.741   1.763
17644WAT      O53173   7.511   5.557   7.422
17644WAT     H153174   7.467   5.571   7.510
17644WAT     H253175   7.502   5.640   7.366
17645WAT      O53176   0.403   4.473   0.861
17645WAT     H153177   0.477   4.494   0.926
17645WAT     H253178   0.361   4.386   0.886
17646WAT      O53179   2.956   1.370   4.235
17646WAT     H153180   2.981   1.283   4.277
17646WAT     H253181   2.930   1.354   4.140
17647WAT      O53182   2.984   7.487   7.517
17647WAT     H153183   2.921   7.415   7.487
17647WAT     H253184   3.067   7.445   7.554
17648WAT      O53185   4.350   1.035   1.587
17648WAT     H153186   4.388   1.058   1.676
17648WAT     H253187   4.276   0.968   1.598
17649WAT      O53188   7.451   1.654   6.695
17649WAT     H153189   7.395   1.575   6.670
17649WAT     H253190   7.432   1.681   6.789
17650WAT      O53191   5.929   9.644   8.690
17650WAT     H153192   5.886   9.598   8.613
17650WAT     H253193   5.909   9.742   8.686
17651WAT      O53194   1.372   4.170   8.294
17651WAT     H153195   1.420   4.162   8.382
17651WAT     H253196   1.303   4.098   8.287
17652WAT      O53197   1.861   1.782   2.079
17652WAT     H153198   1.961   1.773   2.083
17652WAT     H253199   1.822   1.740   2.161
17653WAT      O53200   5.927   6.261   5.176
17653WAT     H153201   5.909   6.199   5.252
17653WAT     H253202   6.010   6.315   5.195
17654WAT      O53203   4.911   6.047   0.232
17654WAT     H153204   4.996   5.995   0.243
17654WAT     H253205   4.924   6.117   0.162
17655WAT      O53206   1.142   3.684   6.603
17655WAT     H153207   1.060   3.705   6.550
17655WAT     H253208   1.159   3.585   6.601
17656WAT      O53209   6.868   4.725   7.186
17656WAT     H153210   6.772   4.738   7.212
17656WAT     H253211   6.872   4.686   7.094
17657WAT      O53212   7.171   8.009   8.966
17657WAT     H153213   7.188   8.059   9.051
17657WAT     H253214   7.093   7.948   8.978
17658WAT      O53215   5.346   1.451   6.789
17658WAT     H153216   5.415   1.436   6.717
17658WAT     H253217   5.345   1.547   6.815
17659WAT      O53218   1.814   5.608   1.133
17659WAT     H153219   1.861   5.520   1.141
17659WAT     H253220   1.751   5.605   1.055
17660WAT      O53221   4.874   9.077   1.235
17660WAT     H153222   4.881   8.978   1.223
17660WAT     H253223   4.886   9.101   1.331
17661WAT      O53224   5.987   0.377   6.025
17661WAT     H153225   6.018   0.447   5.961
17661WAT     H253226   5.907   0.411   6.076
17662WAT      O53227   9.776   4.989   0.989
17662WAT     H153228   9.840   4.946   1.052
17662WAT     H253229   9.762   4.930   0.910
17663WAT      O53230   8.848   8.779   2.020
17663WAT     H153231   8.753   8.797   1.997
17663WAT     H253232   8.855   8.693   2.070
17664WAT      O53233   4.947   9.726   2.080
17664WAT     H153234   5.045   9.718   2.063
17664WAT     H253235   4.926   9.818   2.113
17665WAT      O53236   6.649   6.539   4.556
17665WAT     H153237   6.588   6.613   4.585
17665WAT     H253238   6.728   6.578   4.510
17666WAT      O53239   6.454   5.426   7.953
17666WAT     H153240   6.527   5.428   8.021
17666WAT     H253241   6.366   5.409   7.999
17667WAT      O53242   4.040   7.492   4.865
17667WAT     H153243   3.946   7.522   4.880
17667WAT     H253244   4.042   7.393   4.850
17668WAT      O53245   1.193   7.572   1.222
17668WAT     H153246   1.271   7.586   1.283
17668WAT     H253247   1.108   7.592   1.271
17669WAT      O53248   1.361   7.440   3.757
17669WAT     H153249   1.328   7.389   3.837
17669WAT     H253250   1.381   7.534   3.784
17670WAT      O53251   7.571   0.705   6.912
17670WAT     H153252   7.546   0.618   6.956
17670WAT     H253253   7.537   0.706   6.818
17671WAT      O53254   5.205   1.269   9.761
17671WAT     H153255   5.189   1.234   9.669
17671WAT     H253256   5.243   1.196   9.818
17672WAT      O53257   5.657   1.205   9.445
17672WAT     H153258   5.730   1.153   9.489
17672WAT     H253259   5.628   1.279   9.506
17673WAT      O53260   7.942   5.424   9.076
17673WAT     H153261   7.979   5.498   9.020
17673WAT     H253262   7.967   5.336   9.036
17674WAT      O53263   1.464   9.257   5.517
17674WAT     H153264   1.411   9.175   5.496
17674WAT     H253265   1.401   9.336   5.522
17675WAT      O53266   8.727   0.353   9.819
17675WAT     H153267   8.794   0.427   9.828
17675WAT     H253268   8.757   0.289   9.748
17676WAT      O53269   8.089   1.192   9.442
17676WAT     H153270   8.131   1.231   9.360
17676WAT     H253271   8.146   1.119   9.478
17677WAT      O53272   0.012   1.987   2.030
17677WAT     H153273  -0.003   1.892   2.001
17677WAT     H253274   0.025   1.989   2.129
17678WAT      O53275   0.173   8.682   9.140
17678WAT     H153276   0.116   8.664   9.220
17678WAT     H253277   0.161   8.776   9.110
17679WAT      O53278   2.004   5.963   4.405
17679WAT     H153279   1.932   5.907   4.447
17679WAT     H253280   2.068   5.993   4.476
17680WAT      O53281   1.326   3.435   1.433
17680WAT     H153282   1.393   3.508   1.426
17680WAT     H253283   1.243   3.470   1.477
17681WAT      O53284   0.800   7.423   5.966
17681WAT     H153285   0.747   7.364   6.027
17681WAT     H253286   0.869   7.473   6.019
17682WAT      O53287   7.987   8.280   6.806
17682WAT     H153288   7.997   8.189   6.847
17682WAT     H253289   8.067   8.301   6.750
17683WAT      O53290   8.316   6.899   7.776
17683WAT     H153291   8.353   6.806   7.777
17683WAT     H253292   8.268   6.914   7.689
17684WAT      O53293   5.497   5.320   9.017
17684WAT     H153294   5.472   5.268   9.099
17684WAT     H253295   5.576   5.378   9.038
17685WAT      O53296   8.462   7.630   9.260
17685WAT     H153297   8.509   7.659   9.344
17685WAT     H253298   8.364   7.628   9.276
17686WAT      O53299   0.092   4.615   3.892
17686WAT     H153300   0.152   4.539   3.867
17686WAT     H253301   0.039   4.643   3.812
17687WAT      O53302   2.302   2.102   9.522
17687WAT     H153303   2.302   2.084   9.423
17687WAT     H253304   2.360   2.034   9.568
17688WAT      O53305   6.085   1.812   6.273
17688WAT     H153306   6.036   1.727   6.294
17688WAT     H253307   6.022   1.877   6.231
17689WAT      O53308   2.980   7.936   4.424
17689WAT     H153309   3.015   7.865   4.363
17689WAT     H253310   2.881   7.943   4.414
17690WAT      O53311   5.278   6.827   3.430
17690WAT     H153312   5.226   6.766   3.490
17690WAT     H253313   5.356   6.865   3.480
17691WAT      O53314   0.723   4.540   9.639
17691WAT     H153315   0.750   4.561   9.545
17691WAT     H253316   0.623   4.537   9.645
17692WAT      O53317   8.905   1.691   3.285
17692WAT     H153318   8.824   1.670   3.232
17692WAT     H253319   8.902   1.787   3.314
17693WAT      O53320   4.199   5.387   0.459
17693WAT     H153321   4.291   5.401   0.494
17693WAT     H253322   4.204   5.338   0.372
17694WAT      O53323   4.227   1.794   2.787
17694WAT     H153324   4.221   1.869   2.721
17694WAT     H253325   4.309   1.741   2.769
17695WAT      O53326   1.325   7.107   4.573
17695WAT     H153327   1.402   7.110   4.509
17695WAT     H253328   1.240   7.088   4.522
17696WAT      O53329   0.540   5.531   7.846
17696WAT     H153330   0.606   5.606   7.856
17696WAT     H253331   0.579   5.447   7.884
17697WAT      O53332   3.106   2.523   3.322
17697WAT     H153333   3.187   2.490   3.274
17697WAT     H253334   3.044   2.567   3.256
17698WAT      O53335   0.152   0.027   2.071
17698WAT     H153336   0.178   0.110   2.021
17698WAT     H253337   0.061  -0.002   2.041
17699WAT      O53338   7.932   9.793   3.370
17699WAT     H153339   7.967   9.794   3.464
17699WAT     H253340   7.870   9.870   3.357
17700WAT      O53341   5.546   5.686   4.427
17700WAT     H153342   5.601   5.769   4.420
17700WAT     H253343   5.484   5.695   4.506
17701WAT      O53344   8.446   1.214   9.626
17701WAT     H153345   8.519   1.146   9.624
17701WAT     H253346   8.358   1.169   9.638
17702WAT      O53347   0.678   9.747   8.894
17702WAT     H153348   0.667   9.719   8.989
17702WAT     H253349   0.592   9.731   8.844
17703WAT      O53350   0.964   3.783   6.404
17703WAT     H153351   0.870   3.751   6.411
17703WAT     H253352   0.967   3.882   6.415
17704WAT      O53353   0.865   7.517   2.948
17704WAT     H153354   0.799   7.546   3.018
17704WAT     H253355   0.927   7.593   2.928
17705WAT      O53356   5.412   5.498   3.136
17705WAT     H153357   5.319   5.489   3.173
17705WAT     H253358   5.457   5.409   3.137
17706WAT      O53359   5.721   7.561   7.824
17706WAT     H153360   5.640   7.591   7.873
17706WAT     H253361   5.746   7.629   7.755
17707WAT      O53362   8.382   2.309   7.685
17707WAT     H153363   8.378   2.409   7.684
17707WAT     H253364   8.458   2.280   7.743
17708WAT      O53365   5.461   0.783   7.843
17708WAT     H153366   5.529   0.722   7.801
17708WAT     H253367   5.498   0.820   7.928
17709WAT      O53368   8.033   4.000   8.404
17709WAT     H153369   8.037   4.064   8.328
17709WAT     H253370   8.121   3.953   8.413
17710WAT      O53371   2.544   1.946   8.305
17710WAT     H153372   2.571   2.035   8.342
17710WAT     H253373   2.624   1.898   8.271
17711WAT      O53374   8.318   5.670   0.718
17711WAT     H153375   8.304   5.765   0.692
17711WAT     H253376   8.381   5.666   0.796
17712WAT      O53377   8.158   9.450   9.437
17712WAT     H153378   8.175   9.491   9.348
17712WAT     H253379   8.142   9.522   9.505
17713WAT      O53380   4.087   4.707   7.544
17713WAT     H153381   4.164   4.651   7.573
17713WAT     H253382   4.001   4.664   7.572
17714WAT      O53383   6.763   5.144   2.566
17714WAT     H153384   6.678   5.092   2.571
17714WAT     H253385   6.775   5.181   2.474
17715WAT      O53386   4.761   5.841   1.441
17715WAT     H153387   4.855   5.810   1.452
17715WAT     H253388   4.740   5.851   1.344
17716WAT      O53389   3.317   0.820   7.155
17716WAT     H153390   3.255   0.807   7.232
17716WAT     H253391   3.268   0.863   7.079
17717WAT      O53392   5.246   3.767   8.856
17717WAT     H153393   5.214   3.757   8.950
17717WAT     H253394   5.229   3.861   8.825
17718WAT      O53395   7.215   7.565   0.855
17718WAT     H153396   7.296   7.594   0.905
17718WAT     H253397   7.240   7.542   0.761
17719WAT      O53398   5.153   7.497   6.351
17719WAT     H153399   5.064   7.453   6.357
17719WAT     H253400   5.220   7.433   6.314
17720WAT      O53401   5.237   5.990   2.569
17720WAT     H153402   5.239   6.002   2.470
17720WAT     H253403   5.242   6.080   2.613
17721WAT      O53404   1.585   9.786   4.278
17721WAT     H153405   1.657   9.810   4.343
17721WAT     H253406   1.496   9.813   4.316
17722WAT      O53407   3.328   5.105   3.199
17722WAT     H153408   3.355   5.194   3.237
17722WAT     H253409   3.366   5.096   3.107
17723WAT      O53410   9.153   0.387   9.609
17723WAT     H153411   9.231   0.448   9.625
17723WAT     H253412   9.139   0.330   9.689
17724WAT      O53413   4.170   8.394   0.247
17724WAT     H153414   4.195   8.417   0.153
17724WAT     H253415   4.196   8.300   0.267
17725WAT      O53416   5.587   9.305   1.648
17725WAT     H153417   5.670   9.337   1.602
17725WAT     H253418   5.591   9.205   1.656
17726WAT      O53419   0.555   0.558   2.988
17726WAT     H153420   0.592   0.532   3.077
17726WAT     H253421   0.455   0.552   2.990
17727WAT      O53422   2.963   3.147   7.878
17727WAT     H153423   2.923   3.066   7.835
17727WAT     H253424   2.985   3.127   7.974
17728WAT      O53425   8.123   2.809   0.496
17728WAT     H153426   8.077   2.880   0.548
17728WAT     H253427   8.063   2.777   0.423
17729WAT      O53428   9.036   4.498   2.609
17729WAT     H153429   9.031   4.484   2.510
17729WAT     H253430   8.967   4.565   2.637
17730WAT      O53431   0.694   4.094   7.451
17730WAT     H153432   0.754   4.018   7.427
17730WAT     H253433   0.643   4.124   7.369
17731WAT      O53434   1.009   7.988   8.381
17731WAT     H153435   1.084   7.984   8.448
17731WAT     H253436   0.998   8.081   8.348
17732WAT      O53437   7.042   2.958   5.039
17732WAT     H153438   7.108   2.889   5.069
17732WAT     H253439   7.056   3.042   5.091
17733WAT      O53440   2.988   2.700   4.229
17733WAT     H153441   2.998   2.746   4.141
17733WAT     H253442   3.023   2.607   4.223
17734WAT      O53443   3.490   8.581   1.262
17734WAT     H153444   3.548   8.622   1.192
17734WAT     H253445   3.540   8.574   1.348
17735WAT      O53446   7.491   8.489   8.492
17735WAT     H153447   7.547   8.409   8.515
17735WAT     H253448   7.525   8.530   8.408
17736WAT      O53449   2.795   6.465   2.241
17736WAT     H153450   2.889   6.492   2.220
17736WAT     H253451   2.792   6.366   2.255
17737WAT      O53452   1.485   2.492   3.188
17737WAT     H153453   1.539   2.413   3.216
17737WAT     H253454   1.521   2.575   3.232
17738WAT      O53455   3.804   8.605   9.405
17738WAT     H153456   3.790   8.508   9.426
17738WAT     H253457   3.805   8.618   9.306
17739WAT      O53458   8.863   9.327   8.044
17739WAT     H153459   8.949   9.354   8.088
17739WAT     H253460   8.801   9.288   8.113
17740WAT      O53461   0.045   5.764   6.524
17740WAT     H153462   0.126   5.723   6.483
17740WAT     H253463   0.072   5.828   6.596
17741WAT      O53464   3.909   3.497   7.932
17741WAT     H153465   3.892   3.548   7.848
17741WAT     H253466   3.916   3.399   7.912
17742WAT      O53467   1.012   3.324   8.038
17742WAT     H153468   1.104   3.358   8.016
17742WAT     H253469   1.017   3.262   8.116
17743WAT      O53470   5.152   1.583   4.044
17743WAT     H153471   5.061   1.619   4.025
17743WAT     H253472   5.155   1.486   4.022
17744WAT      O53473   6.143   5.090   6.927
17744WAT     H153474   6.149   4.994   6.955
17744WAT     H253475   6.111   5.145   7.003
17745WAT      O53476   9.653   3.137   7.325
17745WAT     H153477   9.701   3.215   7.365
17745WAT     H253478   9.719   3.068   7.296
17746WAT      O53479   1.036   0.396   5.613
17746WAT     H153480   1.079   0.329   5.553
17746WAT     H253481   0.947   0.362   5.642
17747WAT      O53482   2.950   5.602   6.588
17747WAT     H153483   2.896   5.674   6.631
17747WAT     H253484   2.889   5.529   6.558
17748WAT      O53485   6.959   9.585   2.380
17748WAT     H153486   6.878   9.639   2.357
17748WAT     H253487   6.991   9.611   2.471
17749WAT      O53488   9.245   9.670   3.308
17749WAT     H153489   9.294   9.587   3.281
17749WAT     H253490   9.303   9.749   3.291
17750WAT      O53491   9.041   7.459   3.331
17750WAT     H153492   9.042   7.464   3.431
17750WAT     H253493   9.016   7.366   3.303
17751WAT      O53494   7.182   3.485   4.996
17751WAT     H153495   7.140   3.552   4.935
17751WAT     H253496   7.166   3.513   5.091
17752WAT      O53497   5.096   3.077   2.449
17752WAT     H153498   5.113   3.127   2.534
17752WAT     H253499   4.999   3.083   2.425
17753WAT      O53500   1.859   8.210   6.292
17753WAT     H153501   1.825   8.116   6.287
17753WAT     H253502   1.782   8.273   6.284
17754WAT      O53503   8.349   0.938   1.672
17754WAT     H153504   8.341   0.940   1.772
17754WAT     H253505   8.441   0.907   1.646
17755WAT      O53506   4.733   5.205   2.784
17755WAT     H153507   4.755   5.115   2.823
17755WAT     H253508   4.669   5.252   2.845
17756WAT      O53509   4.293   8.445   6.006
17756WAT     H153510   4.199   8.476   6.017
17756WAT     H253511   4.356   8.523   6.014
17757WAT      O53512   6.568   8.821   9.682
17757WAT     H153513   6.661   8.832   9.649
17757WAT     H253514   6.542   8.901   9.737
17758WAT      O53515   6.333   3.634   7.743
17758WAT     H153516   6.311   3.688   7.662
17758WAT     H253517   6.250   3.588   7.775
17759WAT      O53518   3.289   9.298   5.668
17759WAT     H153519   3.273   9.370   5.735
17759WAT     H253520   3.311   9.213   5.715
17760WAT      O53521   6.778   8.701   4.505
17760WAT     H153522   6.819   8.746   4.426
17760WAT     H253523   6.842   8.634   4.543
17761WAT      O53524   3.831   5.365   1.766
17761WAT     H153525   3.879   5.278   1.772
17761WAT     H253526   3.783   5.371   1.678
17762WAT      O53527   7.060   6.574   3.635
17762WAT     H153528   6.973   6.543   3.596
17762WAT     H253529   7.123   6.597   3.561
17763WAT      O53530   5.419   7.145   0.533
17763WAT     H153531   5.509   7.157   0.493
17763WAT     H253532   5.410   7.204   0.613
17764WAT      O53533   9.619   2.593   6.675
17764WAT     H153534   9.553   2.655   6.717
17764WAT     H253535   9.692   2.645   6.633
17765WAT      O53536   5.366   2.052   7.592
17765WAT     H153537   5.267   2.038   7.594
17765WAT     H253538   5.406   2.023   7.679
17766WAT      O53539   1.857   9.583   2.436
17766WAT     H153540   1.881   9.609   2.342
17766WAT     H253541   1.940   9.554   2.484
17767WAT      O53542   0.053   1.862   3.309
17767WAT     H153543   0.118   1.818   3.371
17767WAT     H253544   0.043   1.807   3.227
17768WAT      O53545   2.356   4.320   1.675
17768WAT     H153546   2.289   4.272   1.732
17768WAT     H253547   2.308   4.372   1.604
17769WAT      O53548   6.411   8.826   6.370
17769WAT     H153549   6.398   8.728   6.351
17769WAT     H253550   6.451   8.837   6.461
17770WAT      O53551   0.648   7.472   9.323
17770WAT     H153552   0.630   7.377   9.351
17770WAT     H253553   0.626   7.482   9.226
17771WAT      O53554   5.513   3.694   9.820
17771WAT     H153555   5.426   3.742   9.821
17771WAT     H253556   5.497   3.595   9.826
17772WAT      O53557   8.762   3.589   5.650
17772WAT     H153558   8.738   3.510   5.595
17772WAT     H253559   8.723   3.579   5.742
17773WAT      O53560   6.414   4.026   6.477
17773WAT     H153561   6.360   3.954   6.434
17773WAT     H253562   6.510   4.016   6.451
17774WAT      O53563   4.450   4.997   3.507
17774WAT     H153564   4.520   5.028   3.571
17774WAT     H253565   4.484   5.007   3.414
17775WAT      O53566   4.644   7.336   6.100
17775WAT     H153567   4.618   7.424   6.140
17775WAT     H253568   4.565   7.294   6.057
17776WAT      O53569   6.532   7.571   1.647
17776WAT     H153570   6.484   7.483   1.645
17776WAT     H253571   6.598   7.575   1.572
17777WAT      O53572   2.682   8.781   6.839
17777WAT     H153573   2.703   8.695   6.885
17777WAT     H253574   2.767   8.829   6.817
17778WAT      O53575   2.995   3.508   4.836
17778WAT     H153576   3.088   3.526   4.867
17778WAT     H253577   2.932   3.573   4.880
17779WAT      O53578   5.762   4.154   9.856
17779WAT     H153579   5.781   4.197   9.944
17779WAT     H253580   5.713   4.068   9.870
17780WAT      O53581   1.933   1.799   9.535
17780WAT     H153582   1.938   1.833   9.628
17780WAT     H253583   1.902   1.872   9.474
17781WAT      O53584   5.612   9.792   2.018
17781WAT     H153585   5.678   9.793   2.093
17781WAT     H253586   5.573   9.700   2.009
17782WAT      O53587   0.193   4.556   8.959
17782WAT     H153588   0.165   4.631   8.899
17782WAT     H253589   0.128   4.547   9.034
17783WAT      O53590   0.898   3.765   6.844
17783WAT     H153591   0.890   3.684   6.786
17783WAT     H253592   0.989   3.804   6.833
17784WAT      O53593   4.323   4.578   1.106
17784WAT     H153594   4.274   4.494   1.082
17784WAT     H253595   4.280   4.620   1.186
17785WAT      O53596   0.887   7.866   1.002
17785WAT     H153597   0.968   7.809   1.009
17785WAT     H253598   0.833   7.839   0.922
17786WAT      O53599   2.915   7.713   3.157
17786WAT     H153600   2.868   7.691   3.242
17786WAT     H253601   2.911   7.635   3.094
17787WAT      O53602   9.722   1.893   0.007
17787WAT     H153603   9.628   1.915  -0.018
17787WAT     H253604   9.779   1.975  -0.000
17788WAT      O53605   1.745   0.464   8.225
17788WAT     H153606   1.806   0.413   8.286
17788WAT     H253607   1.651   0.431   8.236
17789WAT      O53608   2.561   5.687   5.578
17789WAT     H153609   2.569   5.600   5.627
17789WAT     H253610   2.627   5.688   5.502
17790WAT      O53611   2.986   1.835   0.237
17790WAT     H153612   2.979   1.912   0.300
17790WAT     H253613   2.918   1.844   0.165
17791WAT      O53614   5.442   0.015   3.749
17791WAT     H153615   5.456   0.039   3.653
17791WAT     H253616   5.375   0.078   3.789
17792WAT      O53617   1.865   6.651   9.310
17792WAT     H153618   1.769   6.664   9.287
17792WAT     H253619   1.922   6.703   9.247
17793WAT      O53620   4.371   1.925   8.525
17793WAT     H153621   4.283   1.948   8.567
17793WAT     H253622   4.356   1.887   8.434
17794WAT      O53623   9.208   6.063   7.286
17794WAT     H153624   9.127   6.018   7.248
17794WAT     H253625   9.221   6.151   7.241
17795WAT      O53626   6.900   6.588   8.095
17795WAT     H153627   6.958   6.507   8.108
17795WAT     H253628   6.916   6.626   8.004
17796WAT      O53629   1.877   3.885   2.307
17796WAT     H153630   1.929   3.944   2.369
17796WAT     H253631   1.800   3.937   2.269
17797WAT      O53632   5.679   8.824   5.970
17797WAT     H153633   5.614   8.892   6.004
17797WAT     H253634   5.704   8.762   6.045
17798WAT      O53635   8.199   2.037   2.604
17798WAT     H153636   8.270   2.049   2.534
17798WAT     H253637   8.127   2.105   2.591
17799WAT      O53638   0.592   2.751   7.340
17799WAT     H153639   0.629   2.754   7.433
17799WAT     H253640   0.621   2.834   7.291
17800WAT      O53641   4.098   1.240   1.464
17800WAT     H153642   4.076   1.330   1.502
17800WAT     H253643   4.196   1.235   1.445
17801WAT      O53644   8.611   2.103   8.655
17801WAT     H153645   8.513   2.102   8.639
17801WAT     H253646   8.641   2.197   8.675
17802WAT      O53647   6.033   7.459   0.782
17802WAT     H153648   5.962   7.413   0.729
17802WAT     H253649   5.991   7.518   0.851
17803WAT      O53650   2.208   6.646   3.934
17803WAT     H153651   2.184   6.606   3.845
17803WAT     H253652   2.130   6.698   3.969
17804WAT      O53653   1.475   4.344   5.137
17804WAT     H153654   1.462   4.249   5.163
17804WAT     H253655   1.570   4.359   5.111
17805WAT      O53656   3.914   5.741   5.900
17805WAT     H153657   3.834   5.745   5.960
17805WAT     H253658   3.929   5.646   5.871
17806WAT      O53659   2.264   5.413   1.947
17806WAT     H153660   2.204   5.336   1.924
17806WAT     H253661   2.210   5.496   1.957
17807WAT      O53662   1.627   6.436   3.830
17807WAT     H153663   1.632   6.421   3.731
17807WAT     H253664   1.676   6.520   3.854
17808WAT      O53665   7.556   4.484   1.066
17808WAT     H153666   7.617   4.461   1.141
17808WAT     H253667   7.603   4.546   1.002
17809WAT      O53668   5.782   0.387   7.380
17809WAT     H153669   5.751   0.301   7.419
17809WAT     H253670   5.705   0.432   7.335
17810WAT      O53671   9.225   1.792   2.489
17810WAT     H153672   9.164   1.814   2.414
17810WAT     H253673   9.180   1.727   2.551
17811WAT      O53674   4.763   0.418   1.455
17811WAT     H153675   4.680   0.472   1.467
17811WAT     H253676   4.745   0.323   1.481
17812WAT      O53677   2.079   5.802   9.285
17812WAT     H153678   2.170   5.776   9.255
17812WAT     H253679   2.011   5.740   9.244
17813WAT      O53680   2.531   9.319   6.067
17813WAT     H153681   2.505   9.309   5.971
17813WAT     H253682   2.490   9.402   6.105
17814WAT      O53683   1.185   4.854   8.533
17814WAT     H153684   1.198   4.755   8.523
17814WAT     H253685   1.269   4.901   8.505
17815WAT      O53686   9.112   2.917   8.424
17815WAT     H153687   9.113   2.830   8.473
17815WAT     H253688   9.088   2.902   8.328
17816WAT      O53689   0.977   9.627   1.421
17816WAT     H153690   0.997   9.646   1.517
17816WAT     H253691   0.909   9.554   1.414
17817WAT      O53692   6.592   1.656   5.378
17817WAT     H153693   6.580   1.588   5.306
17817WAT     H253694   6.582   1.748   5.339
17818WAT      O53695   0.049   9.689   6.249
17818WAT     H153696  -0.007   9.744   6.310
17818WAT     H253697   0.013   9.596   6.245
17819WAT      O53698   3.594   3.637   6.647
17819WAT     H153699   3.653   3.635   6.727
17819WAT     H253700   3.516   3.697   6.665
17820WAT      O53701   0.568   9.511   1.612
17820WAT     H153702   0.549   9.418   1.645
17820WAT     H253703   0.629   9.506   1.533
17821WAT      O53704   9.410   7.528   6.677
17821WAT     H153705   9.399   7.433   6.649
17821WAT     H253706   9.505   7.543   6.705
17822WAT      O53707   4.071   2.826   8.466
17822WAT     H153708   4.036   2.740   8.430
17822WAT     H253709   4.171   2.829   8.456
17823WAT      O53710   9.856   4.834   6.559
17823WAT     H153711   9.782   4.854   6.495
17823WAT     H253712   9.823   4.771   6.630
17824WAT      O53713   0.600   0.374   7.135
17824WAT     H153714   0.695   0.358   7.164
17824WAT     H253715   0.567   0.293   7.086
17825WAT      O53716   5.592   8.035   6.797
17825WAT     H153717   5.552   8.004   6.711
17825WAT     H253718   5.690   8.018   6.797
17826WAT      O53719   0.125   9.010   4.892
17826WAT     H153720   0.196   9.067   4.850
17826WAT     H253721   0.149   8.988   4.986
17827WAT      O53722   5.814   8.415   3.268
17827WAT     H153723   5.816   8.487   3.198
17827WAT     H253724   5.902   8.366   3.267
17828WAT      O53725   6.508   4.812   1.391
17828WAT     H153726   6.585   4.861   1.431
17828WAT     H253727   6.535   4.718   1.370
17829WAT      O53728   1.766   3.738   2.773
17829WAT     H153729   1.715   3.795   2.709
17829WAT     H253730   1.826   3.676   2.722
17830WAT      O53731   7.973   5.723   1.294
17830WAT     H153732   7.978   5.627   1.318
17830WAT     H253733   8.060   5.768   1.315
17831WAT      O53734   3.146   7.607   1.340
17831WAT     H153735   3.136   7.571   1.433
17831WAT     H253736   3.215   7.554   1.291
17832WAT      O53737   4.774   4.045   4.064
17832WAT     H153738   4.867   4.029   4.098
17832WAT     H253739   4.770   4.135   4.022
17833WAT      O53740   1.920   5.926   0.024
17833WAT     H153741   2.005   5.905   0.072
17833WAT     H253742   1.886   5.843  -0.021
17834WAT      O53743   6.656   9.668   2.565
17834WAT     H153744   6.667   9.664   2.466
17834WAT     H253745   6.592   9.597   2.595
17835WAT      O53746   5.614   6.794   3.350
17835WAT     H153747   5.556   6.723   3.389
17835WAT     H253748   5.691   6.752   3.302
17836WAT      O53749   0.554   7.393   2.375
17836WAT     H153750   0.641   7.345   2.384
17836WAT     H253751   0.479   7.328   2.388
17837WAT      O53752   5.743   2.923   6.303
17837WAT     H153753   5.749   3.022   6.292
17837WAT     H253754   5.831   2.887   6.332
17838WAT      O53755   9.855   1.977   0.696
17838WAT     H153756   9.833   2.063   0.649
17838WAT     H253757   9.937   1.937   0.654
17839WAT      O53758   1.902   0.691   9.491
17839WAT     H153759   1.908   0.685   9.591
17839WAT     H253760   1.891   0.600   9.453
17840WAT      O53761   5.493   5.688   3.763
17840WAT     H153762   5.557   5.673   3.839
17840WAT     H253763   5.401   5.702   3.800
17841WAT      O53764   6.959   6.448   2.089
17841WAT     H153765   7.004   6.518   2.034
17841WAT     H253766   6.871   6.482   2.122
17842WAT      O53767   2.871   8.283   8.757
17842WAT     H153768   2.798   8.216   8.744
17842WAT     H253769   2.939   8.247   8.820
17843WAT      O53770   3.259   3.212   5.175
17843WAT     H153771   3.206   3.236   5.094
17843WAT     H253772   3.196   3.194   5.251
17844WAT      O53773   9.372   6.333   5.671
17844WAT     H153774   9.285   6.301   5.633
17844WAT     H253775   9.405   6.412   5.619
17845WAT      O53776   3.916   2.716   5.938
17845WAT     H153777   3.926   2.811   5.969
17845WAT     H253778   3.861   2.665   6.003
17846WAT      O53779   0.287   4.964   1.406
17846WAT     H153780   0.243   4.907   1.475
17846WAT     H253781   0.238   4.956   1.319
17847WAT      O53782   9.684   2.671   7.491
17847WAT     H153783   9.701   2.662   7.393
17847WAT     H253784   9.594   2.633   7.513
17848WAT      O53785   2.685   6.004   2.075
17848WAT     H153786   2.594   6.008   2.033
17848WAT     H253787   2.740   5.934   2.029
17849WAT      O53788   4.436   4.833   6.603
17849WAT     H153789   4.533   4.852   6.620
17849WAT     H253790   4.416   4.848   6.506
17850WAT      O53791   8.930   4.135   2.495
17850WAT     H153792   8.848   4.121   2.550
17850WAT     H253793   8.904   4.164   2.403
17851WAT      O53794   3.748   7.496   8.260
17851WAT     H153795   3.680   7.566   8.236
17851WAT     H253796   3.757   7.431   8.185
17852WAT      O53797   4.172   2.816   7.323
17852WAT     H153798   4.267   2.793   7.345
17852WAT     H253799   4.119   2.732   7.313
17853WAT      O53800   9.417   7.220   2.632
17853WAT     H153801   9.387   7.124   2.630
17853WAT     H253802   9.353   7.273   2.688
17854WAT      O53803   8.554   8.365   8.995
17854WAT     H153804   8.484   8.390   8.928
17854WAT     H253805   8.562   8.265   9.000
17855WAT      O53806   2.822   2.396   7.822
17855WAT     H153807   2.754   2.409   7.750
17855WAT     H253808   2.853   2.301   7.821
17856WAT      O53809   2.919   4.523   0.069
17856WAT     H153810   2.994   4.500   0.006
17856WAT     H253811   2.883   4.439   0.110
17857WAT      O53812   8.741   9.713   9.894
17857WAT     H153813   8.708   9.701   9.801
17857WAT     H253814   8.712   9.802   9.929
17858WAT      O53815   7.673   7.374   4.515
17858WAT     H153816   7.681   7.298   4.451
17858WAT     H253817   7.760   7.425   4.517
17859WAT      O53818   9.512   8.389   5.236
17859WAT     H153819   9.416   8.391   5.207
17859WAT     H253820   9.571   8.371   5.157
17860WAT      O53821   4.010   8.166   9.303
17860WAT     H153822   3.995   8.069   9.321
17860WAT     H253823   4.055   8.176   9.214
17861WAT      O53824   0.014   6.397   1.207
17861WAT     H153825   0.060   6.460   1.270
17861WAT     H253826  -0.085   6.403   1.221
17862WAT      O53827   8.066   5.428   5.576
17862WAT     H153828   8.006   5.354   5.547
17862WAT     H253829   8.111   5.468   5.495
17863WAT      O53830   7.084   4.895   4.978
17863WAT     H153831   6.990   4.861   4.984
17863WAT     H253832   7.111   4.904   4.882
17864WAT      O53833   3.488   2.779   3.777
17864WAT     H153834   3.489   2.838   3.697
17864WAT     H253835   3.576   2.788   3.826
17865WAT      O53836   8.286   1.262   8.822
17865WAT     H153837   8.291   1.211   8.736
17865WAT     H253838   8.239   1.207   8.891
17866WAT      O53839   4.158   9.347   8.897
17866WAT     H153840   4.226   9.343   8.971
17866WAT     H253841   4.115   9.437   8.896
17867WAT      O53842   6.818   1.552   4.361
17867WAT     H153843   6.884   1.516   4.427
17867WAT     H253844   6.862   1.560   4.272
17868WAT      O53845   6.993   2.668   9.509
17868WAT     H153846   6.937   2.620   9.576
17868WAT     H253847   6.943   2.675   9.423
17869WAT      O53848   2.849   7.870   6.743
17869WAT     H153849   2.864   7.952   6.688
17869WAT     H253850   2.877   7.887   6.837
17870WAT      O53851   5.518   3.557   9.037
17870WAT     H153852   5.587   3.484   9.038
17870WAT     H253853   5.561   3.643   9.010
17871WAT      O53854   9.206   6.976   4.041
17871WAT     H153855   9.168   7.038   3.973
17871WAT     H253856   9.195   6.881   4.011
17872WAT      O53857   0.325   5.904   3.227
17872WAT     H153858   0.242   5.902   3.171
17872WAT     H253859   0.405   5.891   3.169
17873WAT      O53860   9.397   8.560   4.241
17873WAT     H153861   9.482   8.512   4.260
17873WAT     H253862   9.359   8.596   4.327
17874WAT      O53863   1.145   1.412   4.329
17874WAT     H153864   1.102   1.416   4.418
17874WAT     H253865   1.100   1.476   4.267
17875WAT      O53866   4.566   3.636   1.149
17875WAT     H153867   4.610   3.725   1.162
17875WAT     H253868   4.568   3.612   1.052
17876WAT      O53869   2.699   4.554   6.486
17876WAT     H153870   2.714   4.581   6.582
17876WAT     H253871   2.621   4.605   6.450
17877WAT      O53872   6.137   9.360   8.592
17877WAT     H153873   6.144   9.429   8.520
17877WAT     H253874   6.115   9.404   8.679
17878WAT      O53875   8.712   3.252   6.049
17878WAT     H153876   8.711   3.205   6.137
17878WAT     H253877   8.801   3.295   6.036
17879WAT      O53878   3.135   7.205   1.212
17879WAT     H153879   3.084   7.203   1.126
17879WAT     H253880   3.089   7.147   1.279
17880WAT      O53881   4.362   4.920   5.954
17880WAT     H153882   4.306   4.844   5.988
17880WAT     H253883   4.417   4.888   5.876
17881WAT      O53884   0.655   0.479   6.369
17881WAT     H153885   0.664   0.565   6.320
17881WAT     H253886   0.663   0.497   6.468
17882WAT      O53887   7.023   9.684   8.814
17882WAT     H153888   6.970   9.600   8.813
17882WAT     H253889   6.990   9.745   8.742
17883WAT      O53890   6.836   0.363   2.893
17883WAT     H153891   6.797   0.456   2.895
17883WAT     H253892   6.930   0.367   2.860
17884WAT      O53893   3.145   9.569   0.309
17884WAT     H153894   3.228   9.517   0.286
17884WAT     H253895   3.078   9.560   0.235
17885WAT      O53896   4.771   0.170   1.504
17885WAT     H153897   4.747   0.081   1.464
17885WAT     H253898   4.863   0.165   1.544
17886WAT      O53899   5.490   1.993   5.179
17886WAT     H153900   5.446   2.069   5.227
17886WAT     H253901   5.588   1.994   5.196
17887WAT      O53902   7.918   0.479   8.594
17887WAT     H153903   8.009   0.441   8.580
17887WAT     H253904   7.851   0.405   8.594
17888WAT      O53905   2.167   2.034   7.426
17888WAT     H153906   2.102   2.095   7.472
17888WAT     H253907   2.143   2.027   7.329
17889WAT      O53908   3.278   0.760   0.075
17889WAT     H153909   3.216   0.739  -0.001
17889WAT     H253910   3.368   0.783   0.039
17890WAT      O53911   9.344   3.502   2.878
17890WAT     H153912   9.284   3.557   2.821
17890WAT     H253913   9.317   3.511   2.974
17891WAT      O53914   1.365   0.459   9.420
17891WAT     H153915   1.451   0.510   9.425
17891WAT     H253916   1.288   0.521   9.435
17892WAT      O53917   0.797   4.160   1.912
17892WAT     H153918   0.718   4.128   1.964
17892WAT     H253919   0.771   4.173   1.816
17893WAT      O53920   1.280   7.248   2.581
17893WAT     H153921   1.323   7.274   2.667
17893WAT     H253922   1.346   7.199   2.523
17894WAT      O53923   5.456   3.856   7.581
17894WAT     H153924   5.491   3.768   7.550
17894WAT     H253925   5.483   3.927   7.516
17895WAT      O53926   3.978   4.392   3.708
17895WAT     H153927   4.056   4.446   3.677
17895WAT     H253928   3.916   4.376   3.631
17896WAT      O53929   8.795   0.019   2.557
17896WAT     H153930   8.780  -0.077   2.580
17896WAT     H253931   8.773   0.034   2.461
17897WAT      O53932   4.423   4.536   0.470
17897WAT     H153933   4.387   4.450   0.433
17897WAT     H253934   4.447   4.597   0.395
17898WAT      O53935   5.274   1.144   7.466
17898WAT     H153936   5.216   1.186   7.535
17898WAT     H253937   5.369   1.169   7.483
17899WAT      O53938   4.858   9.141   1.533
17899WAT     H153939   4.860   9.232   1.575
17899WAT     H253940   4.884   9.073   1.601
17900WAT      O53941   6.731   6.086   4.840
17900WAT     H153942   6.670   6.114   4.915
17900WAT     H253943   6.804   6.028   4.876
17901WAT      O53944   1.210   6.235   5.976
17901WAT     H153945   1.190   6.266   5.884
17901WAT     H253946   1.126   6.234   6.031
17902WAT      O53947   3.732   1.370   6.712
17902WAT     H153948   3.721   1.296   6.779
17902WAT     H253949   3.767   1.452   6.757
17903WAT      O53950   2.428   9.214   2.912
17903WAT     H153951   2.335   9.229   2.878
17903WAT     H253952   2.467   9.134   2.867
17904WAT      O53953   6.812   6.557   7.659
17904WAT     H153954   6.715   6.569   7.639
17904WAT     H253955   6.834   6.460   7.663
17905WAT      O53956   5.738   9.107   6.719
17905WAT     H153957   5.686   9.175   6.772
17905WAT     H253958   5.730   9.128   6.621
17906WAT      O53959   9.309   4.143   7.326
17906WAT     H153960   9.224   4.119   7.279
17906WAT     H253961   9.387   4.115   7.271
17907WAT      O53962   1.235   8.122   6.578
17907WAT     H153963   1.262   8.219   6.578
17907WAT     H253964   1.197   8.098   6.489
17908WAT      O53965   1.875   5.996   0.929
17908WAT     H153966   1.920   6.054   0.861
17908WAT     H253967   1.848   6.051   1.008
17909WAT      O53968   3.373   2.248   7.004
17909WAT     H153969   3.469   2.226   7.023
17909WAT     H253970   3.315   2.173   7.034
17910WAT      O53971   8.721   4.376   5.473
17910WAT     H153972   8.669   4.315   5.414
17910WAT     H253973   8.812   4.337   5.489
17911WAT      O53974   6.484   1.343   8.178
17911WAT     H153975   6.399   1.351   8.230
17911WAT     H253976   6.537   1.428   8.189
17912WAT      O53977   5.025   3.599   2.376
17912WAT     H153978   4.940   3.602   2.324
17912WAT     H253979   5.012   3.543   2.458
17913WAT      O53980   3.877   5.320   6.452
17913WAT     H153981   3.780   5.340   6.441
17913WAT     H253982   3.914   5.376   6.526
17914WAT      O53983   6.443   7.326   4.293
17914WAT     H153984   6.522   7.384   4.312
17914WAT     H253985   6.474   7.233   4.272
17915WAT      O53986   5.105   3.847   2.488
17915WAT     H153987   5.091   3.761   2.438
17915WAT     H253988   5.028   3.908   2.472
17916WAT      O53989   3.353   1.652   2.322
17916WAT     H153990   3.444   1.692   2.339
17916WAT     H253991   3.319   1.686   2.234
17917WAT      O53992   8.431   9.010   3.604
17917WAT     H153993   8.420   9.098   3.558
17917WAT     H253994   8.468   8.943   3.539
17918WAT      O53995   9.798   3.070   0.562
17918WAT     H153996   9.776   2.977   0.593
17918WAT     H253997   9.751   3.088   0.475
17919WAT      O53998   9.087   0.371   6.321
17919WAT     H153999   9.111   0.467   6.334
17919WAT     H254000   8.995   0.355   6.356
17920WAT      O54001   6.520   9.147   6.991
17920WAT     H154002   6.479   9.236   6.967
17920WAT     H254003   6.533   9.143   7.090
17921WAT      O54004   1.533   5.498   6.585
17921WAT     H154005   1.610   5.439   6.607
17921WAT     H254006   1.451   5.465   6.633
17922WAT      O54007   3.996   8.386   2.808
17922WAT     H154008   3.985   8.462   2.872
17922WAT     H254009   4.093   8.375   2.785
17923WAT      O54010   7.935   7.130   4.668
17923WAT     H154011   7.843   7.114   4.631
17923WAT     H254012   7.997   7.060   4.633
17924WAT      O54013   9.654   9.204   1.021
17924WAT     H154014   9.626   9.287   1.068
17924WAT     H254015   9.722   9.156   1.076
17925WAT      O54016   2.605   8.469   5.211
17925WAT     H154017   2.698   8.501   5.230
17925WAT     H254018   2.593   8.378   5.249
17926WAT      O54019   1.096   6.100   9.304
17926WAT     H154020   1.023   6.125   9.241
17926WAT     H254021   1.157   6.035   9.260
17927WAT      O54022   4.437   1.619   2.708
17927WAT     H154023   4.437   1.642   2.611
17927WAT     H254024   4.529   1.590   2.735
17928WAT      O54025   9.486   8.151   9.023
17928WAT     H154026   9.455   8.107   9.107
17928WAT     H254027   9.439   8.238   9.012
17929WAT      O54028   1.761   3.038   1.298
17929WAT     H154029   1.793   3.069   1.388
17929WAT     H254030   1.702   3.109   1.258
17930WAT      O54031   1.798   2.420   8.475
17930WAT     H154032   1.759   2.403   8.566
17930WAT     H254033   1.775   2.513   8.446
17931WAT      O54034   0.260   5.576   3.256
17931WAT     H154035   0.311   5.493   3.235
17931WAT     H254036   0.309   5.656   3.221
17932WAT      O54037   5.778   4.715   6.783
17932WAT     H154038   5.805   4.652   6.710
17932WAT     H254039   5.690   4.685   6.820
17933WAT      O54040   5.078   5.714   8.210
17933WAT     H154041   5.018   5.644   8.251
17933WAT     H254042   5.130   5.673   8.135
17934WAT      O54043   8.358   8.326   3.688
17934WAT     H154044   8.388   8.371   3.771
17934WAT     H254045   8.399   8.235   3.682
17935WAT      O54046   6.052   6.673   3.939
17935WAT     H154047   6.152   6.674   3.950
17935WAT     H254048   6.025   6.589   3.891
17936WAT      O54049   2.732   4.596   7.805
17936WAT     H154050   2.787   4.517   7.831
17936WAT     H254051   2.676   4.626   7.882
17937WAT      O54052   4.846   0.518   1.101
17937WAT     H154053   4.891   0.482   1.183
17937WAT     H254054   4.916   0.549   1.036
17938WAT      O54055   2.122   4.213   5.131
17938WAT     H154056   2.082   4.220   5.039
17938WAT     H254057   2.177   4.295   5.149
17939WAT      O54058   0.691   3.491   6.045
17939WAT     H154059   0.784   3.526   6.036
17939WAT     H254060   0.684   3.403   5.998
17940WAT      O54061   0.607   7.735   4.250
17940WAT     H154062   0.533   7.769   4.309
17940WAT     H254063   0.570   7.712   4.160
17941WAT      O54064   2.164   1.768   9.019
17941WAT     H154065   2.179   1.670   9.029
17941WAT     H254066   2.223   1.818   9.082
17942WAT      O54067   8.051   9.290   9.832
17942WAT     H154068   7.986   9.245   9.892
17942WAT     H254069   8.131   9.232   9.818
17943WAT      O54070   0.895   4.883   4.743
17943WAT     H154071   0.823   4.820   4.711
17943WAT     H254072   0.875   4.975   4.710
17944WAT      O54073   7.886   5.091   6.357
17944WAT     H154074   7.856   5.171   6.306
17944WAT     H254075   7.851   5.097   6.451
17945WAT      O54076   9.627   3.736   8.448
17945WAT     H154077   9.661   3.642   8.453
17945WAT     H254078   9.685   3.789   8.387
17946WAT      O54079   6.972   9.751   7.387
17946WAT     H154080   7.062   9.756   7.345
17946WAT     H254081   6.922   9.673   7.348
17947WAT      O54082   2.258   0.063   2.855
17947WAT     H154083   2.342   0.114   2.835
17947WAT     H254084   2.227   0.085   2.947
17948WAT      O54085   5.263   7.559   9.839
17948WAT     H154086   5.347   7.588   9.887
17948WAT     H254087   5.193   7.535   9.907
17949WAT      O54088   5.523   1.418   6.577
17949WAT     H154089   5.585   1.352   6.534
17949WAT     H254090   5.451   1.443   6.511
17950WAT      O54091   2.807   5.807   3.871
17950WAT     H154092   2.851   5.791   3.960
17950WAT     H254093   2.814   5.724   3.815
17951WAT      O54094   5.180   1.875   7.730
17951WAT     H154095   5.112   1.847   7.662
17951WAT     H254096   5.264   1.822   7.716
17952WAT      O54097   3.843   7.333   5.622
17952WAT     H154098   3.748   7.354   5.599
17952WAT     H254099   3.883   7.278   5.549
17953WAT      O54100   8.960   6.366   7.680
17953WAT     H154101   8.973   6.453   7.633
17953WAT     H254102   8.971   6.291   7.614
17954WAT      O54103   5.113   6.483   6.312
17954WAT     H154104   5.173   6.490   6.391
17954WAT     H254105   5.018   6.500   6.340
17955WAT      O54106   0.335   3.044   1.006
17955WAT     H154107   0.256   2.983   1.001
17955WAT     H254108   0.392   3.019   1.084
17956WAT      O54109   4.190   1.398   3.711
17956WAT     H154110   4.287   1.374   3.719
17956WAT     H254111   4.181   1.481   3.655
17957WAT      O54112   7.631   9.376   0.526
17957WAT     H154113   7.678   9.306   0.471
17957WAT     H254114   7.544   9.399   0.482
17958WAT      O54115   3.195   6.089   1.914
17958WAT     H154116   3.158   6.048   1.831
17958WAT     H254117   3.129   6.155   1.951
17959WAT      O54118   0.036   7.148   7.636
17959WAT     H154119   0.112   7.103   7.589
17959WAT     H254120   0.027   7.110   7.728
17960WAT      O54121   0.912   6.673   1.428
17960WAT     H154122   0.907   6.626   1.340
17960WAT     H254123   0.953   6.612   1.496
17961WAT      O54124   5.827   6.709   2.871
17961WAT     H154125   5.777   6.795   2.865
17961WAT     H254126   5.890   6.701   2.793
17962WAT      O54127   8.552   3.763   4.787
17962WAT     H154128   8.525   3.817   4.867
17962WAT     H254129   8.548   3.666   4.809
17963WAT      O54130   8.030   5.374   2.932
17963WAT     H154131   7.956   5.441   2.940
17963WAT     H254132   8.002   5.302   2.869
17964WAT      O54133   7.673   3.622   9.789
17964WAT     H154134   7.708   3.682   9.717
17964WAT     H254135   7.576   3.639   9.803
17965WAT      O54136   4.321   8.795   6.275
17965WAT     H154137   4.405   8.766   6.321
17965WAT     H254138   4.338   8.804   6.177
17966WAT      O54139   7.798   6.420   7.376
17966WAT     H154140   7.750   6.482   7.439
17966WAT     H254141   7.861   6.473   7.319
17967WAT      O54142   1.910   4.973   1.855
17967WAT     H154143   1.875   4.936   1.941
17967WAT     H254144   1.844   4.955   1.782
17968WAT      O54145   1.459   0.403   7.093
17968WAT     H154146   1.438   0.314   7.134
17968WAT     H254147   1.538   0.443   7.139
17969WAT      O54148   0.130   6.157   1.109
17969WAT     H154149   0.078   6.231   1.154
17969WAT     H254150   0.222   6.152   1.149
17970WAT      O54151   3.889   6.200   6.628
17970WAT     H154152   3.793   6.172   6.623
17970WAT     H254153   3.918   6.205   6.723
17971WAT      O54154   1.301   4.490   5.734
17971WAT     H154155   1.238   4.497   5.656
17971WAT     H254156   1.253   4.516   5.818
17972WAT      O54157   5.671   0.760   5.880
17972WAT     H154158   5.707   0.735   5.791
17972WAT     H254159   5.739   0.738   5.951
17973WAT      O54160   4.354   4.872   2.758
17973WAT     H154161   4.310   4.783   2.770
17973WAT     H254162   4.437   4.861   2.704
17974WAT      O54163   2.292   3.076   5.197
17974WAT     H154164   2.303   2.989   5.149
17974WAT     H254165   2.202   3.115   5.177
17975WAT      O54166   4.903   9.412   5.842
17975WAT     H154167   4.880   9.484   5.777
17975WAT     H254168   4.961   9.449   5.915
17976WAT      O54169   4.520   6.204   9.791
17976WAT     H154170   4.573   6.124   9.764
17976WAT     H254171   4.570   6.255   9.861
17977WAT      O54172   9.623   1.081   1.860
17977WAT     H154173   9.626   1.048   1.955
17977WAT     H254174   9.530   1.077   1.826
17978WAT      O54175   0.458   1.495   9.702
17978WAT     H154176   0.502   1.555   9.635
17978WAT     H254177   0.403   1.550   9.765
17979WAT      O54178   6.158   6.317   3.228
17979WAT     H154179   6.143   6.297   3.325
17979WAT     H254180   6.166   6.416   3.215
17980WAT      O54181   0.588   1.546   5.560
17980WAT     H154182   0.650   1.477   5.522
17980WAT     H254183   0.611   1.636   5.522
17981WAT      O54184   9.039   8.793   3.455
17981WAT     H154185   9.124   8.742   3.472
17981WAT     H254186   9.001   8.824   3.542
17982WAT      O54187   3.399   9.688   4.872
17982WAT     H154188   3.467   9.693   4.799
17982WAT     H254189   3.317   9.641   4.839
17983WAT      O54190   2.168   2.174   6.755
17983WAT     H154191   2.103   2.168   6.831
17983WAT     H254192   2.118   2.179   6.669
17984WAT      O54193   7.143   0.916   7.338
17984WAT     H154194   7.127   0.876   7.248
17984WAT     H254195   7.193   1.002   7.327
17985WAT      O54196   3.807   3.585   7.682
17985WAT     H154197   3.802   3.652   7.608
17985WAT     H254198   3.745   3.510   7.664
17986WAT      O54199   9.810   3.154   5.061
17986WAT     H154200   9.839   3.099   5.139
17986WAT     H254201   9.863   3.128   4.980
17987WAT      O54202   4.902   3.664   6.788
17987WAT     H154203   4.915   3.705   6.878
17987WAT     H254204   4.838   3.720   6.735
17988WAT      O54205   6.121   5.763   0.458
17988WAT     H154206   6.114   5.745   0.556
17988WAT     H254207   6.180   5.695   0.415
17989WAT      O54208   8.276   5.597   1.940
17989WAT     H154209   8.285   5.619   2.037
17989WAT     H254210   8.346   5.529   1.915
17990WAT      O54211   9.717   1.270   3.960
17990WAT     H154212   9.666   1.353   3.980
17990WAT     H254213   9.813   1.283   3.985
17991WAT      O54214   8.103   3.009   6.684
17991WAT     H154215   8.147   2.935   6.633
17991WAT     H254216   8.109   2.989   6.782
17992WAT      O54217   9.157   8.713   2.324
17992WAT     H154218   9.221   8.706   2.400
17992WAT     H254219   9.067   8.741   2.358
17993WAT      O54220   1.144   8.403   3.016
17993WAT     H154221   1.045   8.412   3.015
17993WAT     H254222   1.177   8.381   2.924
17994WAT      O54223   1.489   6.137   5.526
17994WAT     H154224   1.428   6.066   5.562
17994WAT     H254225   1.495   6.212   5.592
17995WAT      O54226   3.167   5.181   2.402
17995WAT     H154227   3.184   5.266   2.452
17995WAT     H254228   3.159   5.200   2.304
17996WAT      O54229   0.594   2.625   9.838
17996WAT     H154230   0.534   2.679   9.779
17996WAT     H254231   0.555   2.621   9.930
17997WAT      O54232   4.626   9.055   2.714
17997WAT     H154233   4.590   9.148   2.721
17997WAT     H254234   4.594   9.013   2.629
17998WAT      O54235   8.090   5.905   0.179
17998WAT     H154236   8.053   5.816   0.154
17998WAT     H254237   8.052   5.976   0.120
17999WAT      O54238   6.789   1.644   2.216
17999WAT     H154239   6.763   1.560   2.265
17999WAT     H254240   6.738   1.648   2.130
18000WAT      O54241   9.396   9.053   2.915
18000WAT     H154242   9.299   9.059   2.938
18000WAT     H254243   9.407   9.065   2.816
18001WAT      O54244   3.237   0.958   8.538
18001WAT     H154245   3.197   0.870   8.563
18001WAT     H254246   3.290   0.994   8.615
18002WAT      O54247   1.409   2.905   1.030
18002WAT     H154248   1.470   2.866   0.961
18002WAT     H254249   1.360   2.983   0.992
18003WAT      O54250   8.882   8.153   0.249
18003WAT     H154251   8.812   8.215   0.285
18003WAT     H254252   8.838   8.070   0.216
18004WAT      O54253   2.533   3.064   9.772
18004WAT     H154254   2.561   3.067   9.868
18004WAT     H254255   2.552   2.974   9.734
18005WAT      O54256   6.467   3.894   4.942
18005WAT     H154257   6.531   3.930   4.875
18005WAT     H254258   6.499   3.916   5.034
18006WAT      O54259   2.399   8.358   7.388
18006WAT     H154260   2.424   8.424   7.458
18006WAT     H254261   2.466   8.284   7.385
18007WAT      O54262   6.927   3.589   7.700
18007WAT     H154263   7.003   3.554   7.645
18007WAT     H254264   6.859   3.632   7.640
18008WAT      O54265   8.416   6.479   1.639
18008WAT     H154266   8.353   6.478   1.561
18008WAT     H254267   8.461   6.567   1.644
18009WAT      O54268   8.566   8.793   2.390
18009WAT     H154269   8.583   8.863   2.460
18009WAT     H254270   8.611   8.708   2.417
18010WAT      O54271   4.776   1.861   2.711
18010WAT     H154272   4.771   1.907   2.800
18010WAT     H254273   4.740   1.921   2.640
18011WAT      O54274   8.638   3.830   8.010
18011WAT     H154275   8.601   3.762   7.947
18011WAT     H254276   8.734   3.810   8.029
18012WAT      O54277   2.914   0.476   1.377
18012WAT     H154278   2.960   0.439   1.295
18012WAT     H254279   2.849   0.409   1.412
18013WAT      O54280   4.645   7.797   9.198
18013WAT     H154281   4.709   7.832   9.130
18013WAT     H254282   4.652   7.852   9.282
18014WAT      O54283   4.994   7.192   4.970
18014WAT     H154284   5.035   7.195   5.061
18014WAT     H254285   4.950   7.280   4.950
18015WAT      O54286   0.313   0.777   5.072
18015WAT     H154287   0.250   0.827   5.012
18015WAT     H254288   0.393   0.748   5.019
18016WAT      O54289   4.750   3.064   0.857
18016WAT     H154290   4.789   3.022   0.939
18016WAT     H254291   4.752   2.999   0.781
18017WAT      O54292   4.697   1.608   2.779
18017WAT     H154293   4.782   1.579   2.824
18017WAT     H254294   4.703   1.706   2.758
18018WAT      O54295   7.534   3.882   3.775
18018WAT     H154296   7.505   3.899   3.681
18018WAT     H254297   7.478   3.936   3.838
18019WAT      O54298   0.895   5.011   7.445
18019WAT     H154299   0.918   5.101   7.480
18019WAT     H254300   0.979   4.961   7.424
18020WAT      O54301   5.711   0.397   4.579
18020WAT     H154302   5.789   0.335   4.585
18020WAT     H254303   5.630   0.352   4.618
18021WAT      O54304   3.093   7.796   1.137
18021WAT     H154305   3.113   7.893   1.151
18021WAT     H254306   3.124   7.744   1.217
18022WAT      O54307   7.144   0.132   8.228
18022WAT     H154308   7.125   0.037   8.203
18022WAT     H254309   7.059   0.185   8.230
18023WAT      O54310   9.305   7.321   4.807
18023WAT     H154311   9.255   7.305   4.722
18023WAT     H254312   9.240   7.336   4.882
18024WAT      O54313   9.527   6.370   1.712
18024WAT     H154314   9.587   6.430   1.765
18024WAT     H254315   9.525   6.400   1.617
18025WAT      O54316   6.149   8.120   2.775
18025WAT     H154317   6.192   8.185   2.712
18025WAT     H254318   6.201   8.117   2.860
18026WAT      O54319   1.061   2.216   9.578
18026WAT     H154320   1.074   2.315   9.577
18026WAT     H254321   1.033   2.186   9.669
18027WAT      O54322   5.622   2.530   0.255
18027WAT     H154323   5.583   2.592   0.324
18027WAT     H254324   5.714   2.561   0.231
18028WAT      O54325   2.056   9.012   2.940
18028WAT     H154326   2.087   8.989   2.848
18028WAT     H254327   2.100   8.952   3.006
18029WAT      O54328   8.821   5.285   0.265
18029WAT     H154329   8.740   5.329   0.226
18029WAT     H254330   8.793   5.212   0.327
18030WAT      O54331   7.026   2.747   1.655
18030WAT     H154332   7.081   2.747   1.738
18030WAT     H254333   6.972   2.831   1.650
18031WAT      O54334   3.152   0.266   9.809
18031WAT     H154335   3.058   0.289   9.832
18031WAT     H254336   3.167   0.279   9.711
18032WAT      O54337   3.514   3.846   8.776
18032WAT     H154338   3.415   3.830   8.770
18032WAT     H254339   3.556   3.828   8.686
18033WAT      O54340   0.858   1.012   7.532
18033WAT     H154341   0.800   1.076   7.583
18033WAT     H254342   0.953   1.044   7.533
18034WAT      O54343   0.425   8.557   8.129
18034WAT     H154344   0.326   8.549   8.141
18034WAT     H254345   0.458   8.478   8.078
18035WAT      O54346   9.612   3.923   9.421
18035WAT     H154347   9.691   3.907   9.480
18035WAT     H254348   9.636   3.898   9.327
18036WAT      O54349   3.329   3.683   6.724
18036WAT     H154350   3.307   3.778   6.701
18036WAT     H254351   3.246   3.628   6.721
18037WAT      O54352   4.342   2.374   4.584
18037WAT     H154353   4.389   2.385   4.672
18037WAT     H254354   4.282   2.294   4.588
18038WAT      O54355   8.218   4.208   4.587
18038WAT     H154356   8.224   4.295   4.635
18038WAT     H254357   8.310   4.179   4.558
18039WAT      O54358   3.151   4.933   7.480
18039WAT     H154359   3.091   5.004   7.518
18039WAT     H254360   3.243   4.944   7.517
18040WAT      O54361   2.489   0.233   2.845
18040WAT     H154362   2.458   0.281   2.763
18040WAT     H254363   2.520   0.300   2.912
18041WAT      O54364   5.706   3.465   0.079
18041WAT     H154365   5.680   3.459   0.175
18041WAT     H254366   5.802   3.494   0.073
18042WAT      O54367   9.541   4.873   3.228
18042WAT     H154368   9.510   4.843   3.318
18042WAT     H254369   9.469   4.855   3.160
18043WAT      O54370   6.134   1.996   3.430
18043WAT     H154371   6.092   1.920   3.381
18043WAT     H254372   6.168   1.964   3.518
18044WAT      O54373   7.309   1.454   7.693
18044WAT     H154374   7.250   1.464   7.613
18044WAT     H254375   7.404   1.443   7.663
18045WAT      O54376   1.084   7.571   2.678
18045WAT     H154377   1.002   7.514   2.681
18045WAT     H254378   1.058   7.664   2.652
18046WAT      O54379   9.008   4.243   2.731
18046WAT     H154380   8.993   4.177   2.658
18046WAT     H254381   9.011   4.335   2.692
18047WAT      O54382   0.191   3.999   5.564
18047WAT     H154383   0.146   4.083   5.595
18047WAT     H254384   0.286   3.998   5.593
18048WAT      O54385   4.825   3.657   5.211
18048WAT     H154386   4.732   3.693   5.204
18048WAT     H254387   4.842   3.623   5.304
18049WAT      O54388   0.930   3.113   2.313
18049WAT     H154389   0.849   3.070   2.273
18049WAT     H254390   0.907   3.150   2.403
18050WAT      O54391   3.812   4.058   3.849
18050WAT     H154392   3.750   4.051   3.771
18050WAT     H254393   3.823   3.969   3.892
18051WAT      O54394   3.427   0.676   7.378
18051WAT     H154395   3.404   0.720   7.292
18051WAT     H254396   3.391   0.730   7.454
18052WAT      O54397   4.581   9.750   4.306
18052WAT     H154398   4.603   9.734   4.210
18052WAT     H254399   4.566   9.662   4.351
18053WAT      O54400   9.064   6.539   7.181
18053WAT     H154401   8.971   6.516   7.209
18053WAT     H254402   9.095   6.619   7.232
18054WAT      O54403   2.824   6.184   2.226
18054WAT     H154404   2.807   6.162   2.322
18054WAT     H254405   2.755   6.141   2.169
18055WAT      O54406   2.941   0.125   3.318
18055WAT     H154407   2.887   0.193   3.367
18055WAT     H254408   3.028   0.165   3.290
18056WAT      O54409   6.955   8.126   6.799
18056WAT     H154410   6.984   8.054   6.862
18056WAT     H254411   6.919   8.204   6.850
18057WAT      O54412   8.924   0.261   0.918
18057WAT     H154413   8.899   0.165   0.912
18057WAT     H254414   8.856   0.309   0.975
18058WAT      O54415   1.992   5.410   2.783
18058WAT     H154416   1.901   5.447   2.766
18058WAT     H254417   2.050   5.423   2.702
18059WAT      O54418   9.446   9.358   2.534
18059WAT     H154419   9.410   9.369   2.626
18059WAT     H254420   9.370   9.338   2.471
18060WAT      O54421   4.250   6.119   9.786
18060WAT     H154422   4.335   6.164   9.812
18060WAT     H254423   4.239   6.122   9.687
18061WAT      O54424   1.055   5.152   6.793
18061WAT     H154425   1.002   5.236   6.803
18061WAT     H254426   1.020   5.083   6.856
18062WAT      O54427   8.087   3.017   3.664
18062WAT     H154428   7.992   3.039   3.686
18062WAT     H254429   8.090   2.934   3.609
18063WAT      O54430   4.990   9.319   4.267
18063WAT     H154431   5.063   9.333   4.333
18063WAT     H254432   4.942   9.405   4.251
18064WAT      O54433   0.842   5.483   0.130
18064WAT     H154434   0.806   5.575   0.144
18064WAT     H254435   0.820   5.452   0.037
18065WAT      O54436   2.284   8.949   0.558
18065WAT     H154437   2.186   8.959   0.578
18065WAT     H254438   2.337   8.964   0.641
18066WAT      O54439   0.754   5.752   9.258
18066WAT     H154440   0.721   5.663   9.290
18066WAT     H254441   0.851   5.744   9.234
18067WAT      O54442   5.759   4.975   5.778
18067WAT     H154443   5.791   4.881   5.770
18067WAT     H254444   5.665   4.976   5.813
18068WAT      O54445   8.432   9.320   7.524
18068WAT     H154446   8.448   9.419   7.528
18068WAT     H254447   8.392   9.297   7.436
18069WAT      O54448   9.102   4.580   9.350
18069WAT     H154449   9.114   4.596   9.252
18069WAT     H254450   9.029   4.638   9.385
18070WAT      O54451   8.314   6.724   3.030
18070WAT     H154452   8.356   6.745   2.942
18070WAT     H254453   8.383   6.732   3.102
18071WAT      O54454   3.804   2.235   4.804
18071WAT     H154455   3.739   2.186   4.745
18071WAT     H254456   3.792   2.333   4.793
18072WAT      O54457   6.612   3.815   2.537
18072WAT     H154458   6.537   3.870   2.574
18072WAT     H254459   6.605   3.810   2.438
18073WAT      O54460   6.318   0.934   3.328
18073WAT     H154461   6.218   0.934   3.330
18073WAT     H254462   6.352   0.899   3.415
18074WAT      O54463   0.894   2.600   5.153
18074WAT     H154464   0.872   2.673   5.088
18074WAT     H254465   0.938   2.525   5.104
18075WAT      O54466   2.697   8.067   9.355
18075WAT     H154467   2.634   8.123   9.302
18075WAT     H254468   2.790   8.081   9.323
18076WAT      O54469   0.238   4.379   1.601
18076WAT     H154470   0.192   4.290   1.600
18076WAT     H254471   0.231   4.419   1.692
18077WAT      O54472   9.233   4.368   2.047
18077WAT     H154473   9.159   4.430   2.022
18077WAT     H254474   9.321   4.416   2.038
18078WAT      O54475   7.437   4.633   5.564
18078WAT     H154476   7.350   4.643   5.515
18078WAT     H254477   7.512   4.661   5.504
18079WAT      O54478   4.924   6.504   0.140
18079WAT     H154479   4.869   6.443   0.196
18079WAT     H254480   4.923   6.596   0.180
18080WAT      O54481   3.937   3.605   3.049
18080WAT     H154482   3.910   3.511   3.030
18080WAT     H254483   3.929   3.623   3.147
18081WAT      O54484   7.325   8.088   1.179
18081WAT     H154485   7.322   8.188   1.172
18081WAT     H254486   7.399   8.054   1.120
18082WAT      O54487   6.121   1.209   2.488
18082WAT     H154488   6.021   1.212   2.486
18082WAT     H254489   6.157   1.302   2.480
18083WAT      O54490   4.237   6.016   7.647
18083WAT     H154491   4.255   5.939   7.586
18083WAT     H254492   4.288   6.004   7.732
18084WAT      O54493   1.493   6.643   3.310
18084WAT     H154494   1.583   6.639   3.354
18084WAT     H254495   1.479   6.735   3.273
18085WAT      O54496   3.019   0.516   8.764
18085WAT     H154497   2.957   0.540   8.838
18085WAT     H254498   3.016   0.418   8.747
18086WAT      O54499   7.105   4.660   8.789
18086WAT     H154500   7.155   4.722   8.728
18086WAT     H254501   7.031   4.711   8.833
18087WAT      O54502   0.497   4.402   4.388
18087WAT     H154503   0.437   4.481   4.380
18087WAT     H254504   0.443   4.318   4.392
18088WAT      O54505   4.919   1.330   5.669
18088WAT     H154506   4.916   1.420   5.624
18088WAT     H254507   4.998   1.326   5.730
18089WAT      O54508   9.146   0.796   2.311
18089WAT     H154509   9.116   0.731   2.241
18089WAT     H254510   9.246   0.794   2.317
18090WAT      O54511   2.468   6.622   9.510
18090WAT     H154512   2.475   6.545   9.446
18090WAT     H254513   2.380   6.668   9.497
18091WAT      O54514   4.959   5.309   0.298
18091WAT     H154515   4.881   5.247   0.295
18091WAT     H254516   4.927   5.403   0.304
18092WAT      O54517   2.110   9.599   1.384
18092WAT     H154518   2.202   9.572   1.356
18092WAT     H254519   2.113   9.688   1.429
18093WAT      O54520   6.748   8.754   0.333
18093WAT     H154521   6.714   8.671   0.378
18093WAT     H254522   6.709   8.759   0.241
18094WAT      O54523   6.299   6.030   6.924
18094WAT     H154524   6.251   5.944   6.938
18094WAT     H254525   6.390   6.025   6.964
18095WAT      O54526   7.226   4.355   0.503
18095WAT     H154527   7.157   4.289   0.474
18095WAT     H254528   7.181   4.435   0.542
18096WAT      O54529   2.816   1.393   3.966
18096WAT     H154530   2.789   1.489   3.956
18096WAT     H254531   2.735   1.336   3.975
18097WAT      O54532   9.074   2.318   5.766
18097WAT     H154533   9.034   2.395   5.817
18097WAT     H254534   9.104   2.349   5.676
18098WAT      O54535   5.239   2.863   2.551
18098WAT     H154536   5.221   2.958   2.528
18098WAT     H254537   5.335   2.853   2.578
18099WAT      O54538   4.248   4.206   7.805
18099WAT     H154539   4.246   4.171   7.711
18099WAT     H254540   4.174   4.272   7.818
18100WAT      O54541   6.091   7.404   0.311
18100WAT     H154542   6.099   7.468   0.387
18100WAT     H254543   6.009   7.426   0.258
18101WAT      O54544   6.663   1.567   8.129
18101WAT     H154545   6.762   1.557   8.124
18101WAT     H254546   6.627   1.589   8.039
18102WAT      O54547   5.226   7.375   4.835
18102WAT     H154548   5.162   7.418   4.899
18102WAT     H254549   5.196   7.392   4.741
18103WAT      O54550   8.830   0.429   4.116
18103WAT     H154551   8.761   0.470   4.176
18103WAT     H254552   8.832   0.330   4.129
18104WAT      O54553   5.446   8.209   8.642
18104WAT     H154554   5.473   8.210   8.738
18104WAT     H254555   5.413   8.118   8.617
18105WAT      O54556   6.877   1.240   5.386
18105WAT     H154557   6.899   1.330   5.350
18105WAT     H254558   6.800   1.201   5.334
18106WAT      O54559   2.204   6.320   8.557
18106WAT     H154560   2.116   6.310   8.510
18106WAT     H254561   2.270   6.256   8.517
18107WAT      O54562   2.581   5.032   4.870
18107WAT     H154563   2.576   4.977   4.786
18107WAT     H254564   2.580   4.971   4.949
18108WAT      O54565   9.646   2.444   7.705
18108WAT     H154566   9.575   2.514   7.704
18108WAT     H254567   9.603   2.353   7.710
18109WAT      O54568   0.094   0.457   2.629
18109WAT     H154569   0.176   0.504   2.595
18109WAT     H254570   0.021   0.465   2.561
18110WAT      O54571   2.174   2.562   7.084
18110WAT     H154572   2.263   2.580   7.043
18110WAT     H254573   2.103   2.573   7.015
18111WAT      O54574   1.660   2.359   3.717
18111WAT     H154575   1.600   2.320   3.786
18111WAT     H254576   1.743   2.393   3.760
18112WAT      O54577   1.332   7.793   6.874
18112WAT     H154578   1.303   7.748   6.959
18112WAT     H254579   1.286   7.751   6.796
18113WAT      O54580   6.358   0.843   9.538
18113WAT     H154581   6.358   0.920   9.602
18113WAT     H254582   6.314   0.870   9.452
18114WAT      O54583   6.786   1.714   1.920
18114WAT     H154584   6.881   1.730   1.949
18114WAT     H254585   6.784   1.637   1.856
18115WAT      O54586   6.495   3.789   9.427
18115WAT     H154587   6.549   3.830   9.353
18115WAT     H254588   6.403   3.770   9.393
18116WAT      O54589   8.821   4.785   6.956
18116WAT     H154590   8.833   4.884   6.963
18116WAT     H254591   8.855   4.754   6.867
18117WAT      O54592   6.139   1.069   5.318
18117WAT     H154593   6.082   1.066   5.237
18117WAT     H254594   6.196   0.987   5.323
18118WAT      O54595   4.433   8.439   9.020
18118WAT     H154596   4.485   8.395   9.093
18118WAT     H254597   4.482   8.520   8.988
18119WAT      O54598   5.323   9.255   2.952
18119WAT     H154599   5.251   9.290   3.011
18119WAT     H254600   5.354   9.327   2.890
18120WAT      O54601   6.623   3.368   5.686
18120WAT     H154602   6.572   3.349   5.770
18120WAT     H254603   6.575   3.326   5.609
18121WAT      O54604   0.605   3.618   9.497
18121WAT     H154605   0.672   3.684   9.463
18121WAT     H254606   0.652   3.548   9.552
18122WAT      O54607   1.790   2.882   8.173
18122WAT     H154608   1.846   2.891   8.091
18122WAT     H254609   1.759   2.787   8.182
18123WAT      O54610   5.066   8.717   3.223
18123WAT     H154611   5.117   8.729   3.309
18123WAT     H254612   5.064   8.620   3.199
18124WAT      O54613   4.801   5.045   4.273
18124WAT     H154614   4.790   5.100   4.190
18124WAT     H254615   4.888   4.996   4.269
18125WAT      O54616   0.304   5.405   7.957
18125WAT     H154617   0.388   5.458   7.945
18125WAT     H254618   0.247   5.413   7.876
18126WAT      O54619   3.109   0.221   1.450
18126WAT     H154620   3.139   0.312   1.477
18126WAT     H254621   3.019   0.227   1.407
18127WAT      O54622   7.351   8.623   0.199
18127WAT     H154623   7.304   8.667   0.276
18127WAT     H254624   7.289   8.557   0.156
18128WAT      O54625   1.897   2.361   5.715
18128WAT     H154626   1.814   2.329   5.670
18128WAT     H254627   1.930   2.291   5.779
18129WAT      O54628   7.844   2.951   3.327
18129WAT     H154629   7.931   2.902   3.318
18129WAT     H254630   7.858   3.048   3.307
18130WAT      O54631   9.335   1.142   9.510
18130WAT     H154632   9.417   1.146   9.568
18130WAT     H254633   9.363   1.126   9.415
18131WAT      O54634   6.332   1.759   8.465
18131WAT     H154635   6.409   1.719   8.415
18131WAT     H254636   6.348   1.857   8.479
18132WAT      O54637   6.431   4.101   4.599
18132WAT     H154638   6.397   4.155   4.676
18132WAT     H254639   6.518   4.058   4.623
18133WAT      O54640   8.211   2.518   9.872
18133WAT     H154641   8.283   2.512   9.941
18133WAT     H254642   8.252   2.518   9.781
18134WAT      O54643   9.009   1.473   0.049
18134WAT     H154644   8.969   1.456   0.139
18134WAT     H254645   8.997   1.393  -0.009
18135WAT      O54646   0.252   5.530   4.477
18135WAT     H154647   0.174   5.486   4.521
18135WAT     H254648   0.220   5.605   4.419
18136WAT      O54649   4.376   6.333   3.019
18136WAT     H154650   4.334   6.370   3.102
18136WAT     H254651   4.424   6.248   3.040
18137WAT      O54652   3.176   6.082   6.426
18137WAT     H154653   3.097   6.050   6.478
18137WAT     H254654   3.166   6.053   6.331
18138WAT      O54655   2.647   1.750   5.090
18138WAT     H154656   2.562   1.802   5.105
18138WAT     H254657   2.704   1.799   5.024
18139WAT      O54658   6.246   1.663   3.909
18139WAT     H154659   6.277   1.716   3.988
18139WAT     H254660   6.325   1.631   3.858
18140WAT      O54661   7.793   9.150   3.142
18140WAT     H154662   7.712   9.209   3.136
18140WAT     H254663   7.874   9.202   3.114
18141WAT      O54664   1.900   9.307   8.882
18141WAT     H154665   1.892   9.218   8.926
18141WAT     H254666   1.945   9.297   8.793
18142WAT      O54667   4.222   2.283   2.587
18142WAT     H154668   4.314   2.275   2.549
18142WAT     H254669   4.211   2.219   2.663
18143WAT      O54670   3.215   9.746   6.931
18143WAT     H154671   3.270   9.770   6.851
18143WAT     H254672   3.274   9.712   7.004
18144WAT      O54673   8.683   6.868   2.749
18144WAT     H154674   8.724   6.957   2.766
18144WAT     H254675   8.751   6.807   2.709
18145WAT      O54676   8.763   7.757   8.103
18145WAT     H154677   8.687   7.778   8.042
18145WAT     H254678   8.764   7.659   8.124
18146WAT      O54679   1.929   0.307   0.822
18146WAT     H154680   1.850   0.250   0.843
18146WAT     H254681   1.938   0.379   0.890
18147WAT      O54682   4.041   8.268   6.258
18147WAT     H154683   4.120   8.270   6.319
18147WAT     H254684   4.027   8.175   6.225
18148WAT      O54685   9.829   2.780   0.867
18148WAT     H154686   9.801   2.820   0.779
18148WAT     H254687   9.768   2.813   0.939
18149WAT      O54688   5.926   6.736   0.741
18149WAT     H154689   5.874   6.769   0.662
18149WAT     H254690   5.959   6.644   0.723
18150WAT      O54691   7.449   6.517   0.569
18150WAT     H154692   7.484   6.449   0.633
18150WAT     H254693   7.477   6.609   0.600
18151WAT      O54694   7.116   0.159   9.608
18151WAT     H154695   7.140   0.241   9.558
18151WAT     H254696   7.020   0.164   9.636
18152WAT      O54697   7.906   4.283   0.429
18152WAT     H154698   7.819   4.242   0.456
18152WAT     H254699   7.904   4.307   0.332
18153WAT      O54700   2.787   8.731   7.406
18153WAT     H154701   2.739   8.750   7.321
18153WAT     H254702   2.725   8.682   7.468
18154WAT      O54703   7.914   0.695   0.622
18154WAT     H154704   7.898   0.767   0.690
18154WAT     H254705   7.832   0.684   0.565
18155WAT      O54706   1.918   6.839   9.708
18155WAT     H154707   1.905   6.751   9.663
18155WAT     H254708   1.894   6.831   9.805
18156WAT      O54709   4.939   4.148   6.626
18156WAT     H154710   5.017   4.091   6.604
18156WAT     H254711   4.971   4.240   6.651
18157WAT      O54712   9.293   6.681   8.930
18157WAT     H154713   9.338   6.771   8.938
18157WAT     H254714   9.321   6.638   8.845
18158WAT      O54715   1.574   5.740   3.346
18158WAT     H154716   1.591   5.673   3.274
18158WAT     H254717   1.517   5.698   3.417
18159WAT      O54718   1.732   9.519   7.206
18159WAT     H154719   1.762   9.460   7.281
18159WAT     H254720   1.749   9.615   7.230
18160WAT      O54721   0.815   2.442   0.516
18160WAT     H154722   0.905   2.486   0.510
18160WAT     H254723   0.772   2.465   0.603
18161WAT      O54724   0.126   2.273   7.131
18161WAT     H154725   0.060   2.308   7.198
18161WAT     H254726   0.144   2.344   7.063
18162WAT      O54727   3.265   1.763   4.312
18162WAT     H154728   3.287   1.675   4.270
18162WAT     H254729   3.268   1.753   4.412
18163WAT      O54730   8.878   5.414   7.121
18163WAT     H154731   8.811   5.395   7.192
18163WAT     H254732   8.912   5.507   7.130
18164WAT      O54733   1.811   1.629   6.157
18164WAT     H154734   1.871   1.550   6.169
18164WAT     H254735   1.815   1.659   6.062
18165WAT      O54736   0.623   9.355   4.741
18165WAT     H154737   0.577   9.384   4.657
18165WAT     H254738   0.607   9.258   4.756
18166WAT      O54739   7.854   3.982   1.990
18166WAT     H154740   7.898   4.005   2.076
18166WAT     H254741   7.911   4.013   1.914
18167WAT      O54742   0.171   3.064   4.609
18167WAT     H154743   0.232   2.986   4.617
18167WAT     H254744   0.212   3.144   4.654
18168WAT      O54745   6.199   9.674   5.122
18168WAT     H154746   6.193   9.574   5.125
18168WAT     H254747   6.136   9.710   5.054
18169WAT      O54748   5.525   9.810   6.950
18169WAT     H154749   5.497   9.857   7.034
18169WAT     H254750   5.455   9.822   6.880
18170WAT      O54751   8.462   7.344   4.149
18170WAT     H154752   8.449   7.246   4.166
18170WAT     H254753   8.486   7.359   4.053
18171WAT      O54754   4.103   1.966   8.596
18171WAT     H154755   4.048   1.962   8.513
18171WAT     H254756   4.073   1.895   8.659
18172WAT      O54757   6.334   6.001   4.987
18172WAT     H154758   6.317   6.042   4.897
18172WAT     H254759   6.258   5.941   5.010
18173WAT      O54760   7.737   3.258   6.757
18173WAT     H154761   7.657   3.309   6.786
18173WAT     H254762   7.817   3.319   6.755
18174WAT      O54763   6.499   2.591   4.510
18174WAT     H154764   6.562   2.613   4.585
18174WAT     H254765   6.406   2.614   4.536
18175WAT      O54766   5.126   4.139   7.173
18175WAT     H154767   5.127   4.125   7.074
18175WAT     H254768   5.086   4.059   7.218
18176WAT      O54769   7.889   1.927   7.369
18176WAT     H154770   7.910   1.952   7.274
18176WAT     H254771   7.794   1.952   7.389
18177WAT      O54772   3.709   5.068   2.570
18177WAT     H154773   3.670   5.125   2.642
18177WAT     H254774   3.791   5.023   2.604
18178WAT      O54775   7.667   9.528   7.499
18178WAT     H154776   7.615   9.564   7.577
18178WAT     H254777   7.605   9.516   7.421
18179WAT      O54778   7.893   1.314   1.253
18179WAT     H154779   7.911   1.250   1.327
18179WAT     H254780   7.832   1.386   1.285
18180WAT      O54781   2.013   3.538   9.612
18180WAT     H154782   1.917   3.562   9.599
18180WAT     H254783   2.071   3.611   9.578
18181WAT      O54784   8.620   7.169   0.794
18181WAT     H154785   8.680   7.162   0.874
18181WAT     H254786   8.532   7.125   0.814
18182WAT      O54787   6.647   5.448   8.128
18182WAT     H154788   6.698   5.528   8.160
18182WAT     H254789   6.712   5.377   8.099
18183WAT      O54790   7.682   9.703   1.180
18183WAT     H154791   7.637   9.675   1.265
18183WAT     H254792   7.771   9.656   1.173
18184WAT      O54793   8.952   1.741   8.275
18184WAT     H154794   8.955   1.838   8.253
18184WAT     H254795   9.034   1.696   8.238
18185WAT      O54796   4.124   5.286   6.350
18185WAT     H154797   4.100   5.204   6.299
18185WAT     H254798   4.048   5.313   6.409
18186WAT      O54799   0.774   8.463   5.306
18186WAT     H154800   0.776   8.484   5.404
18186WAT     H254801   0.843   8.395   5.285
18187WAT      O54802   1.306   5.603   8.021
18187WAT     H154803   1.270   5.621   8.112
18187WAT     H254804   1.230   5.594   7.956
18188WAT      O54805   4.018   0.296   2.381
18188WAT     H154806   4.086   0.231   2.346
18188WAT     H254807   4.062   0.384   2.397
18189WAT      O54808   8.380   2.905   0.434
18189WAT     H154809   8.365   2.986   0.377
18189WAT     H254810   8.292   2.872   0.468
18190WAT      O54811   2.484   3.445   6.582
18190WAT     H154812   2.471   3.535   6.624
18190WAT     H254813   2.549   3.392   6.636
18191WAT      O54814   0.463   5.292   0.630
18191WAT     H154815   0.453   5.347   0.713
18191WAT     H254816   0.494   5.351   0.555
18192WAT      O54817   3.234   0.115   0.114
18192WAT     H154818   3.156   0.127   0.176
18192WAT     H254819   3.228   0.183   0.041
18193WAT      O54820   5.669   3.384   4.563
18193WAT     H154821   5.587   3.405   4.509
18193WAT     H254822   5.644   3.323   4.638
18194WAT      O54823   2.551   9.148   0.971
18194WAT     H154824   2.646   9.125   0.949
18194WAT     H254825   2.542   9.248   0.978
18195WAT      O54826   1.527   1.009   2.725
18195WAT     H154827   1.601   1.025   2.660
18195WAT     H254828   1.487   1.097   2.752
18196WAT      O54829   9.529   1.654   3.779
18196WAT     H154830   9.625   1.663   3.806
18196WAT     H254831   9.503   1.732   3.723
18197WAT      O54832   4.630   5.774   5.915
18197WAT     H154833   4.642   5.874   5.909
18197WAT     H254834   4.642   5.734   5.824
18198WAT      O54835   4.903   7.667   2.399
18198WAT     H154836   4.919   7.745   2.339
18198WAT     H254837   4.949   7.586   2.362
18199WAT      O54838   2.160   1.533   4.385
18199WAT     H154839   2.062   1.551   4.386
18199WAT     H254840   2.187   1.487   4.470
18200WAT      O54841   0.604   1.399   2.194
18200WAT     H154842   0.540   1.331   2.159
18200WAT     H254843   0.564   1.490   2.185
18201WAT      O54844   0.645   7.371   2.816
18201WAT     H154845   0.589   7.372   2.733
18201WAT     H254846   0.724   7.432   2.803
18202WAT      O54847   6.640   6.111   4.591
18202WAT     H154848   6.584   6.034   4.561
18202WAT     H254849   6.671   6.096   4.685
18203WAT      O54850   3.161   2.316   0.293
18203WAT     H154851   3.216   2.250   0.345
18203WAT     H254852   3.097   2.361   0.354
18204WAT      O54853   5.899   7.316   9.282
18204WAT     H154854   5.974   7.251   9.295
18204WAT     H254855   5.816   7.266   9.256
18205WAT      O54856   5.814   1.655   0.660
18205WAT     H154857   5.843   1.600   0.581
18205WAT     H254858   5.881   1.727   0.676
18206WAT      O54859   5.707   6.173   5.949
18206WAT     H154860   5.779   6.110   5.978
18206WAT     H254861   5.619   6.127   5.954
18207WAT      O54862   0.610   4.632   8.772
18207WAT     H154863   0.647   4.724   8.760
18207WAT     H254864   0.684   4.565   8.769
18208WAT      O54865   1.037   6.971   2.849
18208WAT     H154866   0.960   6.946   2.790
18208WAT     H254867   1.123   6.948   2.802
18209WAT      O54868   6.969   1.711   3.707
18209WAT     H154869   7.057   1.670   3.683
18209WAT     H254870   6.897   1.674   3.648
18210WAT      O54871   9.469   2.374   9.359
18210WAT     H154872   9.420   2.409   9.279
18210WAT     H254873   9.567   2.392   9.348
18211WAT      O54874   5.197   3.981   1.867
18211WAT     H154875   5.225   4.059   1.811
18211WAT     H254876   5.097   3.975   1.868
18212WAT      O54877   1.485   8.230   2.420
18212WAT     H154878   1.449   8.144   2.384
18212WAT     H254879   1.577   8.215   2.457
18213WAT      O54880   8.545   7.924   1.882
18213WAT     H154881   8.625   7.874   1.848
18213WAT     H254882   8.576   8.003   1.934
18214WAT      O54883   0.088   0.538   4.599
18214WAT     H154884   0.039   0.594   4.666
18214WAT     H254885   0.088   0.585   4.511
18215WAT      O54886   6.151   4.969   5.673
18215WAT     H154887   6.209   4.937   5.748
18215WAT     H254888   6.205   5.022   5.609
18216WAT      O54889   2.527   4.377   5.747
18216WAT     H154890   2.462   4.421   5.810
18216WAT     H254891   2.572   4.447   5.692
18217WAT      O54892   0.789   3.967   3.907
18217WAT     H154893   0.872   4.013   3.877
18217WAT     H254894   0.729   3.951   3.829
18218WAT      O54895   3.542   1.072   1.220
18218WAT     H154896   3.495   0.998   1.268
18218WAT     H254897   3.606   1.035   1.154
18219WAT      O54898   4.517   2.688   4.742
18219WAT     H154899   4.516   2.729   4.651
18219WAT     H254900   4.542   2.591   4.735
18220WAT      O54901   3.203   6.823   7.773
18220WAT     H154902   3.128   6.844   7.835
18220WAT     H254903   3.277   6.779   7.824
18221WAT      O54904   4.821   8.671   3.535
18221WAT     H154905   4.881   8.741   3.576
18221WAT     H254906   4.731   8.676   3.578
18222WAT      O54907   6.751   3.152   3.557
18222WAT     H154908   6.775   3.107   3.470
18222WAT     H254909   6.797   3.240   3.562
18223WAT      O54910   5.996   9.290   0.189
18223WAT     H154911   5.931   9.355   0.149
18223WAT     H254912   5.990   9.294   0.288
18224WAT      O54913   9.779   9.507   1.536
18224WAT     H154914   9.763   9.605   1.524
18224WAT     H254915   9.716   9.472   1.606
18225WAT      O54916   6.929   3.764   3.306
18225WAT     H154917   6.952   3.685   3.250
18225WAT     H254918   6.974   3.757   3.394
18226WAT      O54919   2.986   7.817   1.697
18226WAT     H154920   2.887   7.820   1.687
18226WAT     H254921   3.010   7.776   1.786
18227WAT      O54922   1.853   8.192   2.863
18227WAT     H154923   1.953   8.191   2.865
18227WAT     H254924   1.819   8.099   2.851
18228WAT      O54925   7.206   0.137   3.104
18228WAT     H154926   7.276   0.201   3.135
18228WAT     H254927   7.139   0.122   3.177
18229WAT      O54928   5.647   7.037   9.410
18229WAT     H154929   5.710   7.047   9.486
18229WAT     H254930   5.674   6.959   9.354
18230WAT      O54931   0.494   4.106   6.203
18230WAT     H154932   0.531   4.198   6.215
18230WAT     H254933   0.452   4.098   6.113
18231WAT      O54934   1.087   8.374   0.436
18231WAT     H154935   1.126   8.368   0.345
18231WAT     H254936   1.080   8.282   0.476
18232WAT      O54937   6.647   6.323   3.233
18232WAT     H154938   6.612   6.289   3.320
18232WAT     H254939   6.746   6.309   3.228
18233WAT      O54940   2.250   2.428   5.841
18233WAT     H154941   2.165   2.480   5.847
18233WAT     H254942   2.320   2.484   5.797
18234WAT      O54943   4.730   4.223   8.815
18234WAT     H154944   4.752   4.244   8.910
18234WAT     H254945   4.680   4.300   8.774
18235WAT      O54946   9.708   6.709   2.171
18235WAT     H154947   9.648   6.629   2.164
18235WAT     H254948   9.658   6.791   2.145
18236WAT      O54949   9.517   7.811   4.162
18236WAT     H154950   9.447   7.873   4.197
18236WAT     H254951   9.514   7.810   4.062
18237WAT      O54952   1.331   3.310   6.939
18237WAT     H154953   1.264   3.326   7.011
18237WAT     H254954   1.422   3.304   6.980
18238WAT      O54955   8.751   5.360   7.590
18238WAT     H154956   8.710   5.286   7.536
18238WAT     H254957   8.702   5.368   7.677
18239WAT      O54958   4.727   8.834   9.680
18239WAT     H154959   4.777   8.885   9.750
18239WAT     H254960   4.765   8.742   9.672
18240WAT      O54961   3.034   3.979   1.497
18240WAT     H154962   3.063   3.988   1.401
18240WAT     H254963   2.936   3.959   1.499
18241WAT      O54964   5.927   6.996   6.046
18241WAT     H154965   5.968   6.905   6.040
18241WAT     H254966   5.893   7.023   5.956
18242WAT      O54967   4.367   8.033   9.652
18242WAT     H154968   4.278   7.987   9.645
18242WAT     H254969   4.433   7.986   9.594
18243WAT      O54970   1.776   4.826   9.078
18243WAT     H154971   1.874   4.847   9.075
18243WAT     H254972   1.754   4.764   9.003
18244WAT      O54973   5.193   1.991   3.970
18244WAT     H154974   5.136   1.933   3.912
18244WAT     H254975   5.235   2.063   3.915
18245WAT      O54976   2.691   5.041   5.785
18245WAT     H154977   2.687   4.981   5.705
18245WAT     H254978   2.774   5.096   5.782
18246WAT      O54979   9.150   6.282   7.160
18246WAT     H154980   9.051   6.267   7.167
18246WAT     H254981   9.167   6.380   7.152
18247WAT      O54982   4.542   3.171   2.408
18247WAT     H154983   4.529   3.161   2.309
18247WAT     H254984   4.462   3.136   2.456
18248WAT      O54985   8.297   9.218   3.425
18248WAT     H154986   8.259   9.139   3.377
18248WAT     H254987   8.224   9.263   3.477
18249WAT      O54988   3.259   4.519   0.835
18249WAT     H154989   3.331   4.553   0.775
18249WAT     H254990   3.276   4.423   0.856
18250WAT      O54991   0.303   6.496   9.692
18250WAT     H154992   0.319   6.456   9.602
18250WAT     H254993   0.250   6.580   9.681
18251WAT      O54994   3.942   2.958   2.510
18251WAT     H154995   3.901   3.029   2.453
18251WAT     H254996   3.965   2.879   2.453
18252WAT      O54997   8.613   5.216   9.306
18252WAT     H154998   8.529   5.258   9.271
18252WAT     H254999   8.689   5.280   9.294
18253WAT      O55000   8.188   3.642   0.351
18253WAT     H155001   8.108   3.605   0.304
18253WAT     H255002   8.159   3.717   0.411
18254WAT      O55003   7.895   3.725   4.881
18254WAT     H155004   7.912   3.628   4.898
18254WAT     H255005   7.977   3.766   4.839
18255WAT      O55006   6.794   8.356   0.527
18255WAT     H155007   6.734   8.338   0.450
18255WAT     H255008   6.830   8.270   0.563
18256WAT      O55009   3.980   9.726   0.567
18256WAT     H155010   4.025   9.725   0.656
18256WAT     H255011   3.945   9.634   0.547
18257WAT      O55012   3.837   0.729   3.825
18257WAT     H155013   3.769   0.663   3.792
18257WAT     H255014   3.843   0.805   3.760
18258WAT      O55015   9.850   5.722   8.310
18258WAT     H155016   9.768   5.767   8.347
18258WAT     H255017   9.865   5.753   8.216
18259WAT      O55018   4.216   6.794   1.497
18259WAT     H155019   4.287   6.730   1.468
18259WAT     H255020   4.192   6.776   1.593
18260WAT      O55021   5.480   3.693   0.239
18260WAT     H155022   5.382   3.687   0.222
18260WAT     H255023   5.527   3.714   0.153
18261WAT      O55024   6.227   6.065   4.101
18261WAT     H155025   6.230   6.162   4.076
18261WAT     H255026   6.286   6.013   4.038
18262WAT      O55027   0.994   2.094   1.984
18262WAT     H155028   1.086   2.063   1.959
18262WAT     H255029   0.970   2.055   2.073
18263WAT      O55030   1.263   7.485   4.074
18263WAT     H155031   1.357   7.464   4.101
18263WAT     H255032   1.206   7.490   4.156
18264WAT      O55033   3.126   5.991   1.554
18264WAT     H155034   3.084   6.074   1.517
18264WAT     H255035   3.098   5.913   1.499
18265WAT      O55036   9.389   9.444   0.540
18265WAT     H155037   9.329   9.365   0.522
18265WAT     H255038   9.375   9.513   0.470
18266WAT      O55039   8.169   9.002   9.048
18266WAT     H155040   8.199   8.916   9.088
18266WAT     H255041   8.181   8.999   8.949
18267WAT      O55042   3.951   2.134   5.200
18267WAT     H155043   3.925   2.205   5.265
18267WAT     H255044   4.034   2.161   5.152
18268WAT      O55045   7.650   5.586   4.252
18268WAT     H155046   7.721   5.517   4.238
18268WAT     H255047   7.622   5.623   4.163
18269WAT      O55048   2.550   6.305   1.200
18269WAT     H155049   2.580   6.275   1.109
18269WAT     H255050   2.450   6.304   1.203
18270WAT      O55051   5.121   5.241   5.952
18270WAT     H155052   5.087   5.162   6.002
18270WAT     H255053   5.221   5.245   5.960
18271WAT      O55054   8.297   6.100   9.675
18271WAT     H155055   8.286   6.016   9.727
18271WAT     H255056   8.234   6.170   9.710
18272WAT      O55057   9.007   7.991   4.219
18272WAT     H155058   8.961   7.995   4.130
18272WAT     H255059   8.955   7.931   4.280
18273WAT      O55060   5.947   6.966   3.171
18273WAT     H155061   5.925   7.040   3.108
18273WAT     H255062   5.931   6.997   3.265
18274WAT      O55063   1.803   3.727   8.292
18274WAT     H155064   1.801   3.799   8.361
18274WAT     H255065   1.722   3.669   8.301
18275WAT      O55066   1.790   5.243   7.419
18275WAT     H155067   1.723   5.218   7.488
18275WAT     H255068   1.839   5.161   7.389
18276WAT      O55069   5.179   8.202   8.315
18276WAT     H155070   5.201   8.106   8.330
18276WAT     H255071   5.079   8.212   8.311
18277WAT      O55072   5.179   7.269   9.092
18277WAT     H155073   5.118   7.193   9.069
18277WAT     H255074   5.198   7.323   9.010
18278WAT      O55075   6.962   8.301   8.734
18278WAT     H155076   7.049   8.327   8.776
18278WAT     H255077   6.932   8.213   8.772
18279WAT      O55078   4.975   5.936   2.661
18279WAT     H155079   5.061   5.939   2.611
18279WAT     H255080   4.965   6.019   2.715
18280WAT      O55081   4.603   0.626   9.209
18280WAT     H155082   4.580   0.569   9.288
18280WAT     H255083   4.528   0.690   9.191
18281WAT      O55084   8.149   0.454   5.823
18281WAT     H155085   8.196   0.376   5.782
18281WAT     H255086   8.100   0.504   5.752
18282WAT      O55087   1.604   9.411   3.132
18282WAT     H155088   1.580   9.321   3.167
18282WAT     H255089   1.529   9.475   3.151
18283WAT      O55090   9.609   6.959   4.770
18283WAT     H155091   9.585   7.012   4.851
18283WAT     H255092   9.539   6.889   4.755
18284WAT      O55093   3.837   8.267   8.936
18284WAT     H155094   3.809   8.338   9.000
18284WAT     H255095   3.929   8.287   8.902
18285WAT      O55096   9.173   0.551   9.227
18285WAT     H155097   9.101   0.575   9.292
18285WAT     H255098   9.136   0.553   9.134
18286WAT      O55099   8.059   2.750   7.506
18286WAT     H155100   8.030   2.675   7.566
18286WAT     H255101   8.135   2.720   7.449
18287WAT      O55102   8.739   7.377   8.380
18287WAT     H155103   8.642   7.390   8.396
18287WAT     H255104   8.760   7.396   8.284
18288WAT      O55105   2.918   9.648   9.105
18288WAT     H155106   2.909   9.550   9.090
18288WAT     H255107   2.982   9.664   9.181
18289WAT      O55108   5.080   6.876   2.213
18289WAT     H155109   5.007   6.811   2.194
18289WAT     H255110   5.085   6.944   2.139
18290WAT      O55111   0.872   4.389   3.207
18290WAT     H155112   0.967   4.382   3.179
18290WAT     H255113   0.828   4.465   3.158
18291WAT      O55114   5.631   9.842   3.251
18291WAT     H155115   5.693   9.763   3.247
18291WAT     H255116   5.679   9.924   3.219
18292WAT      O55117   5.156   2.062   2.382
18292WAT     H155118   5.165   2.039   2.285
18292WAT     H255119   5.209   2.145   2.402
18293WAT      O55120   8.099   7.396   2.251
18293WAT     H155121   8.041   7.465   2.293
18293WAT     H255122   8.048   7.349   2.178
18294WAT      O55123   6.353   7.006   1.422
18294WAT     H155124   6.258   7.029   1.399
18294WAT     H255125   6.401   7.089   1.451
18295WAT      O55126   2.932   5.668   3.248
18295WAT     H155127   2.871   5.743   3.221
18295WAT     H255128   3.026   5.702   3.253
18296WAT      O55129   8.043   3.989   3.459
18296WAT     H155130   8.008   4.057   3.394
18296WAT     H255131   8.049   4.030   3.550
18297WAT      O55132   2.215   8.980   7.727
18297WAT     H155133   2.304   8.954   7.689
18297WAT     H255134   2.143   8.933   7.676
18298WAT      O55135   1.852   8.480   6.954
18298WAT     H155136   1.849   8.390   6.997
18298WAT     H255137   1.947   8.504   6.934
18299WAT      O55138   1.864   3.976   8.774
18299WAT     H155139   1.962   3.994   8.782
18299WAT     H255140   1.836   3.910   8.844
18300WAT      O55141   3.695   1.379   2.518
18300WAT     H155142   3.769   1.429   2.473
18300WAT     H255143   3.607   1.413   2.484
18301WAT      O55144   0.008   3.010   9.059
18301WAT     H155145   0.064   2.969   8.987
18301WAT     H255146  -0.065   3.064   9.017
18302WAT      O55147   8.231   9.388   1.053
18302WAT     H155148   8.274   9.346   0.974
18302WAT     H255149   8.292   9.381   1.132
18303WAT      O55150   8.764   4.606   0.272
18303WAT     H155151   8.719   4.632   0.187
18303WAT     H255152   8.768   4.684   0.334
18304WAT      O55153   4.409   6.643   1.334
18304WAT     H155154   4.318   6.618   1.302
18304WAT     H255155   4.457   6.693   1.262
18305WAT      O55156   2.717   4.452   6.120
18305WAT     H155157   2.623   4.455   6.156
18305WAT     H255158   2.774   4.517   6.172
18306WAT      O55159   4.374   9.674   3.462
18306WAT     H155160   4.338   9.759   3.425
18306WAT     H255161   4.301   9.624   3.509
18307WAT      O55162   6.937   6.472   6.204
18307WAT     H155163   7.002   6.438   6.272
18307WAT     H255164   6.917   6.399   6.138
18308WAT      O55165   9.865   1.661   6.402
18308WAT     H155166   9.816   1.712   6.472
18308WAT     H255167   9.951   1.707   6.381
18309WAT      O55168   9.368   4.482   9.396
18309WAT     H155169   9.268   4.488   9.389
18309WAT     H255170   9.400   4.403   9.345
18310WAT      O55171   0.012   0.574   6.838
18310WAT     H155172  -0.053   0.634   6.883
18310WAT     H255173   0.072   0.533   6.905
18311WAT      O55174   9.719   4.464   7.590
18311WAT     H155175   9.702   4.520   7.672
18311WAT     H255176   9.665   4.380   7.596
18312WAT      O55177   1.645   1.637   4.224
18312WAT     H155178   1.560   1.584   4.220
18312WAT     H255179   1.624   1.735   4.220
18313WAT      O55180   9.708   1.242   1.162
18313WAT     H155181   9.726   1.338   1.143
18313WAT     H255182   9.794   1.195   1.181
18314WAT      O55183   0.624   2.168   6.423
18314WAT     H155184   0.576   2.135   6.342
18314WAT     H255185   0.679   2.248   6.398
18315WAT      O55186   0.746   2.585   2.399
18315WAT     H155187   0.758   2.495   2.359
18315WAT     H255188   0.785   2.654   2.339
18316WAT      O55189   0.528   5.936   3.737
18316WAT     H155190   0.517   5.857   3.797
18316WAT     H255191   0.618   5.932   3.694
18317WAT      O55192   9.146   5.817   2.686
18317WAT     H155193   9.149   5.916   2.671
18317WAT     H255194   9.233   5.786   2.724
18318WAT      O55195   0.442   4.803   4.567
18318WAT     H155196   0.410   4.880   4.511
18318WAT     H255197   0.380   4.791   4.645
18319WAT      O55198   2.670   0.591   0.167
18319WAT     H155199   2.668   0.690   0.158
18319WAT     H255200   2.760   0.556   0.143
18320WAT      O55201   0.925   3.896   4.680
18320WAT     H155202   1.013   3.913   4.634
18320WAT     H255203   0.890   3.982   4.717
18321WAT      O55204   0.534   0.903   4.694
18321WAT     H155205   0.536   0.837   4.619
18321WAT     H255206   0.505   0.858   4.778
18322WAT      O55207   7.961   9.339   4.055
18322WAT     H155208   7.889   9.295   4.001
18322WAT     H255209   7.919   9.392   4.129
18323WAT      O55210   3.417   4.422   1.290
18323WAT     H155211   3.412   4.328   1.258
18323WAT     H255212   3.471   4.426   1.375
18324WAT      O55213   5.689   4.950   3.523
18324WAT     H155214   5.671   4.852   3.523
18324WAT     H255215   5.785   4.967   3.545
18325WAT      O55216   3.204   0.306   5.751
18325WAT     H155217   3.190   0.207   5.762
18325WAT     H255218   3.299   0.323   5.724
18326WAT      O55219   0.315   9.637   2.051
18326WAT     H155220   0.410   9.661   2.074
18326WAT     H255221   0.261   9.721   2.045
18327WAT      O55222   3.821   5.487   8.347
18327WAT     H155223   3.901   5.444   8.306
18327WAT     H255224   3.847   5.574   8.389
18328WAT      O55225   1.949   6.386   7.077
18328WAT     H155226   1.948   6.407   6.980
18328WAT     H255227   2.010   6.308   7.094
18329WAT      O55228   1.203   8.687   3.889
18329WAT     H155229   1.189   8.691   3.988
18329WAT     H255230   1.221   8.779   3.855
18330WAT      O55231   4.739   5.145   0.308
18330WAT     H155232   4.680   5.143   0.227
18330WAT     H255233   4.684   5.134   0.390
18331WAT      O55234   1.771   8.279   5.809
18331WAT     H155235   1.675   8.279   5.837
18331WAT     H255236   1.813   8.191   5.833
18332WAT      O55237   0.369   7.068   9.408
18332WAT     H155238   0.278   7.090   9.443
18332WAT     H255239   0.435   7.136   9.441
18333WAT      O55240   1.188   6.336   9.340
18333WAT     H155241   1.154   6.244   9.321
18333WAT     H255242   1.194   6.350   9.439
18334WAT      O55243   8.258   3.394   1.812
18334WAT     H155244   8.281   3.486   1.781
18334WAT     H255245   8.165   3.393   1.849
18335WAT      O55246   5.250   0.887   1.366
18335WAT     H155247   5.161   0.923   1.394
18335WAT     H255248   5.317   0.907   1.438
18336WAT      O55249   4.476   6.247   8.574
18336WAT     H155250   4.553   6.276   8.517
18336WAT     H255251   4.496   6.159   8.616
18337WAT      O55252   9.469   7.520   0.260
18337WAT     H155253   9.391   7.527   0.198
18337WAT     H255254   9.524   7.440   0.235
18338WAT      O55255   4.734   2.758   7.228
18338WAT     H155256   4.821   2.765   7.276
18338WAT     H255257   4.720   2.838   7.171
18339WAT      O55258   5.488   2.757   1.499
18339WAT     H155259   5.461   2.802   1.584
18339WAT     H255260   5.506   2.660   1.517
18340WAT      O55261   2.357   4.008   3.521
18340WAT     H155262   2.341   3.962   3.434
18340WAT     H255263   2.343   4.106   3.509
18341WAT      O55264   0.033   6.559   3.857
18341WAT     H155265   0.073   6.633   3.911
18341WAT     H255266   0.064   6.471   3.894
18342WAT      O55267   0.105   0.509   7.824
18342WAT     H155268   0.189   0.534   7.873
18342WAT     H255269   0.090   0.573   7.749
18343WAT      O55270   6.553   9.472   8.935
18343WAT     H155271   6.464   9.430   8.953
18343WAT     H255272   6.588   9.441   8.847
18344WAT      O55273   8.249   4.718   4.710
18344WAT     H155274   8.269   4.625   4.741
18344WAT     H255275   8.195   4.714   4.626
18345WAT      O55276   2.416   8.973   0.795
18345WAT     H155277   2.468   9.029   0.860
18345WAT     H255278   2.351   8.915   0.844
18346WAT      O55279   1.881   2.679   6.652
18346WAT     H155280   1.854   2.668   6.556
18346WAT     H255281   1.800   2.686   6.709
18347WAT      O55282   4.723   4.367   1.444
18347WAT     H155283   4.697   4.443   1.385
18347WAT     H255284   4.768   4.402   1.526
18348WAT      O55285   6.457   0.170   1.786
18348WAT     H155286   6.435   0.109   1.710
18348WAT     H255287   6.450   0.265   1.756
18349WAT      O55288   7.928   7.241   1.569
18349WAT     H155289   7.978   7.277   1.491
18349WAT     H255290   7.978   7.164   1.608
18350WAT      O55291   1.359   7.256   5.768
18350WAT     H155292   1.269   7.252   5.726
18350WAT     H255293   1.429   7.252   5.697
18351WAT      O55294   6.289   7.018   5.055
18351WAT     H155295   6.334   7.055   5.137
18351WAT     H255296   6.199   7.060   5.045
18352WAT      O55297   2.583   2.859   2.821
18352WAT     H155298   2.661   2.834   2.764
18352WAT     H255299   2.549   2.949   2.794
18353WAT      O55300   6.080   8.632   9.333
18353WAT     H155301   5.991   8.671   9.359
18353WAT     H255302   6.124   8.691   9.266
18354WAT      O55303   4.229   1.287   1.890
18354WAT     H155304   4.244   1.219   1.818
18354WAT     H255305   4.188   1.242   1.969
18355WAT      O55306   3.514   1.978   6.411
18355WAT     H155307   3.607   1.982   6.447
18355WAT     H255308   3.511   1.914   6.334
18356WAT      O55309   2.570   1.523   5.525
18356WAT     H155310   2.599   1.512   5.430
18356WAT     H255311   2.565   1.434   5.570
18357WAT      O55312   1.929   0.070   1.652
18357WAT     H155313   1.977   0.103   1.733
18357WAT     H255314   1.837   0.108   1.649
18358WAT      O55315   9.315   8.960   1.395
18358WAT     H155316   9.388   9.021   1.426
18358WAT     H255317   9.312   8.880   1.455
18359WAT      O55318   8.001   3.761   9.313
18359WAT     H155319   7.909   3.770   9.352
18359WAT     H255320   8.030   3.849   9.276
18360WAT      O55321   9.011   0.917   1.292
18360WAT     H155322   9.021   0.833   1.239
18360WAT     H255323   8.983   0.991   1.232
18361WAT      O55324   9.039   5.476   5.960
18361WAT     H155325   9.015   5.554   5.901
18361WAT     H255326   9.138   5.462   5.957
18362WAT      O55327   7.552   0.688   6.615
18362WAT     H155328   7.614   0.751   6.567
18362WAT     H255329   7.531   0.610   6.556
18363WAT      O55330   8.636   8.151   7.862
18363WAT     H155331   8.624   8.250   7.875
18363WAT     H255332   8.704   8.118   7.928
18364WAT      O55333   4.676   0.597   8.008
18364WAT     H155334   4.631   0.684   8.025
18364WAT     H255335   4.748   0.609   7.940
18365WAT      O55336   4.051   0.611   5.308
18365WAT     H155337   3.958   0.577   5.293
18365WAT     H255338   4.057   0.651   5.400
18366WAT      O55339   0.743   1.795   2.454
18366WAT     H155340   0.783   1.731   2.388
18366WAT     H255341   0.717   1.880   2.407
18367WAT      O55342   7.440   2.776   1.035
18367WAT     H155343   7.469   2.748   0.943
18367WAT     H255344   7.363   2.721   1.064
18368WAT      O55345   1.175   2.890   1.188
18368WAT     H155346   1.233   2.948   1.131
18368WAT     H255347   1.166   2.931   1.279
18369WAT      O55348   0.541   2.128   8.590
18369WAT     H155349   0.529   2.125   8.689
18369WAT     H255350   0.536   2.035   8.553
18370WAT      O55351   0.671   2.924   7.682
18370WAT     H155352   0.759   2.934   7.635
18370WAT     H255353   0.655   3.004   7.740
18371WAT      O55354   9.021   5.580   4.255
18371WAT     H155355   8.942   5.637   4.274
18371WAT     H255356   8.995   5.483   4.258
18372WAT      O55357   2.305   6.056   9.006
18372WAT     H155358   2.254   6.094   8.930
18372WAT     H255359   2.246   6.050   9.087
18373WAT      O55360   4.020   0.560   6.710
18373WAT     H155361   4.017   0.596   6.803
18373WAT     H255362   3.968   0.621   6.649
18374WAT      O55363   0.590   5.459   2.718
18374WAT     H155364   0.523   5.386   2.723
18374WAT     H255365   0.604   5.486   2.623
18375WAT      O55366   9.036   3.123   6.435
18375WAT     H155367   9.059   3.172   6.519
18375WAT     H255368   9.066   3.028   6.443
18376WAT      O55369   0.485   5.984   9.590
18376WAT     H155370   0.483   6.061   9.526
18376WAT     H255371   0.537   6.008   9.671
18377WAT      O55372   1.419   1.542   1.864
18377WAT     H155373   1.435   1.457   1.814
18377WAT     H255374   1.436   1.620   1.803
18378WAT      O55375   8.910   8.371   5.161
18378WAT     H155376   8.980   8.300   5.154
18378WAT     H255377   8.866   8.382   5.072
18379WAT      O55378   4.994   6.045   6.351
18379WAT     H155379   4.977   5.975   6.282
18379WAT     H255380   5.060   6.111   6.315
18380WAT      O55381   5.395   4.415   2.149
18380WAT     H155382   5.316   4.389   2.093
18380WAT     H255383   5.395   4.514   2.163
18381WAT      O55384   9.227   6.598   2.778
18381WAT     H155385   9.303   6.562   2.724
18381WAT     H255386   9.192   6.682   2.735
18382WAT      O55387   4.953   1.022   3.915
18382WAT     H155388   5.034   1.036   3.858
18382WAT     H255389   4.957   1.085   3.993
18383WAT      O55390   8.000   8.351   6.442
18383WAT     H155391   8.073   8.343   6.511
18383WAT     H255392   7.979   8.448   6.428
18384WAT      O55393   2.713   8.729   8.012
18384WAT     H155394   2.634   8.787   7.993
18384WAT     H255395   2.685   8.633   8.010
18385WAT      O55396   7.749   0.754   9.877
18385WAT     H155397   7.809   0.764   9.799
18385WAT     H255398   7.799   0.714   9.954
18386WAT      O55399   0.874   3.191   8.650
18386WAT     H155400   0.834   3.225   8.736
18386WAT     H255401   0.905   3.097   8.663
18387WAT      O55402   1.875   0.903   2.809
18387WAT     H155403   1.831   0.886   2.897
18387WAT     H255404   1.865   0.999   2.784
18388WAT      O55405   7.978   5.260   9.732
18388WAT     H155406   7.946   5.192   9.797
18388WAT     H255407   8.076   5.248   9.717
18389WAT      O55408   5.032   3.292   7.553
18389WAT     H155409   4.934   3.296   7.530
18389WAT     H255410   5.078   3.227   7.492
18390WAT      O55411   7.483   2.349   6.687
18390WAT     H155412   7.542   2.270   6.666
18390WAT     H255413   7.524   2.402   6.761
18391WAT      O55414   3.770   6.319   4.466
18391WAT     H155415   3.684   6.370   4.471
18391WAT     H255416   3.776   6.275   4.376
18392WAT      O55417   6.109   6.355   4.764
18392WAT     H155418   6.093   6.387   4.671
18392WAT     H255419   6.022   6.340   4.810
18393WAT      O55420   3.713   6.128   3.229
18393WAT     H155421   3.717   6.121   3.329
18393WAT     H255422   3.733   6.039   3.189
18394WAT      O55423   2.467   1.817   8.848
18394WAT     H155424   2.383   1.870   8.842
18394WAT     H255425   2.450   1.723   8.820
18395WAT      O55426   0.028   4.021   5.857
18395WAT     H155427   0.037   4.091   5.786
18395WAT     H255428  -0.036   3.951   5.827
18396WAT      O55429   6.274   1.019   5.746
18396WAT     H155430   6.352   1.044   5.803
18396WAT     H255431   6.304   0.956   5.675
18397WAT      O55432   4.303   1.741   9.866
18397WAT     H155433   4.262   1.736   9.957
18397WAT     H255434   4.352   1.656   9.848
18398WAT      O55435   5.413   0.622   6.692
18398WAT     H155436   5.451   0.684   6.760
18398WAT     H255437   5.366   0.547   6.738
18399WAT      O55438   8.547   4.603   1.604
18399WAT     H155439   8.478   4.569   1.668
18399WAT     H255440   8.512   4.598   1.511
18400WAT      O55441   0.706   1.695   3.519
18400WAT     H155442   0.745   1.757   3.451
18400WAT     H255443   0.663   1.617   3.473
18401WAT      O55444   7.238   0.851   5.392
18401WAT     H155445   7.290   0.809   5.317
18401WAT     H255446   7.297   0.860   5.472
18402WAT      O55447   7.196   2.310   5.910
18402WAT     H155448   7.109   2.293   5.863
18402WAT     H255449   7.258   2.358   5.848
18403WAT      O55450   0.709   5.073   7.255
18403WAT     H155451   0.779   5.043   7.319
18403WAT     H255452   0.740   5.154   7.206
18404WAT      O55453   8.869   3.100   1.885
18404WAT     H155454   8.942   3.145   1.936
18404WAT     H255455   8.785   3.100   1.940
18405WAT      O55456   1.884   7.826   3.842
18405WAT     H155457   1.909   7.738   3.802
18405WAT     H255458   1.966   7.875   3.871
18406WAT      O55459   7.665   9.795   0.904
18406WAT     H155460   7.678   9.785   1.002
18406WAT     H255461   7.628   9.710   0.866
18407WAT      O55462   5.222   9.162   7.714
18407WAT     H155463   5.270   9.164   7.627
18407WAT     H255464   5.199   9.256   7.742
18408WAT      O55465   9.129   8.175   6.739
18408WAT     H155466   9.205   8.234   6.710
18408WAT     H255467   9.063   8.229   6.791
18409WAT      O55468   3.206   8.730   0.068
18409WAT     H155469   3.195   8.684   0.156
18409WAT     H255470   3.303   8.738   0.046
18410WAT      O55471   2.153   2.411   1.933
18410WAT     H155472   2.145   2.461   1.847
18410WAT     H255473   2.081   2.440   1.995
18411WAT      O55474   3.272   6.031   4.932
18411WAT     H155475   3.301   6.022   5.027
18411WAT     H255476   3.206   6.105   4.923
18412WAT      O55477   8.360   2.692   3.580
18412WAT     H155478   8.433   2.706   3.514
18412WAT     H255479   8.394   2.711   3.672
18413WAT      O55480   6.070   3.094   3.782
18413WAT     H155481   6.085   3.192   3.791
18413WAT     H255482   6.029   3.059   3.866
18414WAT      O55483   3.827   6.948   1.425
18414WAT     H155484   3.794   6.974   1.516
18414WAT     H255485   3.926   6.960   1.421
18415WAT      O55486   8.280   9.389   2.151
18415WAT     H155487   8.270   9.337   2.236
18415WAT     H255488   8.220   9.469   2.153
18416WAT      O55489   8.875   2.486   1.831
18416WAT     H155490   8.899   2.522   1.741
18416WAT     H255491   8.931   2.532   1.900
18417WAT      O55492   2.949   4.787   6.501
18417WAT     H155493   2.875   4.753   6.558
18417WAT     H255494   2.942   4.887   6.493
18418WAT      O55495   8.777   2.957   2.229
18418WAT     H155496   8.780   2.882   2.162
18418WAT     H255497   8.780   3.044   2.180
18419WAT      O55498   9.552   2.862   4.942
18419WAT     H155499   9.556   2.962   4.948
18419WAT     H255500   9.641   2.826   4.914
18420WAT      O55501   3.569   4.544   7.283
18420WAT     H155502   3.529   4.631   7.312
18420WAT     H255503   3.625   4.558   7.201
18421WAT      O55504   4.466   2.307   8.323
18421WAT     H155505   4.480   2.324   8.420
18421WAT     H255506   4.401   2.232   8.311
18422WAT      O55507   5.694   2.149   1.006
18422WAT     H155508   5.624   2.208   0.964
18422WAT     H255509   5.778   2.201   1.017
18423WAT      O55510   1.002   1.322   0.428
18423WAT     H155511   0.959   1.383   0.495
18423WAT     H255512   1.027   1.236   0.472
18424WAT      O55513   0.971   0.179   0.055
18424WAT     H155514   1.039   0.125   0.105
18424WAT     H255515   0.892   0.121   0.033
18425WAT      O55516   1.171   7.931   4.163
18425WAT     H155517   1.187   7.869   4.086
18425WAT     H255518   1.240   8.004   4.162
18426WAT      O55519   1.844   3.083   3.035
18426WAT     H155520   1.803   2.999   3.071
18426WAT     H255521   1.873   3.141   3.111
18427WAT      O55522   5.889   2.572   0.239
18427WAT     H155523   5.944   2.490   0.249
18427WAT     H255524   5.882   2.619   0.327
18428WAT      O55525   5.501   7.663   4.091
18428WAT     H155526   5.577   7.600   4.109
18428WAT     H255527   5.484   7.669   3.993
18429WAT      O55528   7.026   6.339   8.022
18429WAT     H155529   7.039   6.285   7.939
18429WAT     H255530   7.098   6.316   8.088
18430WAT      O55531   9.201   6.898   3.445
18430WAT     H155532   9.285   6.889   3.393
18430WAT     H255533   9.125   6.857   3.395
18431WAT      O55534   2.223   4.021   4.838
18431WAT     H155535   2.284   3.967   4.897
18431WAT     H255536   2.272   4.103   4.808
18432WAT      O55537   5.898   2.694   2.562
18432WAT     H155538   5.962   2.663   2.491
18432WAT     H255539   5.945   2.757   2.624
18433WAT      O55540   2.179   9.056   1.233
18433WAT     H155541   2.083   9.027   1.240
18433WAT     H255542   2.188   9.126   1.163
18434WAT      O55543   5.877   1.338   2.245
18434WAT     H155544   5.968   1.323   2.206
18434WAT     H255545   5.846   1.430   2.221
18435WAT      O55546   9.284   2.095   6.741
18435WAT     H155547   9.382   2.087   6.722
18435WAT     H255548   9.243   2.160   6.677
18436WAT      O55549   6.263   3.708   2.059
18436WAT     H155550   6.292   3.803   2.073
18436WAT     H255551   6.163   3.702   2.067
18437WAT      O55552   0.391   4.362   1.387
18437WAT     H155553   0.324   4.386   1.457
18437WAT     H255554   0.474   4.328   1.430
18438WAT      O55555   4.019   8.512   5.791
18438WAT     H155556   3.967   8.450   5.732
18438WAT     H255557   3.958   8.576   5.835
18439WAT      O55558   8.303   3.587   8.490
18439WAT     H155559   8.363   3.554   8.417
18439WAT     H255560   8.229   3.522   8.503
18440WAT      O55561   7.537   8.218   4.635
18440WAT     H155562   7.602   8.185   4.704
18440WAT     H255563   7.587   8.257   4.558
18441WAT      O55564   4.960   6.669   7.764
18441WAT     H155565   4.986   6.662   7.668
18441WAT     H255566   4.904   6.752   7.777
18442WAT      O55567   9.558   3.742   0.633
18442WAT     H155568   9.509   3.829   0.645
18442WAT     H255569   9.650   3.760   0.599
18443WAT      O55570   5.262   6.062   7.025
18443WAT     H155571   5.179   6.006   7.028
18443WAT     H255572   5.342   6.002   7.031
18444WAT      O55573   4.801   0.015   4.406
18444WAT     H155574   4.808  -0.036   4.491
18444WAT     H255575   4.718  -0.013   4.357
18445WAT      O55576   8.142   5.328   4.112
18445WAT     H155577   8.112   5.256   4.175
18445WAT     H255578   8.141   5.416   4.159
18446WAT      O55579   0.500   8.402   3.545
18446WAT     H155580   0.540   8.493   3.532
18446WAT     H255581   0.413   8.410   3.593
18447WAT      O55582   0.436   2.130   0.070
18447WAT     H155583   0.490   2.119   0.154
18447WAT     H255584   0.460   2.217   0.027
18448WAT      O55585   5.600   0.023   4.070
18448WAT     H155586   5.616  -0.023   3.982
18448WAT     H255587   5.644   0.113   4.068
18449WAT      O55588   9.228   5.083   0.917
18449WAT     H155589   9.171   5.018   0.865
18449WAT     H255590   9.193   5.176   0.903
18450WAT      O55591   0.432   7.956   4.115
18450WAT     H155592   0.527   7.984   4.103
18450WAT     H255593   0.414   7.940   4.212
18451WAT      O55594   6.280   7.166   9.431
18451WAT     H155595   6.273   7.164   9.531
18451WAT     H255596   6.292   7.261   9.401
18452WAT      O55597   3.417   9.145   1.912
18452WAT     H155598   3.370   9.180   1.993
18452WAT     H255599   3.381   9.054   1.889
18453WAT      O55600   1.409   1.257   5.079
18453WAT     H155601   1.439   1.296   5.166
18453WAT     H255602   1.314   1.284   5.062
18454WAT      O55603   4.074   6.849   3.310
18454WAT     H155604   4.001   6.864   3.244
18454WAT     H255605   4.159   6.827   3.262
18455WAT      O55606   7.050   7.219   6.965
18455WAT     H155607   7.071   7.125   6.938
18455WAT     H255608   7.131   7.276   6.952
18456WAT      O55609   6.825   7.654   6.828
18456WAT     H155610   6.879   7.646   6.744
18456WAT     H255611   6.875   7.613   6.904
18457WAT      O55612   6.423   5.149   3.218
18457WAT     H155613   6.325   5.171   3.213
18457WAT     H255614   6.453   5.114   3.129
18458WAT      O55615   1.649   6.051   4.302
18458WAT     H155616   1.670   6.045   4.400
18458WAT     H255617   1.589   6.129   4.286
18459WAT      O55618   7.557   0.318   2.602
18459WAT     H155619   7.492   0.258   2.649
18459WAT     H255620   7.637   0.331   2.660
18460WAT      O55621   2.411   8.912   5.581
18460WAT     H155622   2.482   8.843   5.593
18460WAT     H255623   2.348   8.883   5.509
18461WAT      O55624   3.876   6.496   2.646
18461WAT     H155625   3.801   6.483   2.710
18461WAT     H255626   3.913   6.589   2.657
18462WAT      O55627   2.080   4.001   2.487
18462WAT     H155628   2.095   4.064   2.410
18462WAT     H255629   2.163   3.947   2.502
18463WAT      O55630   4.108   0.472   9.210
18463WAT     H155631   4.127   0.566   9.237
18463WAT     H255632   4.094   0.467   9.112
18464WAT      O55633   1.106   7.541   4.680
18464WAT     H155634   1.106   7.450   4.720
18464WAT     H255635   1.019   7.558   4.634
18465WAT      O55636   1.986   6.131   6.468
18465WAT     H155637   1.967   6.097   6.560
18465WAT     H255638   2.044   6.065   6.420
18466WAT      O55639   0.313   2.440   5.073
18466WAT     H155640   0.218   2.468   5.078
18466WAT     H255641   0.352   2.439   5.166
18467WAT      O55642   2.686   0.037   6.935
18467WAT     H155643   2.673  -0.060   6.913
18467WAT     H255644   2.685   0.048   7.035
18468WAT      O55645   5.982   0.643   4.076
18468WAT     H155646   5.944   0.627   4.167
18468WAT     H255647   6.069   0.691   4.085
18469WAT      O55648   6.911   1.051   2.282
18469WAT     H155649   6.812   1.039   2.288
18469WAT     H255650   6.931   1.130   2.224
18470WAT      O55651   4.253   8.794   5.605
18470WAT     H155652   4.348   8.786   5.633
18470WAT     H255653   4.243   8.763   5.511
18471WAT      O55654   3.739   2.791   7.541
18471WAT     H155655   3.755   2.693   7.528
18471WAT     H255656   3.814   2.843   7.500
18472WAT      O55657   8.069   5.328   6.601
18472WAT     H155658   8.131   5.261   6.641
18472WAT     H255659   8.044   5.396   6.670
18473WAT      O55660   3.496   5.166   0.765
18473WAT     H155661   3.555   5.202   0.693
18473WAT     H255662   3.508   5.219   0.849
18474WAT      O55663   9.272   1.473   9.520
18474WAT     H155664   9.246   1.460   9.424
18474WAT     H255665   9.222   1.407   9.577
18475WAT      O55666   1.030   8.822   9.159
18475WAT     H155667   0.934   8.792   9.158
18475WAT     H255668   1.070   8.802   9.248
18476WAT      O55669   8.396   4.840   7.522
18476WAT     H155670   8.305   4.798   7.512
18476WAT     H255671   8.445   4.794   7.596
18477WAT      O55672   9.479   6.431   5.946
18477WAT     H155673   9.503   6.351   5.892
18477WAT     H255674   9.380   6.444   5.943
18478WAT      O55675   7.381   8.540   5.128
18478WAT     H155676   7.295   8.497   5.154
18478WAT     H255677   7.414   8.499   5.043
18479WAT      O55678   6.482   3.386   0.799
18479WAT     H155679   6.518   3.439   0.722
18479WAT     H255680   6.527   3.415   0.884
18480WAT      O55681   2.597   6.081   5.745
18480WAT     H155682   2.681   6.029   5.730
18480WAT     H255683   2.543   6.039   5.818
18481WAT      O55684   1.341   8.342   5.343
18481WAT     H155685   1.329   8.349   5.244
18481WAT     H255686   1.258   8.305   5.384
18482WAT      O55687   2.537   2.954   0.585
18482WAT     H155688   2.535   3.012   0.504
18482WAT     H255689   2.453   2.967   0.638
18483WAT      O55690   0.433   4.031   3.615
18483WAT     H155691   0.526   4.013   3.647
18483WAT     H255692   0.437   4.081   3.529
18484WAT      O55693   5.686   2.887   7.101
18484WAT     H155694   5.691   2.900   7.002
18484WAT     H255695   5.774   2.913   7.142
18485WAT      O55696   2.917   8.185   6.957
18485WAT     H155697   2.950   8.223   7.044
18485WAT     H255698   2.937   8.087   6.954
18486WAT      O55699   6.755   1.570   7.118
18486WAT     H155700   6.747   1.555   7.019
18486WAT     H255701   6.666   1.600   7.154
18487WAT      O55702   9.029   0.118   9.451
18487WAT     H155703   9.091   0.041   9.467
18487WAT     H255704   9.082   0.198   9.425
18488WAT      O55705   8.055   7.383   5.286
18488WAT     H155706   8.109   7.445   5.230
18488WAT     H255707   8.054   7.416   5.380
18489WAT      O55708   9.673   8.312   2.447
18489WAT     H155709   9.642   8.373   2.519
18489WAT     H255710   9.701   8.365   2.367
18490WAT      O55711   8.444   9.092   0.632
18490WAT     H155712   8.364   9.101   0.572
18490WAT     H255713   8.518   9.048   0.581
18491WAT      O55714   3.527   8.161   0.354
18491WAT     H155715   3.476   8.152   0.440
18491WAT     H255716   3.571   8.251   0.351
18492WAT      O55717   9.756   8.168   5.296
18492WAT     H155718   9.811   8.130   5.221
18492WAT     H255719   9.796   8.254   5.327
18493WAT      O55720   9.630   3.617   0.862
18493WAT     H155721   9.629   3.520   0.840
18493WAT     H255722   9.617   3.671   0.778
18494WAT      O55723   1.509   8.648   5.705
18494WAT     H155724   1.449   8.640   5.784
18494WAT     H255725   1.505   8.564   5.651
18495WAT      O55726   3.169   1.554   6.445
18495WAT     H155727   3.245   1.571   6.508
18495WAT     H255728   3.204   1.505   6.364
18496WAT      O55729   1.334   3.543   8.725
18496WAT     H155730   1.263   3.548   8.795
18496WAT     H255731   1.416   3.500   8.764
18497WAT      O55732   2.455   7.350   8.013
18497WAT     H155733   2.550   7.356   8.043
18497WAT     H255734   2.416   7.262   8.042
18498WAT      O55735   9.350   8.374   6.759
18498WAT     H155736   9.292   8.444   6.716
18498WAT     H255737   9.438   8.370   6.711
18499WAT      O55738   1.336   4.886   6.082
18499WAT     H155739   1.253   4.844   6.046
18499WAT     H255740   1.333   4.888   6.182
18500WAT      O55741   6.332   2.151   9.519
18500WAT     H155742   6.275   2.083   9.473
18500WAT     H255743   6.379   2.206   9.450
18501WAT      O55744   5.423   1.319   2.042
18501WAT     H155745   5.359   1.380   1.995
18501WAT     H255746   5.389   1.226   2.041
18502WAT      O55747   6.207   1.916   9.355
18502WAT     H155748   6.289   1.931   9.299
18502WAT     H255749   6.191   1.818   9.365
18503WAT      O55750   7.811   3.846   8.432
18503WAT     H155751   7.889   3.905   8.409
18503WAT     H255752   7.726   3.894   8.411
18504WAT      O55753   8.654   5.486   5.901
18504WAT     H155754   8.618   5.523   5.987
18504WAT     H255755   8.578   5.462   5.840
18505WAT      O55756   9.288   8.875   2.135
18505WAT     H155757   9.250   8.813   2.204
18505WAT     H255758   9.381   8.900   2.160
18506WAT      O55759   9.593   9.594   3.509
18506WAT     H155760   9.685   9.554   3.510
18506WAT     H255761   9.600   9.693   3.496
18507WAT      O55762   9.217   8.456   1.888
18507WAT     H155763   9.270   8.518   1.945
18507WAT     H255764   9.249   8.461   1.793
18508WAT      O55765   5.392   0.602   6.185
18508WAT     H155766   5.444   0.552   6.115
18508WAT     H255767   5.388   0.699   6.161
18509WAT      O55768   8.220   5.221   8.809
18509WAT     H155769   8.218   5.319   8.792
18509WAT     H255770   8.309   5.195   8.846
18510WAT      O55771   9.720   9.071   6.266
18510WAT     H155772   9.640   9.126   6.244
18510WAT     H255773   9.733   9.067   6.365
18511WAT      O55774   3.397   7.978   0.172
18511WAT     H155775   3.453   8.011   0.096
18511WAT     H255776   3.398   8.045   0.246
18512WAT      O55777   0.019   9.360   7.288
18512WAT     H155778  -0.018   9.449   7.261
18512WAT     H255779  -0.057   9.300   7.317
18513WAT      O55780   8.166   9.698   7.283
18513WAT     H155781   8.088   9.734   7.333
18513WAT     H255782   8.166   9.598   7.286
18514WAT      O55783   4.443   3.760   6.239
18514WAT     H155784   4.529   3.775   6.191
18514WAT     H255785   4.378   3.832   6.215
18515WAT      O55786   6.859   7.631   5.844
18515WAT     H155787   6.830   7.617   5.750
18515WAT     H255788   6.807   7.571   5.905
18516WAT      O55789   7.142   6.785   4.478
18516WAT     H155790   7.165   6.758   4.385
18516WAT     H255791   7.202   6.860   4.507
18517WAT      O55792   2.558   7.309   4.825
18517WAT     H155793   2.627   7.251   4.869
18517WAT     H255794   2.467   7.280   4.854
18518WAT      O55795   5.617   3.548   2.416
18518WAT     H155796   5.547   3.487   2.453
18518WAT     H255797   5.693   3.557   2.480
18519WAT      O55798   7.121   4.257   9.314
18519WAT     H155799   7.058   4.194   9.268
18519WAT     H255800   7.091   4.351   9.299
18520WAT      O55801   9.721   6.628   9.290
18520WAT     H155802   9.660   6.707   9.295
18520WAT     H255803   9.744   6.610   9.195
18521WAT      O55804   6.488   8.633   5.421
18521WAT     H155805   6.411   8.664   5.475
18521WAT     H255806   6.498   8.691   5.340
18522WAT      O55807   2.628   6.527   4.819
18522WAT     H155808   2.656   6.447   4.873
18522WAT     H255809   2.539   6.559   4.850
18523WAT      O55810   8.663   7.667   8.458
18523WAT     H155811   8.675   7.591   8.394
18523WAT     H255812   8.592   7.728   8.424
18524WAT      O55813   0.313   7.795   8.760
18524WAT     H155814   0.257   7.868   8.721
18524WAT     H255815   0.319   7.719   8.695
18525WAT      O55816   5.264   8.791   9.773
18525WAT     H155817   5.307   8.813   9.686
18525WAT     H255818   5.192   8.858   9.793
18526WAT      O55819   4.398   6.678   5.126
18526WAT     H155820   4.299   6.671   5.115
18526WAT     H255821   4.427   6.622   5.204
18527WAT      O55822   8.478   1.021   6.533
18527WAT     H155823   8.571   1.024   6.497
18527WAT     H255824   8.441   1.114   6.536
18528WAT      O55825   6.399   2.336   7.332
18528WAT     H155826   6.435   2.297   7.417
18528WAT     H255827   6.409   2.436   7.334
18529WAT      O55828   7.444   0.764   5.238
18529WAT     H155829   7.449   0.784   5.140
18529WAT     H255830   7.525   0.800   5.283
18530WAT      O55831   2.182   2.039   7.710
18530WAT     H155832   2.161   1.964   7.772
18530WAT     H255833   2.199   2.003   7.618
18531WAT      O55834   9.324   3.261   4.851
18531WAT     H155835   9.267   3.329   4.897
18531WAT     H255836   9.407   3.245   4.905
18532WAT      O55837   3.031   4.027   2.836
18532WAT     H155838   3.027   4.116   2.792
18532WAT     H255839   2.983   3.960   2.780
18533WAT      O55840   8.472   7.386   9.564
18533WAT     H155841   8.380   7.420   9.583
18533WAT     H255842   8.473   7.336   9.478
18534WAT      O55843   3.193   1.587   1.326
18534WAT     H155844   3.257   1.647   1.279
18534WAT     H255845   3.239   1.502   1.353
18535WAT      O55846   8.176   4.955   9.217
18535WAT     H155847   8.087   4.998   9.199
18535WAT     H255848   8.189   4.947   9.316
18536WAT      O55849   8.411   2.684   3.867
18536WAT     H155850   8.329   2.735   3.892
18536WAT     H255851   8.483   2.702   3.933
18537WAT      O55852   1.783   5.354   9.537
18537WAT     H155853   1.780   5.380   9.633
18537WAT     H255854   1.695   5.373   9.494
18538WAT      O55855   4.759   2.291   8.524
18538WAT     H155856   4.819   2.213   8.536
18538WAT     H255857   4.758   2.318   8.427
18539WAT      O55858   7.159   0.381   3.551
18539WAT     H155859   7.146   0.463   3.606
18539WAT     H255860   7.131   0.398   3.457
18540WAT      O55861   2.970   2.176   2.127
18540WAT     H155862   2.990   2.143   2.034
18540WAT     H255863   2.885   2.228   2.126
18541WAT      O55864   5.795   0.319   4.903
18541WAT     H155865   5.720   0.381   4.925
18541WAT     H255866   5.797   0.244   4.969
18542WAT      O55867   8.278   8.372   9.405
18542WAT     H155868   8.355   8.395   9.347
18542WAT     H255869   8.257   8.275   9.396
18543WAT      O55870   9.579   8.923   8.986
18543WAT     H155871   9.633   8.934   8.902
18543WAT     H255872   9.638   8.938   9.065
18544WAT      O55873   2.733   6.348   9.739
18544WAT     H155874   2.702   6.301   9.822
18544WAT     H255875   2.831   6.336   9.729
18545WAT      O55876   2.513   2.169   1.215
18545WAT     H155877   2.599   2.120   1.204
18545WAT     H255878   2.507   2.242   1.147
18546WAT      O55879   9.150   3.545   6.044
18546WAT     H155880   9.175   3.452   6.073
18546WAT     H255881   9.207   3.611   6.093
18547WAT      O55882   5.710   5.655   9.260
18547WAT     H155883   5.780   5.706   9.210
18547WAT     H255884   5.620   5.676   9.223
18548WAT      O55885   2.196   1.785   0.417
18548WAT     H155886   2.209   1.884   0.409
18548WAT     H255887   2.159   1.764   0.508
18549WAT      O55888   4.116   2.535   2.599
18549WAT     H155889   4.148   2.580   2.683
18549WAT     H255890   4.154   2.442   2.595
18550WAT      O55891   4.644   4.455   6.565
18550WAT     H155892   4.665   4.360   6.588
18550WAT     H255893   4.711   4.515   6.608
18551WAT      O55894   1.804   6.131   9.175
18551WAT     H155895   1.843   6.136   9.083
18551WAT     H255896   1.747   6.049   9.183
18552WAT      O55897   2.526   5.029   1.361
18552WAT     H155898   2.466   5.093   1.313
18552WAT     H255899   2.578   5.078   1.431
18553WAT      O55900   2.531   6.381   4.598
18553WAT     H155901   2.564   6.441   4.671
18553WAT     H255902   2.524   6.433   4.513
18554WAT      O55903   3.197   2.016   8.701
18554WAT     H155904   3.278   2.023   8.643
18554WAT     H255905   3.146   1.933   8.675
18555WAT      O55906   7.599   8.108   7.922
18555WAT     H155907   7.644   8.195   7.905
18555WAT     H255908   7.629   8.041   7.853
18556WAT      O55909   1.501   8.511   0.540
18556WAT     H155910   1.461   8.441   0.599
18556WAT     H255911   1.550   8.467   0.465
18557WAT      O55912   5.643   6.435   9.793
18557WAT     H155913   5.731   6.474   9.819
18557WAT     H255914   5.587   6.423   9.875
18558WAT      O55915   4.574   2.571   3.267
18558WAT     H155916   4.503   2.581   3.337
18558WAT     H255917   4.630   2.654   3.264
18559WAT      O55918   0.192   8.054   1.285
18559WAT     H155919   0.196   8.007   1.197
18559WAT     H255920   0.175   8.151   1.271
18560WAT      O55921   8.788   3.570   9.657
18560WAT     H155922   8.850   3.584   9.580
18560WAT     H255923   8.796   3.646   9.721
18561WAT      O55924   7.193   4.366   4.848
18561WAT     H155925   7.145   4.450   4.820
18561WAT     H255926   7.291   4.381   4.843
18562WAT      O55927   3.915   7.146   3.632
18562WAT     H155928   3.883   7.207   3.704
18562WAT     H255929   4.013   7.129   3.643
18563WAT      O55930   9.602   0.402   7.176
18563WAT     H155931   9.641   0.345   7.103
18563WAT     H255932   9.643   0.376   7.264
18564WAT      O55933   1.963   0.533   1.047
18564WAT     H155934   1.865   0.546   1.034
18564WAT     H255935   2.004   0.616   1.085
18565WAT      O55936   5.085   2.870   0.173
18565WAT     H155937   4.988   2.872   0.152
18565WAT     H255938   5.138   2.869   0.088
18566WAT      O55939   5.124   0.307   9.580
18566WAT     H155940   5.033   0.340   9.607
18566WAT     H255941   5.183   0.386   9.562
18567WAT      O55942   5.115   7.059   4.765
18567WAT     H155943   5.135   6.970   4.805
18567WAT     H255944   5.075   7.119   4.835
18568WAT      O55945   9.257   8.450   4.593
18568WAT     H155946   9.161   8.426   4.574
18568WAT     H255947   9.278   8.539   4.552
18569WAT      O55948   3.913   4.001   4.929
18569WAT     H155949   3.967   4.072   4.973
18569WAT     H255950   3.839   3.972   4.990
18570WAT      O55951   8.941   5.824   1.804
18570WAT     H155952   9.020   5.826   1.742
18570WAT     H255953   8.965   5.771   1.886
18571WAT      O55954   3.389   9.557   0.193
18571WAT     H155955   3.425   9.475   0.148
18571WAT     H255956   3.364   9.625   0.124
18572WAT      O55957   1.589   7.443   3.234
18572WAT     H155958   1.668   7.439   3.296
18572WAT     H255959   1.616   7.414   3.143
18573WAT      O55960   6.187   1.480   2.380
18573WAT     H155961   6.271   1.523   2.413
18573WAT     H255962   6.194   1.465   2.282
18574WAT      O55963   2.163   7.486   7.141
18574WAT     H155964   2.257   7.520   7.141
18574WAT     H255965   2.133   7.473   7.236
18575WAT      O55966   5.203   8.562   9.415
18575WAT     H155967   5.207   8.522   9.323
18575WAT     H255968   5.205   8.662   9.408
18576WAT      O55969   9.157   6.436   1.492
18576WAT     H155970   9.119   6.515   1.540
18576WAT     H255971   9.246   6.461   1.453
18577WAT      O55972   9.313   0.447   1.968
18577WAT     H155973   9.397   0.415   2.012
18577WAT     H255974   9.333   0.528   1.914
18578WAT      O55975   5.182   7.685   8.754
18578WAT     H155976   5.150   7.616   8.689
18578WAT     H255977   5.281   7.674   8.769
18579WAT      O55978   6.528   6.645   8.338
18579WAT     H155979   6.626   6.622   8.338
18579WAT     H255980   6.514   6.729   8.391
18580WAT      O55981   7.567   9.187   2.897
18580WAT     H155982   7.482   9.144   2.866
18580WAT     H255983   7.645   9.143   2.852
18581WAT      O55984   3.843   7.084   5.835
18581WAT     H155985   3.812   7.033   5.755
18581WAT     H255986   3.773   7.150   5.862
18582WAT      O55987   7.115   0.969   4.583
18582WAT     H155988   7.027   0.947   4.542
18582WAT     H255989   7.188   0.921   4.534
18583WAT      O55990   5.650   8.629   2.119
18583WAT     H155991   5.568   8.579   2.091
18583WAT     H255992   5.646   8.649   2.217
18584WAT      O55993   4.671   4.185   6.658
18584WAT     H155994   4.623   4.108   6.700
18584WAT     H255995   4.770   4.166   6.658
18585WAT      O55996   6.694   6.773   3.078
18585WAT     H155997   6.721   6.685   3.038
18585WAT     H255998   6.754   6.845   3.045
18586WAT      O55999   0.369   0.141   0.479
18586WAT     H156000   0.458   0.184   0.464
18586WAT     H256001   0.308   0.205   0.526
18587WAT      O56002   3.064   4.890   3.490
18587WAT     H156003   2.969   4.860   3.489
18587WAT     H256004   3.080   4.949   3.569
18588WAT      O56005   4.098   1.505   1.546
18588WAT     H156006   4.039   1.584   1.531
18588WAT     H256007   4.112   1.492   1.645
18589WAT      O56008   3.219   2.587   0.853
18589WAT     H156009   3.229   2.679   0.891
18589WAT     H256010   3.180   2.593   0.761
18590WAT      O56011   0.975   4.349   2.007
18590WAT     H156012   1.067   4.311   1.998
18590WAT     H256013   0.910   4.289   1.961
18591WAT      O56014   7.534   5.156   7.592
18591WAT     H156015   7.481   5.085   7.637
18591WAT     H256016   7.631   5.146   7.614
18592WAT      O56017   9.119   8.674   7.301
18592WAT     H156018   9.024   8.667   7.333
18592WAT     H256019   9.179   8.684   7.380
18593WAT      O56020   1.156   1.330   6.414
18593WAT     H156021   1.095   1.251   6.415
18593WAT     H256022   1.105   1.411   6.443
18594WAT      O56023   9.311   5.900   8.802
18594WAT     H156024   9.409   5.906   8.788
18594WAT     H256025   9.268   5.987   8.777
18595WAT      O56026   0.949   6.617   2.772
18595WAT     H156027   1.013   6.669   2.829
18595WAT     H256028   0.872   6.586   2.828
18596WAT      O56029   4.989   8.796   4.915
18596WAT     H156030   5.070   8.768   4.965
18596WAT     H256031   5.015   8.827   4.824
18597WAT      O56032   7.392   1.501   5.731
18597WAT     H156033   7.427   1.588   5.699
18597WAT     H256034   7.368   1.508   5.828
18598WAT      O56035   6.848   8.254   3.224
18598WAT     H156036   6.815   8.331   3.279
18598WAT     H256037   6.899   8.190   3.282
18599WAT      O56038   6.409   2.665   9.818
18599WAT     H156039   6.387   2.757   9.848
18599WAT     H256040   6.398   2.659   9.719
18600WAT      O56041   8.317   6.539   8.648
18600WAT     H156042   8.307   6.458   8.591
18600WAT     H256043   8.387   6.599   8.609
18601WAT      O56044   1.664   9.105   9.187
18601WAT     H156045   1.730   9.088   9.113
18601WAT     H256046   1.584   9.046   9.174
18602WAT      O56047   8.423   7.010   4.785
18602WAT     H156048   8.402   7.028   4.688
18602WAT     H256049   8.522   7.002   4.796
18603WAT      O56050   2.027   8.513   6.569
18603WAT     H156051   1.961   8.584   6.542
18603WAT     H256052   2.034   8.510   6.668
18604WAT      O56053   0.345   0.617   2.612
18604WAT     H156054   0.384   0.679   2.680
18604WAT     H256055   0.385   0.526   2.623
18605WAT      O56056   7.270   8.161   3.869
18605WAT     H156057   7.298   8.177   3.774
18605WAT     H256058   7.191   8.218   3.891
18606WAT      O56059   2.577   8.412   4.926
18606WAT     H156060   2.589   8.432   5.023
18606WAT     H256061   2.665   8.382   4.888
18607WAT      O56062   5.001   9.480   6.838
18607WAT     H156063   5.047   9.392   6.855
18607WAT     H256064   4.953   9.476   6.750
18608WAT      O56065   6.237   4.928   8.959
18608WAT     H156066   6.246   4.878   8.872
18608WAT     H256067   6.222   4.862   9.033
18609WAT      O56068   6.511   0.899   6.327
18609WAT     H156069   6.560   0.858   6.250
18609WAT     H256070   6.413   0.882   6.317
18610WAT      O56071   0.363   9.566   9.554
18610WAT     H156072   0.272   9.530   9.575
18610WAT     H256073   0.371   9.580   9.455
18611WAT      O56074   6.756   2.824   5.820
18611WAT     H156075   6.735   2.745   5.763
18611WAT     H256076   6.817   2.797   5.894
18612WAT      O56077   8.265   0.804   4.057
18612WAT     H156078   8.346   0.780   4.004
18612WAT     H256079   8.224   0.721   4.095
18613WAT      O56080   7.798   3.361   9.734
18613WAT     H156081   7.747   3.447   9.732
18613WAT     H256082   7.894   3.380   9.711
18614WAT      O56083   8.110   3.090   5.181
18614WAT     H156084   8.034   3.088   5.247
18614WAT     H256085   8.181   3.152   5.214
18615WAT      O56086   0.718   7.322   3.880
18615WAT     H156087   0.722   7.419   3.857
18615WAT     H256088   0.732   7.267   3.798
18616WAT      O56089   0.173   9.057   8.814
18616WAT     H156090   0.222   9.101   8.738
18616WAT     H256091   0.208   8.964   8.826
18617WAT      O56092   3.184   0.125   2.046
18617WAT     H156093   3.212   0.200   1.987
18617WAT     H256094   3.237   0.043   2.023
18618WAT      O56095   7.713   9.273   7.213
18618WAT     H156096   7.770   9.350   7.185
18618WAT     H256097   7.617   9.294   7.193
18619WAT      O56098   5.018   4.592   2.071
18619WAT     H156099   5.079   4.672   2.071
18619WAT     H256100   5.032   4.539   2.155
18620WAT      O56101   0.063   7.044   2.168
18620WAT     H156102   0.146   7.082   2.126
18620WAT     H256103   0.075   6.945   2.180
18621WAT      O56104   0.771   9.649   2.885
18621WAT     H156105   0.777   9.737   2.838
18621WAT     H256106   0.839   9.644   2.958
18622WAT      O56107   4.969   1.399   6.199
18622WAT     H156108   5.009   1.325   6.253
18622WAT     H256109   5.039   1.437   6.138
18623WAT      O56110   2.600   2.861   9.652
18623WAT     H156111   2.573   2.783   9.596
18623WAT     H256112   2.687   2.842   9.697
18624WAT      O56113   1.045   1.564   4.096
18624WAT     H156114   0.969   1.519   4.050
18624WAT     H256115   1.112   1.594   4.029
18625WAT      O56116   6.866   5.918   0.708
18625WAT     H156117   6.822   6.008   0.713
18625WAT     H256118   6.933   5.909   0.781
18626WAT      O56119   3.492   3.163   4.122
18626WAT     H156120   3.397   3.140   4.103
18626WAT     H256121   3.538   3.084   4.162
18627WAT      O56122   0.725   1.154   8.500
18627WAT     H156123   0.626   1.159   8.515
18627WAT     H256124   0.749   1.066   8.460
18628WAT      O56125   9.878   7.695   7.099
18628WAT     H156126   9.875   7.607   7.145
18628WAT     H256127   9.833   7.688   7.010
18629WAT      O56128   6.235   9.785   1.260
18629WAT     H156129   6.256   9.876   1.295
18629WAT     H256130   6.165   9.742   1.318
18630WAT      O56131   5.868   2.323   6.844
18630WAT     H156132   5.772   2.307   6.867
18630WAT     H256133   5.923   2.246   6.875
18631WAT      O56134   3.673   3.141   6.482
18631WAT     H156135   3.598   3.147   6.548
18631WAT     H256136   3.663   3.212   6.413
18632WAT      O56137   3.921   9.306   9.607
18632WAT     H156138   3.929   9.243   9.530
18632WAT     H256139   3.826   9.336   9.616
18633WAT      O56140   5.479   4.127   4.086
18633WAT     H156141   5.537   4.194   4.039
18633WAT     H256142   5.489   4.038   4.041
18634WAT      O56143   0.024   3.444   4.097
18634WAT     H156144  -0.009   3.529   4.056
18634WAT     H256145   0.106   3.463   4.150
18635WAT      O56146   4.678   9.170   3.139
18635WAT     H156147   4.727   9.216   3.065
18635WAT     H256148   4.583   9.157   3.113
18636WAT      O56149   4.744   1.073   5.996
18636WAT     H156150   4.684   1.084   6.076
18636WAT     H256151   4.839   1.093   6.023
18637WAT      O56152   0.784   4.242   9.720
18637WAT     H156153   0.768   4.328   9.672
18637WAT     H256154   0.730   4.169   9.677
18638WAT      O56155   3.148   3.010   6.798
18638WAT     H156156   3.191   2.927   6.835
18638WAT     H256157   3.119   2.993   6.704
18639WAT      O56158   6.737   3.418   6.095
18639WAT     H156159   6.820   3.424   6.150
18639WAT     H256160   6.735   3.330   6.047
18640WAT      O56161   7.520   7.054   0.473
18640WAT     H156162   7.485   7.030   0.564
18640WAT     H256163   7.541   6.971   0.422
18641WAT      O56164   1.755   1.498   2.518
18641WAT     H156165   1.721   1.555   2.593
18641WAT     H256166   1.849   1.471   2.538
18642WAT      O56167   5.282   3.523   1.841
18642WAT     H156168   5.336   3.593   1.888
18642WAT     H256169   5.216   3.483   1.905
18643WAT      O56170   7.546   5.833   6.451
18643WAT     H156171   7.514   5.751   6.499
18643WAT     H256172   7.488   5.911   6.476
18644WAT      O56173   3.545   5.336   4.713
18644WAT     H156174   3.551   5.436   4.711
18644WAT     H256175   3.475   5.305   4.650
18645WAT      O56176   4.855   8.319   1.196
18645WAT     H156177   4.947   8.345   1.227
18645WAT     H256178   4.861   8.234   1.143
18646WAT      O56179   4.197   5.082   3.529
18646WAT     H156180   4.136   5.003   3.535
18646WAT     H256181   4.292   5.051   3.531
18647WAT      O56182   1.110   3.104   1.630
18647WAT     H156183   1.077   3.142   1.717
18647WAT     H256184   1.165   3.023   1.649
18648WAT      O56185   3.053   6.394   6.427
18648WAT     H156186   2.958   6.370   6.406
18648WAT     H256187   3.102   6.311   6.454
18649WAT      O56188   8.878   9.264   7.346
18649WAT     H156189   8.781   9.290   7.343
18649WAT     H256190   8.935   9.343   7.323
18650WAT      O56191   0.633   3.467   5.337
18650WAT     H156192   0.561   3.479   5.406
18650WAT     H256193   0.597   3.417   5.259
18651WAT      O56194   4.515   8.157   2.120
18651WAT     H156195   4.612   8.149   2.143
18651WAT     H256196   4.481   8.246   2.150
18652WAT      O56197   0.688   0.150   3.714
18652WAT     H156198   0.771   0.130   3.766
18652WAT     H256199   0.666   0.072   3.655
18653WAT      O56200   3.587   9.513   4.044
18653WAT     H156201   3.578   9.531   4.142
18653WAT     H256202   3.500   9.479   4.008
18654WAT      O56203   9.604   7.560   7.159
18654WAT     H156204   9.645   7.535   7.247
18654WAT     H256205   9.525   7.620   7.175
18655WAT      O56206   7.447   7.262   4.676
18655WAT     H156207   7.430   7.349   4.723
18655WAT     H256208   7.541   7.260   4.643
18656WAT      O56209   1.217   9.516   9.320
18656WAT     H156210   1.217   9.612   9.347
18656WAT     H256211   1.124   9.488   9.295
18657WAT      O56212   1.399   7.768   5.011
18657WAT     H156213   1.486   7.764   4.963
18657WAT     H256214   1.324   7.773   4.945
18658WAT      O56215   8.038   5.698   6.415
18658WAT     H156216   7.996   5.608   6.426
18658WAT     H256217   8.082   5.725   6.501
18659WAT      O56218   4.223   1.908   4.499
18659WAT     H156219   4.159   1.902   4.422
18659WAT     H256220   4.209   1.830   4.560
18660WAT      O56221   8.762   5.470   8.748
18660WAT     H156222   8.851   5.441   8.783
18660WAT     H256223   8.704   5.389   8.735
18661WAT      O56224   8.240   3.153   0.729
18661WAT     H156225   8.156   3.133   0.678
18661WAT     H256226   8.305   3.079   0.716
18662WAT      O56227   3.113   9.682   2.700
18662WAT     H156228   3.058   9.709   2.779
18662WAT     H256229   3.193   9.631   2.732
18663WAT      O56230   3.516   2.438   1.166
18663WAT     H156231   3.446   2.424   1.237
18663WAT     H256232   3.559   2.528   1.179
18664WAT      O56233   8.599   5.878   3.747
18664WAT     H156234   8.636   5.924   3.828
18664WAT     H256235   8.500   5.894   3.742
18665WAT      O56236   6.848   1.501   1.719
18665WAT     H156237   6.898   1.533   1.638
18665WAT     H256238   6.913   1.465   1.786
18666WAT      O56239   2.810   4.236   8.180
18666WAT     H156240   2.719   4.213   8.147
18666WAT     H256241   2.834   4.329   8.152
18667WAT      O56242   5.631   7.116   3.718
18667WAT     H156243   5.617   7.177   3.797
18667WAT     H256244   5.672   7.031   3.749
18668WAT      O56245   0.112   8.289   5.035
18668WAT     H156246   0.158   8.371   5.070
18668WAT     H256247   0.015   8.294   5.055
18669WAT      O56248   5.859   8.199   4.854
18669WAT     H156249   5.870   8.109   4.894
18669WAT     H256250   5.865   8.193   4.754
18670WAT      O56251   9.499   8.868   7.628
18670WAT     H156252   9.555   8.951   7.621
18670WAT     H256253   9.556   8.788   7.607
18671WAT      O56254   4.986   8.521   2.895
18671WAT     H156255   5.085   8.539   2.899
18671WAT     H256256   4.962   8.453   2.964
18672WAT      O56257   1.210   5.631   8.255
18672WAT     H156258   1.201   5.717   8.306
18672WAT     H256259   1.160   5.559   8.303
18673WAT      O56260   3.978   1.843   5.771
18673WAT     H156261   4.066   1.811   5.806
18673WAT     H256262   3.963   1.938   5.800
18674WAT      O56263   4.787   0.645   0.007
18674WAT     H156264   4.843   0.671  -0.072
18674WAT     H256265   4.690   0.655  -0.016
18675WAT      O56266   3.741   4.031   1.604
18675WAT     H156267   3.702   3.981   1.681
18675WAT     H256268   3.749   4.128   1.628
18676WAT      O56269   0.774   5.861   6.197
18676WAT     H156270   0.715   5.926   6.246
18676WAT     H256271   0.820   5.909   6.122
18677WAT      O56272   4.171   1.324   3.359
18677WAT     H156273   4.164   1.271   3.275
18677WAT     H256274   4.232   1.402   3.344
18678WAT      O56275   4.902   2.109   0.411
18678WAT     H156276   4.884   2.192   0.465
18678WAT     H256277   4.998   2.083   0.420
18679WAT      O56278   6.351   2.633   0.394
18679WAT     H156279   6.398   2.574   0.328
18679WAT     H256280   6.403   2.717   0.407
18680WAT      O56281   0.428   0.845   2.435
18680WAT     H156282   0.370   0.788   2.493
18680WAT     H256283   0.514   0.865   2.483
18681WAT      O56284   3.648   1.662   7.089
18681WAT     H156285   3.586   1.615   7.152
18681WAT     H256286   3.600   1.736   7.043
18682WAT      O56287   6.193   0.276   0.826
18682WAT     H156288   6.269   0.221   0.861
18682WAT     H256289   6.223   0.371   0.818
18683WAT      O56290   2.092   6.569   8.649
18683WAT     H156291   2.172   6.618   8.683
18683WAT     H256292   2.120   6.480   8.612
18684WAT      O56293   0.711   2.885   0.416
18684WAT     H156294   0.808   2.890   0.440
18684WAT     H256295   0.681   2.975   0.383
18685WAT      O56296   1.590   9.443   9.772
18685WAT     H156297   1.497   9.435   9.807
18685WAT     H256298   1.592   9.507   9.695
18686WAT      O56299   4.871   1.192   2.765
18686WAT     H156300   4.962   1.159   2.739
18686WAT     H256301   4.833   1.246   2.690
18687WAT      O56302   6.897   5.364   8.081
18687WAT     H156303   6.933   5.362   7.988
18687WAT     H256304   6.864   5.273   8.106
18688WAT      O56305   9.022   1.992   5.522
18688WAT     H156306   8.965   2.034   5.593
18688WAT     H256307   8.974   1.996   5.434
18689WAT      O56308   2.757   1.843   5.330
18689WAT     H156309   2.726   1.927   5.286
18689WAT     H256310   2.709   1.765   5.292
18690WAT      O56311   6.185   0.599   5.125
18690WAT     H156312   6.172   0.503   5.100
18690WAT     H256313   6.099   0.648   5.115
18691WAT      O56314   3.929   9.299   0.917
18691WAT     H156315   3.898   9.370   0.980
18691WAT     H256316   3.852   9.271   0.858
18692WAT      O56317   7.184   8.733   0.394
18692WAT     H156318   7.104   8.684   0.427
18692WAT     H256319   7.180   8.828   0.424
18693WAT      O56320   8.723   2.720   2.658
18693WAT     H156321   8.760   2.634   2.622
18693WAT     H256322   8.784   2.756   2.729
18694WAT      O56323   4.019   3.564   2.494
18694WAT     H156324   4.071   3.640   2.535
18694WAT     H256325   3.921   3.582   2.501
18695WAT      O56326   8.312   0.733   2.932
18695WAT     H156327   8.299   0.672   3.010
18695WAT     H256328   8.406   0.727   2.900
18696WAT      O56329   3.996   0.960   6.035
18696WAT     H156330   4.079   1.014   6.047
18696WAT     H256331   3.984   0.938   5.939
18697WAT      O56332   8.677   8.126   2.734
18697WAT     H156333   8.636   8.057   2.793
18697WAT     H256334   8.724   8.082   2.658
18698WAT      O56335   3.263   5.569   8.092
18698WAT     H156336   3.309   5.483   8.114
18698WAT     H256337   3.215   5.560   8.005
18699WAT      O56338   3.658   6.088   6.773
18699WAT     H156339   3.731   6.039   6.821
18699WAT     H256340   3.646   6.179   6.814
18700WAT      O56341   2.530   6.670   1.134
18700WAT     H156342   2.628   6.653   1.123
18700WAT     H256343   2.514   6.768   1.149
18701WAT      O56344   2.693   9.231   6.266
18701WAT     H156345   2.785   9.266   6.249
18701WAT     H256346   2.631   9.264   6.196
18702WAT      O56347   9.726   2.221   5.479
18702WAT     H156348   9.718   2.319   5.460
18702WAT     H256349   9.798   2.206   5.547
18703WAT      O56350   5.516   7.908   7.243
18703WAT     H156351   5.458   7.942   7.169
18703WAT     H256352   5.485   7.817   7.270
18704WAT      O56353   7.940   8.092   2.333
18704WAT     H156354   7.952   8.129   2.240
18704WAT     H256355   8.007   8.133   2.394
18705WAT      O56356   2.917   1.518   2.493
18705WAT     H156357   2.985   1.518   2.567
18705WAT     H256358   2.964   1.524   2.405
18706WAT      O56359   5.336   5.704   2.071
18706WAT     H156360   5.417   5.720   2.015
18706WAT     H256361   5.261   5.673   2.013
18707WAT      O56362   9.103   7.065   1.791
18707WAT     H156363   9.058   6.991   1.840
18707WAT     H256364   9.116   7.038   1.695
18708WAT      O56365   8.802   3.676   4.311
18708WAT     H156366   8.742   3.752   4.333
18708WAT     H256367   8.832   3.684   4.216
18709WAT      O56368   2.406   9.746   4.512
18709WAT     H156369   2.353   9.824   4.545
18709WAT     H256370   2.364   9.708   4.430
18710WAT      O56371   7.210   5.160   6.047
18710WAT     H156372   7.284   5.153   5.981
18710WAT     H256373   7.207   5.078   6.104
18711WAT      O56374   5.101   5.861   0.312
18711WAT     H156375   5.179   5.826   0.260
18711WAT     H256376   5.131   5.884   0.405
18712WAT      O56377   1.385   6.979   4.117
18712WAT     H156378   1.321   7.056   4.107
18712WAT     H256379   1.391   6.953   4.214
18713WAT      O56380   7.739   8.173   4.834
18713WAT     H156381   7.809   8.244   4.835
18713WAT     H256382   7.703   8.161   4.927
18714WAT      O56383   0.963   2.685   7.483
18714WAT     H156384   0.948   2.660   7.387
18714WAT     H256385   1.053   2.651   7.512
18715WAT      O56386   7.680   5.050   2.409
18715WAT     H156387   7.587   5.037   2.443
18715WAT     H256388   7.680   5.046   2.309
18716WAT      O56389   9.042   6.008   4.329
18716WAT     H156390   9.132   5.979   4.297
18716WAT     H256391   8.986   6.038   4.252
18717WAT      O56392   4.120   5.562   6.445
18717WAT     H156393   4.143   5.645   6.498
18717WAT     H256394   4.098   5.588   6.351
18718WAT      O56395   7.767   0.366   2.794
18718WAT     H156396   7.826   0.340   2.871
18718WAT     H256397   7.701   0.435   2.825
18719WAT      O56398   9.882   9.802   7.374
18719WAT     H156399   9.809   9.837   7.315
18719WAT     H256400   9.848   9.794   7.468
18720WAT      O56401   1.044   4.604   8.892
18720WAT     H156402   1.001   4.631   8.806
18720WAT     H256403   1.133   4.649   8.900
18721WAT      O56404   5.368   4.681   2.162
18721WAT     H156405   5.366   4.736   2.246
18721WAT     H256406   5.302   4.717   2.097
18722WAT      O56407   6.639   1.220   8.610
18722WAT     H156408   6.733   1.250   8.625
18722WAT     H256409   6.607   1.170   8.690
18723WAT      O56410   6.910   4.680   0.123
18723WAT     H156411   7.009   4.661   0.116
18723WAT     H256412   6.859   4.605   0.080
18724WAT      O56413   0.973   4.227   1.542
18724WAT     H156414   1.010   4.288   1.612
18724WAT     H256415   1.012   4.251   1.453
18725WAT      O56416   8.716   0.322   8.822
18725WAT     H156417   8.655   0.401   8.820
18725WAT     H256418   8.697   0.267   8.903
18726WAT      O56419   6.666   2.779   1.617
18726WAT     H156420   6.568   2.779   1.598
18726WAT     H256421   6.708   2.860   1.575
18727WAT      O56422   9.151   2.253   8.573
18727WAT     H156423   9.064   2.302   8.564
18727WAT     H256424   9.221   2.298   8.518
18728WAT      O56425   3.060   2.201   8.168
18728WAT     H156426   3.133   2.172   8.106
18728WAT     H256427   3.097   2.212   8.260
18729WAT      O56428   0.822   0.945   6.686
18729WAT     H156429   0.901   1.001   6.662
18729WAT     H256430   0.776   0.914   6.602
18730WAT      O56431   7.403   3.794   0.825
18730WAT     H156432   7.497   3.820   0.803
18730WAT     H256433   7.368   3.735   0.752
18731WAT      O56434   1.510   4.228   1.952
18731WAT     H156435   1.600   4.253   1.986
18731WAT     H256436   1.520   4.162   1.877
18732WAT      O56437   9.169   5.697   8.891
18732WAT     H156438   9.190   5.678   8.987
18732WAT     H256439   9.224   5.774   8.859
18733WAT      O56440   6.295   7.653   5.618
18733WAT     H156441   6.355   7.692   5.547
18733WAT     H256442   6.259   7.727   5.674
18734WAT      O56443   6.797   0.024   9.057
18734WAT     H156444   6.771  -0.073   9.058
18734WAT     H256445   6.895   0.032   9.038
18735WAT      O56446   1.416   3.620   0.618
18735WAT     H156447   1.484   3.609   0.690
18735WAT     H256448   1.402   3.532   0.571
18736WAT      O56449   9.519   2.699   1.265
18736WAT     H156450   9.500   2.788   1.308
18736WAT     H256451   9.512   2.627   1.334
18737WAT      O56452   9.170   9.216   6.032
18737WAT     H156453   9.226   9.186   6.109
18737WAT     H256454   9.134   9.136   5.984
18738WAT      O56455   6.575   2.170   5.119
18738WAT     H156456   6.673   2.152   5.116
18738WAT     H256457   6.556   2.263   5.087
18739WAT      O56458   7.617   7.948   8.830
18739WAT     H156459   7.702   7.973   8.877
18739WAT     H256460   7.543   7.943   8.897
18740WAT      O56461   1.899   5.341   3.707
18740WAT     H156462   1.918   5.243   3.696
18740WAT     H256463   1.803   5.354   3.728
18741WAT      O56464   1.674   4.113   5.450
18741WAT     H156465   1.580   4.130   5.479
18741WAT     H256466   1.717   4.049   5.513
18742WAT      O56467   1.002   5.858   3.990
18742WAT     H156468   1.043   5.927   3.930
18742WAT     H256469   1.017   5.885   4.086
18743WAT      O56470   1.705   9.209   2.262
18743WAT     H156471   1.660   9.131   2.305
18743WAT     H256472   1.646   9.245   2.189
18744WAT      O56473   4.316   1.396   8.880
18744WAT     H156474   4.223   1.394   8.841
18744WAT     H256475   4.355   1.304   8.878
18745WAT      O56476   4.734   3.594   3.146
18745WAT     H156477   4.655   3.613   3.204
18745WAT     H256478   4.719   3.634   3.055
18746WAT      O56479   3.522   0.463   8.843
18746WAT     H156480   3.429   0.501   8.840
18746WAT     H256481   3.543   0.420   8.755
18747WAT      O56482   7.485   7.229   0.265
18747WAT     H156483   7.444   7.314   0.300
18747WAT     H256484   7.478   7.158   0.335
18748WAT      O56485   5.036   4.362   3.093
18748WAT     H156486   5.074   4.343   3.002
18748WAT     H256487   5.073   4.296   3.158
18749WAT      O56488   7.552   0.657   1.075
18749WAT     H156489   7.641   0.634   1.034
18749WAT     H256490   7.480   0.607   1.027
18750WAT      O56491   8.307   6.793   4.541
18750WAT     H156492   8.363   6.723   4.585
18750WAT     H256493   8.364   6.871   4.516
18751WAT      O56494   2.483   6.727   5.842
18751WAT     H156495   2.538   6.808   5.824
18751WAT     H256496   2.543   6.652   5.871
18752WAT      O56497   8.894   5.848   8.092
18752WAT     H156498   8.867   5.938   8.057
18752WAT     H256499   8.816   5.786   8.088
18753WAT      O56500   8.526   0.634   7.171
18753WAT     H156501   8.546   0.710   7.234
18753WAT     H256502   8.555   0.659   7.079
18754WAT      O56503   1.824   5.766   1.341
18754WAT     H156504   1.810   5.687   1.400
18754WAT     H256505   1.807   5.741   1.246
18755WAT      O56506   0.118   4.242   2.410
18755WAT     H156507   0.168   4.306   2.352
18755WAT     H256508   0.177   4.213   2.486
18756WAT      O56509   3.093   5.218   6.080
18756WAT     H156510   3.124   5.278   6.154
18756WAT     H256511   3.041   5.142   6.118
18757WAT      O56512   5.341   1.692   0.665
18757WAT     H156513   5.417   1.751   0.693
18757WAT     H256514   5.315   1.633   0.742
18758WAT      O56515   4.964   5.036   0.426
18758WAT     H156516   4.891   5.084   0.376
18758WAT     H256517   4.999   4.961   0.369
18759WAT      O56518   0.699   0.495   5.691
18759WAT     H156519   0.669   0.558   5.620
18759WAT     H256520   0.716   0.545   5.776
18760WAT      O56521   7.591   9.771   4.512
18760WAT     H156522   7.595   9.780   4.611
18760WAT     H256523   7.496   9.755   4.484
18761WAT      O56524   9.677   3.802   7.670
18761WAT     H156525   9.761   3.803   7.724
18761WAT     H256526   9.696   3.762   7.580
18762WAT      O56527   3.692   9.804   9.140
18762WAT     H156528   3.792   9.809   9.151
18762WAT     H256529   3.648   9.837   9.224
18763WAT      O56530   9.248   8.713   7.540
18763WAT     H156531   9.336   8.725   7.586
18763WAT     H256532   9.185   8.784   7.570
18764WAT      O56533   3.157   7.109   6.026
18764WAT     H156534   3.093   7.035   6.005
18764WAT     H256535   3.249   7.083   5.998
18765WAT      O56536   1.945   2.979   1.122
18765WAT     H156537   1.875   3.005   1.188
18765WAT     H256538   2.029   3.029   1.140
18766WAT      O56539   6.210   4.199   2.384
18766WAT     H156540   6.293   4.152   2.412
18766WAT     H256541   6.138   4.132   2.365
18767WAT      O56542   9.187   6.157   2.862
18767WAT     H156543   9.214   6.093   2.934
18767WAT     H256544   9.189   6.110   2.773
18768WAT      O56545   5.524   9.669   9.806
18768WAT     H156546   5.614   9.632   9.781
18768WAT     H256547   5.508   9.654   9.904
18769WAT      O56548   7.963   8.595   1.391
18769WAT     H156549   8.042   8.650   1.364
18769WAT     H256550   7.958   8.514   1.334
18770WAT      O56551   9.523   2.448   4.966
18770WAT     H156552   9.578   2.364   4.962
18770WAT     H256553   9.432   2.427   5.001
18771WAT      O56554   6.485   7.602   7.445
18771WAT     H156555   6.571   7.630   7.401
18771WAT     H256556   6.454   7.675   7.506
18772WAT      O56557   9.719   8.545   6.400
18772WAT     H156558   9.770   8.630   6.412
18772WAT     H256559   9.780   8.467   6.412
18773WAT      O56560   7.176   6.616   0.215
18773WAT     H156561   7.226   6.642   0.132
18773WAT     H256562   7.124   6.695   0.249
18774WAT      O56563   8.845   3.955   7.587
18774WAT     H156564   8.899   3.960   7.671
18774WAT     H256565   8.750   3.978   7.607
18775WAT      O56566   6.827   4.618   8.272
18775WAT     H156567   6.912   4.588   8.229
18775WAT     H256568   6.844   4.640   8.368
18776WAT      O56569   1.049   6.300   7.975
18776WAT     H156570   1.107   6.350   7.911
18776WAT     H256571   1.103   6.266   8.051
18777WAT      O56572   8.403   9.228   4.284
18777WAT     H156573   8.332   9.222   4.214
18777WAT     H256574   8.493   9.219   4.242
18778WAT      O56575   4.068   0.519   4.821
18778WAT     H156576   3.981   0.468   4.818
18778WAT     H256577   4.094   0.535   4.916
18779WAT      O56578   2.178   8.122   9.530
18779WAT     H156579   2.274   8.112   9.505
18779WAT     H256580   2.121   8.119   9.447
18780WAT      O56581   6.979   8.476   4.122
18780WAT     H156582   7.025   8.433   4.045
18780WAT     H256583   6.989   8.419   4.203
18781WAT      O56584   9.061   8.781   9.682
18781WAT     H156585   9.057   8.682   9.695
18781WAT     H256586   9.001   8.807   9.607
18782WAT      O56587   7.213   4.902   6.162
18782WAT     H156588   7.126   4.930   6.203
18782WAT     H256589   7.258   4.836   6.222
18783WAT      O56590   5.841   1.507   3.969
18783WAT     H156591   5.816   1.597   3.935
18783WAT     H256592   5.936   1.508   3.999
18784WAT      O56593   6.094   7.854   5.311
18784WAT     H156594   6.184   7.891   5.331
18784WAT     H256595   6.097   7.802   5.225
18785WAT      O56596   7.616   1.834   5.011
18785WAT     H156597   7.558   1.865   4.935
18785WAT     H256598   7.630   1.910   5.075
18786WAT      O56599   0.573   2.581   8.029
18786WAT     H156600   0.506   2.576   7.955
18786WAT     H256601   0.662   2.610   7.991
18787WAT      O56602   1.189   1.424   5.003
18787WAT     H156603   1.270   1.478   4.980
18787WAT     H256604   1.116   1.485   5.036
18788WAT      O56605   8.606   2.852   2.433
18788WAT     H156606   8.659   2.814   2.508
18788WAT     H256607   8.667   2.892   2.365
18789WAT      O56608   4.996   7.879   8.695
18789WAT     H156609   4.924   7.821   8.731
18789WAT     H256610   5.085   7.839   8.715
18790WAT      O56611   7.026   6.747   0.946
18790WAT     H156612   7.089   6.795   1.008
18790WAT     H256613   7.043   6.776   0.852
18791WAT      O56614   3.132   4.830   8.955
18791WAT     H156615   3.219   4.786   8.979
18791WAT     H256616   3.149   4.917   8.909
18792WAT      O56617   5.687   8.177   7.984
18792WAT     H156618   5.736   8.098   8.021
18792WAT     H256619   5.666   8.241   8.057
18793WAT      O56620   9.138   0.799   1.587
18793WAT     H156621   9.185   0.845   1.512
18793WAT     H256622   9.175   0.831   1.674
18794WAT      O56623   9.315   8.342   0.800
18794WAT     H156624   9.235   8.386   0.840
18794WAT     H256625   9.384   8.327   0.871
18795WAT      O56626   8.767   0.213   5.024
18795WAT     H156627   8.735   0.303   5.053
18795WAT     H256628   8.807   0.219   4.933
18796WAT      O56629   5.523   4.331   6.740
18796WAT     H156630   5.576   4.336   6.655
18796WAT     H256631   5.572   4.276   6.807
18797WAT      O56632   2.924   5.782   4.134
18797WAT     H156633   2.853   5.732   4.184
18797WAT     H256634   2.912   5.880   4.149
18798WAT      O56635   7.786   2.237   3.835
18798WAT     H156636   7.845   2.181   3.894
18798WAT     H256637   7.823   2.329   3.828
18799WAT      O56638   3.925   0.688   7.985
18799WAT     H156639   3.912   0.786   7.967
18799WAT     H256640   3.936   0.674   8.083
18800WAT      O56641   6.371   7.545   5.189
18800WAT     H156642   6.324   7.463   5.221
18800WAT     H256643   6.440   7.573   5.255
18801WAT      O56644   4.388   3.668   2.329
18801WAT     H156645   4.365   3.737   2.260
18801WAT     H256646   4.478   3.688   2.367
18802WAT      O56647   0.139   0.049   4.705
18802WAT     H156648   0.124   0.135   4.656
18802WAT     H256649   0.189   0.068   4.790
18803WAT      O56650   8.552   2.847   1.541
18803WAT     H156651   8.624   2.880   1.602
18803WAT     H256652   8.489   2.788   1.592
18804WAT      O56653   1.228   5.834   8.441
18804WAT     H156654   1.165   5.892   8.389
18804WAT     H256655   1.304   5.890   8.475
18805WAT      O56656   8.148   6.375   7.068
18805WAT     H156657   8.155   6.417   7.159
18805WAT     H256658   8.067   6.317   7.064
18806WAT      O56659   0.888   7.049   4.800
18806WAT     H156660   0.924   7.026   4.709
18806WAT     H256661   0.789   7.037   4.800
18807WAT      O56662   6.835   5.802   1.465
18807WAT     H156663   6.774   5.786   1.388
18807WAT     H256664   6.781   5.808   1.549
18808WAT      O56665   3.508   4.995   6.310
18808WAT     H156666   3.574   4.968   6.381
18808WAT     H256667   3.434   5.046   6.353
18809WAT      O56668   8.130   7.806   2.810
18809WAT     H156669   8.067   7.800   2.732
18809WAT     H256670   8.096   7.748   2.884
18810WAT      O56671   5.562   5.877   6.276
18810WAT     H156672   5.617   5.820   6.337
18810WAT     H256673   5.586   5.973   6.290
18811WAT      O56674   4.825   1.662   9.577
18811WAT     H156675   4.889   1.648   9.652
18811WAT     H256676   4.773   1.578   9.561
18812WAT      O56677   6.412   5.797   0.682
18812WAT     H156678   6.371   5.715   0.723
18812WAT     H256679   6.508   5.780   0.662
18813WAT      O56680   0.802   4.982   8.458
18813WAT     H156681   0.849   5.041   8.523
18813WAT     H256682   0.868   4.929   8.406
18814WAT      O56683   1.803   6.172   1.133
18814WAT     H156684   1.802   6.110   1.211
18814WAT     H256685   1.720   6.228   1.134
18815WAT      O56686   0.679   3.442   0.517
18815WAT     H156687   0.625   3.427   0.434
18815WAT     H256688   0.683   3.540   0.537
18816WAT      O56689   3.823   5.104   5.748
18816WAT     H156690   3.919   5.079   5.765
18816WAT     H256691   3.803   5.095   5.651
18817WAT      O56692   6.403   8.006   0.774
18817WAT     H156693   6.497   7.989   0.746
18817WAT     H256694   6.402   8.039   0.869
18818WAT      O56695   1.046   9.641   8.624
18818WAT     H156696   1.108   9.570   8.592
18818WAT     H256697   1.079   9.730   8.593
18819WAT      O56698   9.786   0.881   6.399
18819WAT     H156699   9.871   0.843   6.363
18819WAT     H256700   9.728   0.807   6.433
18820WAT      O56701   3.763   8.526   6.217
18820WAT     H156702   3.809   8.591   6.278
18820WAT     H256703   3.741   8.443   6.268
18821WAT      O56704   4.457   5.912   1.428
18821WAT     H156705   4.541   5.947   1.386
18821WAT     H256706   4.402   5.988   1.461
18822WAT      O56707   6.433   3.663   4.143
18822WAT     H156708   6.412   3.710   4.057
18822WAT     H256709   6.377   3.580   4.151
18823WAT      O56710   3.589   7.943   8.689
18823WAT     H156711   3.611   7.890   8.607
18823WAT     H256712   3.641   7.906   8.767
18824WAT      O56713   9.764   7.136   8.759
18824WAT     H156714   9.705   7.067   8.800
18824WAT     H256715   9.858   7.121   8.788
18825WAT      O56716   5.302   4.712   8.351
18825WAT     H156717   5.229   4.654   8.316
18825WAT     H256718   5.379   4.654   8.381
18826WAT      O56719   0.372   2.367   7.251
18826WAT     H156720   0.289   2.323   7.216
18826WAT     H256721   0.352   2.462   7.274
18827WAT      O56722   9.211   0.153   4.328
18827WAT     H156723   9.173   0.062   4.339
18827WAT     H256724   9.307   0.147   4.302
18828WAT      O56725   2.598   8.082   9.683
18828WAT     H156726   2.686   8.082   9.731
18828WAT     H256727   2.583   8.171   9.640
18829WAT      O56728   2.492   0.460   3.805
18829WAT     H156729   2.548   0.539   3.784
18829WAT     H256730   2.546   0.376   3.794
18830WAT      O56731   5.722   5.783   5.695
18830WAT     H156732   5.646   5.739   5.648
18830WAT     H256733   5.802   5.723   5.693
18831WAT      O56734   7.986   7.575   0.143
18831WAT     H156735   8.046   7.605   0.069
18831WAT     H256736   8.041   7.534   0.216
18832WAT      O56737   9.299   8.983   7.229
18832WAT     H156738   9.216   8.928   7.230
18832WAT     H256739   9.280   9.072   7.186
18833WAT      O56740   9.165   3.110   9.584
18833WAT     H156741   9.151   3.016   9.616
18833WAT     H256742   9.231   3.155   9.644
18834WAT      O56743   5.174   1.276   2.524
18834WAT     H156744   5.157   1.249   2.618
18834WAT     H256745   5.232   1.357   2.522
18835WAT      O56746   3.751   9.534   6.139
18835WAT     H156747   3.672   9.529   6.199
18835WAT     H256748   3.828   9.485   6.181
18836WAT      O56749   8.819   8.288   7.589
18836WAT     H156750   8.905   8.238   7.598
18836WAT     H256751   8.816   8.363   7.655
18837WAT      O56752   1.257   8.752   7.741
18837WAT     H156753   1.323   8.685   7.707
18837WAT     H256754   1.168   8.738   7.698
18838WAT      O56755   8.727   8.288   1.803
18838WAT     H156756   8.793   8.356   1.834
18838WAT     H256757   8.757   8.247   1.717
18839WAT      O56758   8.725   0.421   5.735
18839WAT     H156759   8.754   0.399   5.828
18839WAT     H256760   8.797   0.470   5.688
18840WAT      O56761   7.620   7.980   1.914
18840WAT     H156762   7.541   7.989   1.974
18840WAT     H256763   7.624   8.058   1.852
18841WAT      O56764   3.871   4.705   9.225
18841WAT     H156765   3.870   4.607   9.202
18841WAT     H256766   3.937   4.752   9.167
18842WAT      O56767   1.006   9.359   9.241
18842WAT     H156768   1.034   9.333   9.148
18842WAT     H256769   0.996   9.277   9.297
18843WAT      O56770   0.726   8.314   2.437
18843WAT     H156771   0.702   8.317   2.534
18843WAT     H256772   0.764   8.402   2.409
18844WAT      O56773   9.270   4.508   8.626
18844WAT     H156774   9.203   4.454   8.575
18844WAT     H256775   9.236   4.601   8.636
18845WAT      O56776   2.808   6.842   2.103
18845WAT     H156777   2.894   6.800   2.075
18845WAT     H256778   2.749   6.852   2.023
18846WAT      O56779   5.490   7.872   0.007
18846WAT     H156780   5.496   7.970  -0.009
18846WAT     H256781   5.469   7.825  -0.079
18847WAT      O56782   1.920   5.237   7.792
18847WAT     H156783   1.865   5.157   7.767
18847WAT     H256784   1.946   5.230   7.889
18848WAT      O56785   3.693   0.642   2.985
18848WAT     H156786   3.642   0.724   2.961
18848WAT     H256787   3.691   0.578   2.908
18849WAT      O56788   1.594   1.562   6.284
18849WAT     H156789   1.596   1.556   6.384
18849WAT     H256790   1.686   1.584   6.251
18850WAT      O56791   1.602   6.978   1.321
18850WAT     H156792   1.675   6.911   1.338
18850WAT     H256793   1.627   7.066   1.362
18851WAT      O56794   1.477   8.977   5.879
18851WAT     H156795   1.500   8.968   5.782
18851WAT     H256796   1.446   9.070   5.898
18852WAT      O56797   9.138   6.069   1.405
18852WAT     H156798   9.220   6.016   1.427
18852WAT     H256799   9.144   6.159   1.449
18853WAT      O56800   0.082   3.922   3.145
18853WAT     H156801   0.040   3.907   3.056
18853WAT     H256802   0.014   3.911   3.217
18854WAT      O56803   7.530   1.636   4.306
18854WAT     H156804   7.616   1.636   4.357
18854WAT     H256805   7.461   1.584   4.356
18855WAT      O56806   1.598   8.143   0.789
18855WAT     H156807   1.630   8.136   0.884
18855WAT     H256808   1.667   8.190   0.734
18856WAT      O56809   3.807   4.302   6.388
18856WAT     H156810   3.895   4.288   6.343
18856WAT     H256811   3.763   4.383   6.349
18857WAT      O56812   0.247   3.309   5.051
18857WAT     H156813   0.227   3.334   5.145
18857WAT     H256814   0.169   3.332   4.992
18858WAT      O56815   1.603   4.796   9.553
18858WAT     H156816   1.588   4.742   9.636
18858WAT     H256817   1.625   4.735   9.477
18859WAT      O56818   9.286   1.378   2.863
18859WAT     H156819   9.278   1.478   2.864
18859WAT     H256820   9.225   1.340   2.933
18860WAT      O56821   1.890   8.199   2.377
18860WAT     H156822   1.835   8.242   2.448
18860WAT     H256823   1.883   8.099   2.384
18861WAT      O56824   2.590   0.539   9.473
18861WAT     H156825   2.608   0.472   9.401
18861WAT     H256826   2.675   0.559   9.522
18862WAT      O56827   2.138   1.159   2.221
18862WAT     H156828   2.068   1.188   2.157
18862WAT     H256829   2.201   1.095   2.176
18863WAT      O56830   5.321   1.696   4.988
18863WAT     H156831   5.292   1.776   5.040
18863WAT     H256832   5.269   1.616   5.017
18864WAT      O56833   3.803   1.745   1.456
18864WAT     H156834   3.727   1.680   1.448
18864WAT     H256835   3.771   1.829   1.501
18865WAT      O56836   2.453   8.014   8.090
18865WAT     H156837   2.507   7.998   8.007
18865WAT     H256838   2.453   8.112   8.111
18866WAT      O56839   1.758   0.581   0.137
18866WAT     H156840   1.696   0.528   0.195
18866WAT     H256841   1.807   0.519   0.076
18867WAT      O56842   7.420   3.774   6.673
18867WAT     H156843   7.397   3.727   6.758
18867WAT     H256844   7.362   3.740   6.599
18868WAT      O56845   8.145   4.570   0.421
18868WAT     H156846   8.244   4.577   0.420
18868WAT     H256847   8.118   4.476   0.398
18869WAT      O56848   0.638   8.345   4.340
18869WAT     H156849   0.685   8.267   4.382
18869WAT     H256850   0.540   8.340   4.361
18870WAT      O56851   7.388   2.052   3.036
18870WAT     H156852   7.336   1.983   2.986
18870WAT     H256853   7.347   2.065   3.126
18871WAT      O56854   5.202   4.851   2.029
18871WAT     H156855   5.197   4.926   2.095
18871WAT     H256856   5.141   4.870   1.952
18872WAT      O56857   5.262   8.137   7.335
18872WAT     H156858   5.274   8.151   7.237
18872WAT     H256859   5.351   8.120   7.377
18873WAT      O56860   1.154   1.733   0.781
18873WAT     H156861   1.150   1.641   0.742
18873WAT     H256862   1.217   1.733   0.859
18874WAT      O56863   9.886   6.445   5.765
18874WAT     H156864   9.811   6.502   5.799
18874WAT     H256865   9.952   6.503   5.718
18875WAT      O56866   7.132   1.948   6.645
18875WAT     H156867   7.120   2.025   6.581
18875WAT     H256868   7.150   1.984   6.736
18876WAT      O56869   3.194   1.890   9.737
18876WAT     H156870   3.125   1.847   9.679
18876WAT     H256871   3.211   1.831   9.817
18877WAT      O56872   5.232   5.922   8.610
18877WAT     H156873   5.279   6.008   8.626
18877WAT     H256874   5.277   5.849   8.663
18878WAT      O56875   6.155   1.203   7.533
18878WAT     H156876   6.138   1.201   7.434
18878WAT     H256877   6.185   1.113   7.563
18879WAT      O56878   4.595   0.425   9.416
18879WAT     H156879   4.531   0.352   9.391
18879WAT     H256880   4.606   0.428   9.515
18880WAT      O56881   3.640   0.906   6.110
18880WAT     H156882   3.674   0.920   6.017
18880WAT     H256883   3.702   0.950   6.175
18881WAT      O56884   8.477   6.503   7.487
18881WAT     H156885   8.574   6.526   7.492
18881WAT     H256886   8.447   6.462   7.573
18882WAT      O56887   0.775   3.537   1.626
18882WAT     H156888   0.843   3.480   1.580
18882WAT     H256889   0.687   3.526   1.581
18883WAT      O56890   6.067   8.685   4.053
18883WAT     H156891   6.162   8.717   4.061
18883WAT     H256892   6.051   8.652   3.960
18884WAT      O56893   9.479   8.050   8.170
18884WAT     H156894   9.540   8.030   8.093
18884WAT     H256895   9.456   7.965   8.217
18885WAT      O56896   4.736   8.611   1.989
18885WAT     H156897   4.707   8.706   2.000
18885WAT     H256898   4.724   8.583   1.894
18886WAT      O56899   9.733   0.576   1.223
18886WAT     H156900   9.716   0.480   1.248
18886WAT     H256901   9.825   0.584   1.183
18887WAT      O56902   2.376   8.057   2.058
18887WAT     H156903   2.415   7.986   2.116
18887WAT     H256904   2.369   8.142   2.111
18888WAT      O56905   7.877   0.490   4.236
18888WAT     H156906   7.892   0.424   4.161
18888WAT     H256907   7.933   0.464   4.315
18889WAT      O56908   7.016   1.222   0.473
18889WAT     H156909   6.954   1.146   0.491
18889WAT     H256910   7.042   1.265   0.560
18890WAT      O56911   8.748   9.270   4.363
18890WAT     H156912   8.709   9.187   4.325
18890WAT     H256913   8.692   9.301   4.441
18891WAT      O56914   5.595   9.140   2.554
18891WAT     H156915   5.607   9.217   2.618
18891WAT     H256916   5.567   9.175   2.465
18892WAT      O56917   6.934   5.987   3.793
18892WAT     H156918   6.918   6.080   3.828
18892WAT     H256919   6.846   5.939   3.785
18893WAT      O56920   0.085   0.146   6.671
18893WAT     H156921  -0.007   0.171   6.643
18893WAT     H256922   0.139   0.119   6.591
18894WAT      O56923   9.314   1.113   0.390
18894WAT     H156924   9.386   1.110   0.320
18894WAT     H256925   9.228   1.139   0.347
18895WAT      O56926   2.319   5.364   0.728
18895WAT     H156927   2.381   5.303   0.777
18895WAT     H256928   2.317   5.453   0.773
18896WAT      O56929   8.728   2.275   7.121
18896WAT     H156930   8.798   2.340   7.152
18896WAT     H256931   8.766   2.183   7.120
18897WAT      O56932   3.445   3.669   9.654
18897WAT     H156933   3.538   3.703   9.664
18897WAT     H256934   3.396   3.680   9.740
18898WAT      O56935   6.633   8.055   6.936
18898WAT     H156936   6.702   8.022   6.872
18898WAT     H256937   6.628   8.155   6.931
18899WAT      O56938   1.394   4.558   6.232
18899WAT     H156939   1.469   4.615   6.263
18899WAT     H256940   1.424   4.502   6.154
18900WAT      O56941   9.675   5.327   4.385
18900WAT     H156942   9.587   5.296   4.351
18900WAT     H256943   9.684   5.426   4.368
18901WAT      O56944   6.323   5.759   9.300
18901WAT     H156945   6.271   5.722   9.376
18901WAT     H256946   6.354   5.852   9.323
18902WAT      O56947   6.385   4.735   4.353
18902WAT     H156948   6.287   4.741   4.334
18902WAT     H256949   6.429   4.679   4.282
18903WAT      O56950   1.144   7.652   9.658
18903WAT     H156951   1.221   7.693   9.610
18903WAT     H256952   1.099   7.586   9.599
18904WAT      O56953   4.101   8.229   9.757
18904WAT     H156954   4.087   8.166   9.680
18904WAT     H256955   4.129   8.177   9.837
18905WAT      O56956   0.028   5.492   4.091
18905WAT     H156957   0.076   5.437   4.022
18905WAT     H256958   0.093   5.553   4.135
18906WAT      O56959   5.052   2.989   4.252
18906WAT     H156960   5.080   3.052   4.324
18906WAT     H256961   5.113   2.910   4.251
18907WAT      O56962   1.024   1.138   6.699
18907WAT     H156963   1.070   1.086   6.771
18907WAT     H256964   0.968   1.209   6.741
18908WAT      O56965   5.067   0.882   7.434
18908WAT     H156966   5.147   0.901   7.376
18908WAT     H256967   4.989   0.860   7.376
18909WAT      O56968   7.057   2.869   2.074
18909WAT     H156969   6.987   2.914   2.018
18909WAT     H256970   7.127   2.831   2.014
18910WAT      O56971   8.865   0.667   6.645
18910WAT     H156972   8.944   0.608   6.665
18910WAT     H256973   8.789   0.642   6.706
18911WAT      O56974   6.311   6.521   0.895
18911WAT     H156975   6.285   6.601   0.949
18911WAT     H256976   6.254   6.443   0.922
18912WAT      O56977   2.222   0.120   9.670
18912WAT     H156978   2.194   0.094   9.577
18912WAT     H256979   2.238   0.038   9.724
18913WAT      O56980   6.081   3.259   3.189
18913WAT     H156981   6.028   3.336   3.223
18913WAT     H256982   6.020   3.189   3.152
18914WAT      O56983   4.477   6.377   6.650
18914WAT     H156984   4.563   6.384   6.601
18914WAT     H256985   4.435   6.287   6.631
18915WAT      O56986   2.087   1.853   6.435
18915WAT     H156987   1.987   1.855   6.431
18915WAT     H256988   2.121   1.777   6.379
18916WAT      O56989   8.395   5.555   7.793
18916WAT     H156990   8.386   5.508   7.705
18916WAT     H256991   8.375   5.652   7.781
18917WAT      O56992   9.531   1.753   0.871
18917WAT     H156993   9.525   1.660   0.836
18917WAT     H256994   9.444   1.779   0.913
18918WAT      O56995   0.568   0.144   0.726
18918WAT     H156996   0.478   0.102   0.728
18918WAT     H256997   0.592   0.167   0.632
18919WAT      O56998   2.600   1.208   0.288
18919WAT     H156999   2.669   1.247   0.349
18919WAT     H257000   2.639   1.131   0.238
18920WAT      O57001   7.413   4.190   5.615
18920WAT     H157002   7.510   4.194   5.590
18920WAT     H257003   7.372   4.281   5.606
18921WAT      O57004   5.430   6.343   6.130
18921WAT     H157005   5.391   6.430   6.097
18921WAT     H257006   5.507   6.363   6.191
18922WAT      O57007   2.711   6.576   5.940
18922WAT     H157008   2.770   6.503   5.904
18922WAT     H257009   2.759   6.663   5.935
18923WAT      O57010   2.154   5.115   6.146
18923WAT     H157011   2.118   5.098   6.238
18923WAT     H257012   2.247   5.153   6.154
18924WAT      O57013   3.995   1.204   9.295
18924WAT     H157014   3.961   1.239   9.382
18924WAT     H257015   4.074   1.146   9.311
18925WAT      O57016   3.961   3.057   4.250
18925WAT     H157017   3.896   3.133   4.249
18925WAT     H257018   4.054   3.094   4.250
18926WAT      O57019   6.097   8.312   1.744
18926WAT     H157020   6.042   8.359   1.674
18926WAT     H257021   6.037   8.276   1.815
18927WAT      O57022   4.706   5.656   6.380
18927WAT     H157023   4.694   5.702   6.468
18927WAT     H257024   4.666   5.564   6.386
18928WAT      O57025   9.602   3.117   0.379
18928WAT     H157026   9.561   3.068   0.302
18928WAT     H257027   9.538   3.119   0.455
18929WAT      O57028   7.428   8.305   4.244
18929WAT     H157029   7.442   8.208   4.221
18929WAT     H257030   7.476   8.362   4.178
18930WAT      O57031   8.390   2.080   6.888
18930WAT     H157032   8.407   2.076   6.789
18930WAT     H257033   8.411   1.991   6.929
18931WAT      O57034   3.223   3.061   2.373
18931WAT     H157035   3.247   2.964   2.378
18931WAT     H257036   3.129   3.074   2.403
18932WAT      O57037   3.256   0.702   2.125
18932WAT     H157038   3.158   0.722   2.123
18932WAT     H257039   3.270   0.605   2.108
18933WAT      O57040   4.775   4.299   4.669
18933WAT     H157041   4.751   4.348   4.585
18933WAT     H257042   4.868   4.325   4.696
18934WAT      O57043   8.004   0.928   7.805
18934WAT     H157044   7.942   0.872   7.860
18934WAT     H257045   8.055   0.869   7.742
18935WAT      O57046   5.028   9.093   5.858
18935WAT     H157047   5.052   9.002   5.823
18935WAT     H257048   4.944   9.125   5.813
18936WAT      O57049   1.548   0.138   6.726
18936WAT     H157050   1.501   0.224   6.741
18936WAT     H257051   1.507   0.067   6.783
18937WAT      O57052   1.476   6.740   8.290
18937WAT     H157053   1.500   6.777   8.380
18937WAT     H257054   1.459   6.642   8.298
18938WAT      O57055   6.197   6.649   2.855
18938WAT     H157056   6.242   6.716   2.797
18938WAT     H257057   6.180   6.689   2.945
18939WAT      O57058   3.546   3.343   5.532
18939WAT     H157059   3.502   3.415   5.585
18939WAT     H257060   3.638   3.328   5.568
18940WAT      O57061   1.242   7.528   7.879
18940WAT     H157062   1.288   7.614   7.900
18940WAT     H257063   1.270   7.496   7.789
18941WAT      O57064   4.445   0.055   7.858
18941WAT     H157065   4.444  -0.042   7.883
18941WAT     H257066   4.377   0.071   7.785
18942WAT      O57067   5.352   8.669   7.955
18942WAT     H157068   5.411   8.593   7.929
18942WAT     H257069   5.369   8.747   7.895
18943WAT      O57070   9.508   7.257   8.382
18943WAT     H157071   9.595   7.221   8.418
18943WAT     H257072   9.469   7.321   8.447
18944WAT      O57073   7.002   2.745   2.732
18944WAT     H157074   6.929   2.803   2.696
18944WAT     H257075   7.090   2.779   2.700
18945WAT      O57076   0.319   9.055   4.088
18945WAT     H157077   0.337   8.986   4.017
18945WAT     H257078   0.244   9.023   4.147
18946WAT      O57079   9.543   8.416   1.458
18946WAT     H157080   9.605   8.348   1.419
18946WAT     H257081   9.590   8.468   1.529
18947WAT      O57082   9.781   9.371   9.526
18947WAT     H157083   9.795   9.279   9.563
18947WAT     H257084   9.734   9.364   9.438
18948WAT      O57085   3.440   6.846   6.181
18948WAT     H157086   3.375   6.848   6.256
18948WAT     H257087   3.483   6.755   6.177
18949WAT      O57088   8.439   2.362   9.431
18949WAT     H157089   8.391   2.292   9.378
18949WAT     H257090   8.394   2.450   9.419
18950WAT      O57091   8.759   1.253   1.094
18950WAT     H157092   8.698   1.187   1.049
18950WAT     H257093   8.758   1.238   1.193
18951WAT      O57094   2.042   9.346   9.615
18951WAT     H157095   2.028   9.352   9.714
18951WAT     H257096   2.120   9.287   9.596
18952WAT      O57097   7.866   8.364   8.230
18952WAT     H157098   7.922   8.296   8.183
18952WAT     H257099   7.925   8.429   8.278
18953WAT      O57100   8.238   7.939   3.578
18953WAT     H157101   8.157   7.890   3.547
18953WAT     H257102   8.242   7.939   3.678
18954WAT      O57103   5.446   2.249   9.517
18954WAT     H157104   5.370   2.195   9.555
18954WAT     H257105   5.507   2.276   9.591
18955WAT      O57106   5.530   3.603   7.383
18955WAT     H157107   5.455   3.569   7.440
18955WAT     H257108   5.494   3.637   7.296
18956WAT      O57109   0.401   8.614   8.480
18956WAT     H157110   0.481   8.553   8.474
18956WAT     H257111   0.322   8.562   8.513
18957WAT      O57112   7.150   1.354   2.886
18957WAT     H157113   7.075   1.356   2.953
18957WAT     H257114   7.147   1.268   2.836
18958WAT      O57115   1.188   9.441   5.864
18958WAT     H157116   1.096   9.481   5.856
18958WAT     H257117   1.184   9.360   5.921
18959WAT      O57118   8.096   0.452   6.263
18959WAT     H157119   8.022   0.461   6.196
18959WAT     H257120   8.183   0.441   6.216
18960WAT      O57121   2.251   0.094   8.707
18960WAT     H157122   2.166   0.041   8.702
18960WAT     H257123   2.291   0.100   8.616
18961WAT      O57124   4.109   1.495   3.974
18961WAT     H157125   4.132   1.439   3.895
18961WAT     H257126   4.191   1.539   4.010
18962WAT      O57127   4.974   5.929   3.279
18962WAT     H157128   5.011   5.977   3.200
18962WAT     H257129   4.964   5.992   3.356
18963WAT      O57130   8.064   9.550   6.582
18963WAT     H157131   8.145   9.607   6.592
18963WAT     H257132   8.062   9.482   6.655
18964WAT      O57133   8.870   4.186   3.016
18964WAT     H157134   8.932   4.219   2.945
18964WAT     H257135   8.855   4.258   3.084
18965WAT      O57136   6.864   9.051   2.254
18965WAT     H157137   6.838   9.147   2.265
18965WAT     H257138   6.845   9.001   2.338
18966WAT      O57139   8.309   2.150   8.066
18966WAT     H157140   8.269   2.192   8.147
18966WAT     H257141   8.321   2.052   8.082
18967WAT      O57142   0.089   9.776   5.432
18967WAT     H157143   0.167   9.804   5.486
18967WAT     H257144   0.083   9.676   5.430
18968WAT      O57145   8.457   9.356   7.078
18968WAT     H157146   8.397   9.352   6.999
18968WAT     H257147   8.416   9.304   7.153
18969WAT      O57148   1.925   3.723   6.222
18969WAT     H157149   1.905   3.719   6.320
18969WAT     H257150   1.949   3.632   6.190
18970WAT      O57151   2.992   5.626   6.133
18970WAT     H157152   3.087   5.623   6.161
18970WAT     H257153   2.987   5.648   6.035
18971WAT      O57154   8.016   3.892   6.448
18971WAT     H157155   7.942   3.958   6.461
18971WAT     H257156   8.003   3.843   6.362
18972WAT      O57157   0.510   1.652   7.126
18972WAT     H157158   0.483   1.668   7.221
18972WAT     H257159   0.543   1.738   7.087
18973WAT      O57160   0.407   8.281   8.017
18973WAT     H157161   0.440   8.259   7.925
18973WAT     H257162   0.411   8.200   8.074
18974WAT      O57163   2.295   2.807   0.424
18974WAT     H157164   2.336   2.806   0.515
18974WAT     H257165   2.357   2.852   0.360
18975WAT      O57166   0.726   3.217   1.312
18975WAT     H157167   0.643   3.273   1.316
18975WAT     H257168   0.789   3.245   1.384
18976WAT      O57169   2.972   2.593   3.595
18976WAT     H157170   2.957   2.535   3.675
18976WAT     H257171   3.064   2.577   3.558
18977WAT      O57172   9.785   8.943   2.071
18977WAT     H157173   9.855   8.876   2.046
18977WAT     H257174   9.786   9.018   2.004
18978WAT      O57175   9.130   3.453   8.604
18978WAT     H157176   9.160   3.440   8.510
18978WAT     H257177   9.062   3.384   8.628
18979WAT      O57178   8.196   8.358   6.636
18979WAT     H157179   8.261   8.400   6.700
18979WAT     H257180   8.220   8.262   6.622
18980WAT      O57181   3.647   6.707   6.903
18980WAT     H157182   3.683   6.634   6.846
18980WAT     H257183   3.613   6.781   6.846
18981WAT      O57184   3.581   7.679   5.564
18981WAT     H157185   3.516   7.738   5.612
18981WAT     H257186   3.671   7.721   5.564
18982WAT      O57187   6.296   6.057   2.641
18982WAT     H157188   6.213   6.112   2.644
18982WAT     H257189   6.366   6.099   2.698
18983WAT      O57190   2.175   1.543   9.885
18983WAT     H157191   2.148   1.583   9.973
18983WAT     H257192   2.095   1.537   9.825
18984WAT      O57193   2.021   2.835   7.910
18984WAT     H157194   2.053   2.928   7.922
18984WAT     H257195   2.056   2.777   7.983
18985WAT      O57196   3.328   9.739   2.422
18985WAT     H157197   3.329   9.720   2.324
18985WAT     H257198   3.418   9.769   2.452
18986WAT      O57199   3.848   1.958   7.343
18986WAT     H157200   3.940   1.989   7.321
18986WAT     H257201   3.844   1.858   7.339
18987WAT      O57202   9.492   3.096   2.013
18987WAT     H157203   9.505   3.195   2.016
18987WAT     H257204   9.506   3.058   2.104
18988WAT      O57205   1.419   3.358   2.925
18988WAT     H157206   1.395   3.409   3.008
18988WAT     H257207   1.510   3.319   2.935
18989WAT      O57208   0.969   1.352   0.147
18989WAT     H157209   0.993   1.318   0.238
18989WAT     H257210   0.973   1.452   0.147
18990WAT      O57211   5.021   2.698   9.310
18990WAT     H157212   4.947   2.760   9.284
18990WAT     H257213   5.087   2.692   9.235
18991WAT      O57214   6.807   4.236   9.542
18991WAT     H157215   6.803   4.319   9.487
18991WAT     H257216   6.716   4.219   9.582
18992WAT      O57217   7.739   1.502   1.356
18992WAT     H157218   7.657   1.473   1.404
18992WAT     H257219   7.719   1.582   1.300
18993WAT      O57220   8.333   9.764   9.285
18993WAT     H157221   8.350   9.850   9.237
18993WAT     H257222   8.334   9.780   9.384
18994WAT      O57223   1.503   0.532   6.577
18994WAT     H157224   1.551   0.617   6.599
18994WAT     H257225   1.471   0.535   6.482
18995WAT      O57226   1.050   1.911   1.028
18995WAT     H157227   0.979   1.957   1.080
18995WAT     H257228   1.053   1.949   0.935
18996WAT      O57229   7.844   5.208   8.714
18996WAT     H157230   7.925   5.238   8.663
18996WAT     H257231   7.832   5.109   8.703
18997WAT      O57232   8.758   5.073   2.578
18997WAT     H157233   8.839   5.132   2.584
18997WAT     H257234   8.725   5.054   2.671
18998WAT      O57235   0.796   5.947   3.649
18998WAT     H157236   0.837   5.878   3.588
18998WAT     H257237   0.862   5.971   3.720
18999WAT      O57238   9.005   0.258   1.665
18999WAT     H157239   9.030   0.353   1.647
18999WAT     H257240   9.003   0.207   1.579
19000WAT      O57241   2.411   6.503   8.326
19000WAT     H157242   2.394   6.409   8.357
19000WAT     H257243   2.377   6.567   8.394
19001WAT      O57244   0.450   0.038   7.323
19001WAT     H157245   0.423   0.133   7.305
19001WAT     H257246   0.502   0.002   7.246
19002WAT      O57247   3.828   5.436   6.204
19002WAT     H157248   3.846   5.369   6.131
19002WAT     H257249   3.862   5.400   6.291
19003WAT      O57250   6.030   7.993   6.174
19003WAT     H157251   5.935   7.972   6.198
19003WAT     H257252   6.034   8.028   6.081
19004WAT      O57253   9.651   8.090   1.986
19004WAT     H157254   9.698   8.143   1.915
19004WAT     H257255   9.688   8.115   2.076
19005WAT      O57256   0.498   7.665   9.452
19005WAT     H157257   0.463   7.718   9.375
19005WAT     H257258   0.567   7.600   9.419
19006WAT      O57259   1.355   0.808   2.646
19006WAT     H157260   1.391   0.754   2.571
19006WAT     H257261   1.427   0.868   2.682
19007WAT      O57262   7.444   5.003   4.456
19007WAT     H157263   7.480   4.991   4.549
19007WAT     H257264   7.425   4.914   4.416
19008WAT      O57265   4.878   8.998   2.769
19008WAT     H157266   4.911   9.082   2.813
19008WAT     H257267   4.785   9.012   2.737
19009WAT      O57268   4.380   9.159   4.833
19009WAT     H157269   4.425   9.135   4.919
19009WAT     H257270   4.283   9.176   4.849
19010WAT      O57271   4.118   5.423   7.384
19010WAT     H157272   4.082   5.478   7.459
19010WAT     H257273   4.125   5.480   7.302
19011WAT      O57274   8.703   4.784   6.540
19011WAT     H157275   8.643   4.732   6.479
19011WAT     H257276   8.792   4.796   6.496
19012WAT      O57277   1.616   2.992   1.791
19012WAT     H157278   1.650   2.998   1.697
19012WAT     H257279   1.694   2.988   1.854
19013WAT      O57280   6.494   3.476   8.565
19013WAT     H157281   6.414   3.475   8.505
19013WAT     H257282   6.562   3.412   8.531
19014WAT      O57283   5.097   8.991   3.369
19014WAT     H157284   5.187   8.960   3.399
19014WAT     H257285   5.067   8.935   3.292
19015WAT      O57286   9.090   2.629   4.062
19015WAT     H157287   9.032   2.623   3.982
19015WAT     H257288   9.178   2.584   4.044
19016WAT      O57289   1.292   5.954   3.690
19016WAT     H157290   1.311   6.023   3.620
19016WAT     H257291   1.357   5.965   3.766
19017WAT      O57292   9.623   6.973   0.040
19017WAT     H157293   9.548   6.945   0.099
19017WAT     H257294   9.706   6.923   0.066
19018WAT      O57295   6.569   1.178   4.538
19018WAT     H157296   6.539   1.274   4.538
19018WAT     H257297   6.494   1.120   4.507
19019WAT      O57298   7.538   5.645   1.520
19019WAT     H157299   7.519   5.556   1.559
19019WAT     H257300   7.609   5.691   1.574
19020WAT      O57301   2.131   1.331   4.907
19020WAT     H157302   2.032   1.326   4.892
19020WAT     H257303   2.170   1.398   4.844
19021WAT      O57304   4.612   5.576   1.159
19021WAT     H157305   4.657   5.545   1.075
19021WAT     H257306   4.514   5.556   1.154
19022WAT      O57307   6.825   7.922   6.110
19022WAT     H157308   6.731   7.889   6.121
19022WAT     H257309   6.836   8.009   6.158
19023WAT      O57310   2.208   7.749   5.995
19023WAT     H157311   2.199   7.816   5.922
19023WAT     H257312   2.138   7.764   6.064
19024WAT      O57313   2.659   9.147   2.374
19024WAT     H157314   2.701   9.156   2.464
19024WAT     H257315   2.688   9.223   2.315
19025WAT      O57316   7.310   4.442   5.704
19025WAT     H157317   7.363   4.520   5.671
19025WAT     H257318   7.311   4.441   5.804
19026WAT      O57319   5.293   5.371   1.518
19026WAT     H157320   5.230   5.433   1.471
19026WAT     H257321   5.383   5.377   1.475
19027WAT      O57322   5.274   2.658   8.649
19027WAT     H157323   5.257   2.726   8.721
19027WAT     H257324   5.353   2.686   8.595
19028WAT      O57325   6.951   0.212   5.564
19028WAT     H157326   6.879   0.261   5.612
19028WAT     H257327   7.040   0.253   5.587
19029WAT      O57328   2.991   6.374   7.494
19029WAT     H157329   2.970   6.467   7.523
19029WAT     H257330   2.915   6.339   7.439
19030WAT      O57331   0.341   0.701   6.869
19030WAT     H157332   0.269   0.758   6.907
19030WAT     H257333   0.383   0.747   6.790
19031WAT      O57334   7.720   5.695   8.885
19031WAT     H157335   7.712   5.597   8.863
19031WAT     H257336   7.772   5.741   8.813
19032WAT      O57337   7.272   9.712   8.722
19032WAT     H157338   7.308   9.646   8.656
19032WAT     H257339   7.176   9.692   8.740
19033WAT      O57340   8.403   1.063   5.275
19033WAT     H157341   8.415   1.014   5.189
19033WAT     H257342   8.491   1.068   5.323
19034WAT      O57343   5.129   1.581   4.352
19034WAT     H157344   5.195   1.517   4.391
19034WAT     H257345   5.153   1.600   4.257
19035WAT      O57346   8.561   2.747   4.919
19035WAT     H157347   8.645   2.741   4.972
19035WAT     H257348   8.535   2.843   4.907
19036WAT      O57349   1.740   3.947   5.635
19036WAT     H157350   1.743   4.022   5.701
19036WAT     H257351   1.788   3.868   5.672
19037WAT      O57352   7.058   1.387   8.273
19037WAT     H157353   7.050   1.409   8.370
19037WAT     H257354   6.995   1.313   8.250
19038WAT      O57355   1.873   0.821   7.812
19038WAT     H157356   1.809   0.768   7.868
19038WAT     H257357   1.957   0.837   7.864
19039WAT      O57358   3.602   6.765   3.473
19039WAT     H157359   3.527   6.713   3.514
19039WAT     H257360   3.609   6.742   3.376
19040WAT      O57361   9.070   7.296   8.223
19040WAT     H157362   9.031   7.216   8.269
19040WAT     H257363   9.168   7.282   8.208
19041WAT      O57364   5.523   2.960   9.174
19041WAT     H157365   5.463   2.944   9.252
19041WAT     H257366   5.566   3.051   9.182
19042WAT      O57367   4.929   4.408   8.934
19042WAT     H157368   4.894   4.446   9.019
19042WAT     H257369   4.903   4.312   8.927
19043WAT      O57370   1.203   5.521   7.649
19043WAT     H157371   1.172   5.549   7.558
19043WAT     H257372   1.299   5.491   7.644
19044WAT      O57373   2.089   4.164   1.910
19044WAT     H157374   2.102   4.074   1.869
19044WAT     H257375   2.172   4.191   1.960
19045WAT      O57376   6.871   5.818   2.343
19045WAT     H157377   6.962   5.786   2.368
19045WAT     H257378   6.860   5.913   2.370
19046WAT      O57379   2.258   7.284   8.306
19046WAT     H157380   2.203   7.282   8.390
19046WAT     H257381   2.311   7.368   8.302
19047WAT      O57382   6.954   8.154   6.524
19047WAT     H157383   7.041   8.144   6.476
19047WAT     H257384   6.965   8.131   6.620
19048WAT      O57385   8.566   8.638   2.924
19048WAT     H157386   8.578   8.621   3.021
19048WAT     H257387   8.650   8.678   2.886
19049WAT      O57388   6.792   2.261   5.390
19049WAT     H157389   6.816   2.285   5.296
19049WAT     H257390   6.840   2.324   5.453
19050WAT      O57391   2.138   8.266   7.063
19050WAT     H157392   2.202   8.193   7.039
19050WAT     H257393   2.045   8.239   7.037
19051WAT      O57394   7.429   7.820   3.174
19051WAT     H157395   7.418   7.740   3.115
19051WAT     H257396   7.339   7.854   3.202
19052WAT      O57397   6.212   3.808   5.262
19052WAT     H157398   6.276   3.873   5.304
19052WAT     H257399   6.211   3.822   5.163
19053WAT      O57400   9.286   2.308   0.727
19053WAT     H157401   9.363   2.261   0.769
19053WAT     H257402   9.202   2.286   0.777
19054WAT      O57403   4.098   0.035   3.638
19054WAT     H157404   4.036  -0.040   3.615
19054WAT     H257405   4.132   0.023   3.731
19055WAT      O57406   9.706   9.553   2.815
19055WAT     H157407   9.745   9.641   2.843
19055WAT     H257408   9.779   9.486   2.803
19056WAT      O57409   4.308   0.775   7.985
19056WAT     H157410   4.230   0.834   8.004
19056WAT     H257411   4.352   0.805   7.900
19057WAT      O57412   1.109   4.052   0.686
19057WAT     H157413   1.032   4.075   0.627
19057WAT     H257414   1.166   3.983   0.641
19058WAT      O57415   8.671   9.014   5.961
19058WAT     H157416   8.691   9.053   6.051
19058WAT     H257417   8.572   9.011   5.946
19059WAT      O57418   1.032   6.014   3.750
19059WAT     H157419   1.004   6.098   3.704
19059WAT     H257420   1.118   5.981   3.710
19060WAT      O57421   0.666   5.143   8.713
19060WAT     H157422   0.662   5.132   8.614
19060WAT     H257423   0.751   5.190   8.737
19061WAT      O57424   9.291   2.521   3.910
19061WAT     H157425   9.354   2.477   3.974
19061WAT     H257426   9.253   2.453   3.847
19062WAT      O57427   8.194   1.008   1.461
19062WAT     H157428   8.256   0.991   1.538
19062WAT     H257429   8.241   0.989   1.375
19063WAT      O57430   9.274   3.977   0.422
19063WAT     H157431   9.250   4.006   0.329
19063WAT     H257432   9.283   3.877   0.424
19064WAT      O57433   1.157   9.000   3.588
19064WAT     H157434   1.234   9.022   3.528
19064WAT     H257435   1.076   8.980   3.534
19065WAT      O57436   7.679   7.064   4.588
19065WAT     H157437   7.705   7.034   4.496
19065WAT     H257438   7.596   7.017   4.617
19066WAT      O57439   9.425   2.200   9.556
19066WAT     H157440   9.429   2.281   9.497
19066WAT     H257441   9.336   2.194   9.600
19067WAT      O57442   1.127   4.764   4.342
19067WAT     H157443   1.036   4.796   4.318
19067WAT     H257444   1.127   4.730   4.436
19068WAT      O57445   9.379   1.301   2.606
19068WAT     H157446   9.339   1.342   2.688
19068WAT     H257447   9.477   1.321   2.603
19069WAT      O57448   2.986   2.917   5.765
19069WAT     H157449   2.902   2.879   5.804
19069WAT     H257450   3.063   2.857   5.788
19070WAT      O57451   7.496   5.416   4.756
19070WAT     H157452   7.465   5.473   4.679
19070WAT     H257453   7.542   5.473   4.824
19071WAT      O57454   8.650   3.712   2.548
19071WAT     H157455   8.590   3.756   2.481
19071WAT     H257456   8.601   3.698   2.633
19072WAT      O57457   1.423   2.729   9.402
19072WAT     H157458   1.409   2.666   9.478
19072WAT     H257459   1.403   2.683   9.316
19073WAT      O57460   9.246   0.816   5.428
19073WAT     H157461   9.300   0.785   5.507
19073WAT     H257462   9.286   0.780   5.344
19074WAT      O57463   3.706   3.419   5.152
19074WAT     H157464   3.620   3.382   5.118
19074WAT     H257465   3.749   3.475   5.082
19075WAT      O57466   1.085   1.091   4.049
19075WAT     H157467   1.125   1.123   4.135
19075WAT     H257468   1.130   1.136   3.972
19076WAT      O57469   5.737   1.625   3.482
19076WAT     H157470   5.686   1.711   3.487
19076WAT     H257471   5.835   1.645   3.478
19077WAT      O57472   6.226   1.636   0.468
19077WAT     H157473   6.243   1.540   0.489
19077WAT     H257474   6.281   1.663   0.388
19078WAT      O57475   1.227   4.390   5.307
19078WAT     H157476   1.320   4.409   5.275
19078WAT     H257477   1.162   4.448   5.257
19079WAT      O57478   7.011   0.699   6.198
19079WAT     H157479   6.954   0.618   6.209
19079WAT     H257480   7.099   0.684   6.243
19080WAT      O57481   7.111   3.063   6.466
19080WAT     H157482   7.155   3.016   6.541
19080WAT     H257483   7.026   3.015   6.442
19081WAT      O57484   2.581   9.606   6.898
19081WAT     H157485   2.507   9.549   6.932
19081WAT     H257486   2.669   9.559   6.913
19082WAT      O57487   6.998   0.583   4.351
19082WAT     H157488   6.947   0.646   4.293
19082WAT     H257489   7.045   0.515   4.294
19083WAT      O57490   7.145   8.824   3.866
19083WAT     H157491   7.221   8.867   3.914
19083WAT     H257492   7.175   8.738   3.825
19084WAT      O57493   9.266   4.742   9.712
19084WAT     H157494   9.283   4.657   9.663
19084WAT     H257495   9.167   4.756   9.721
19085WAT      O57496   2.121   7.083   8.693
19085WAT     H157497   2.102   7.012   8.761
19085WAT     H257498   2.217   7.111   8.700
19086WAT      O57499   6.810   1.668   5.010
19086WAT     H157500   6.725   1.622   4.986
19086WAT     H257501   6.804   1.765   4.983
19087WAT      O57502   1.559   3.793   8.088
19087WAT     H157503   1.642   3.850   8.091
19087WAT     H257504   1.495   3.831   8.022
19088WAT      O57505   3.715   8.937   1.096
19088WAT     H157506   3.807   8.963   1.128
19088WAT     H257507   3.660   9.020   1.086
19089WAT      O57508   6.785   6.633   5.982
19089WAT     H157509   6.803   6.542   6.020
19089WAT     H257510   6.870   6.669   5.941
19090WAT      O57511   1.003   8.647   2.635
19090WAT     H157512   1.043   8.738   2.647
19090WAT     H257513   1.076   8.582   2.610
19091WAT      O57514   6.880   0.068   7.941
19091WAT     H157515   6.906   0.165   7.941
19091WAT     H257516   6.918   0.024   7.860
19092WAT      O57517   6.670   9.641   7.179
19092WAT     H157518   6.655   9.737   7.204
19092WAT     H257519   6.753   9.634   7.123
19093WAT      O57520   2.857   1.707   9.054
19093WAT     H157521   2.766   1.667   9.059
19093WAT     H257522   2.910   1.660   8.983
19094WAT      O57523   0.360   7.028   8.906
19094WAT     H157524   0.382   7.119   8.873
19094WAT     H257525   0.334   7.033   9.003
19095WAT      O57526   2.564   2.452   7.025
19095WAT     H157527   2.539   2.410   7.112
19095WAT     H257528   2.484   2.457   6.965
19096WAT      O57529   0.181   2.812   0.956
19096WAT     H157530   0.194   2.757   1.038
19096WAT     H257531   0.089   2.797   0.920
19097WAT      O57532   6.620   6.026   9.053
19097WAT     H157533   6.570   6.109   9.078
19097WAT     H257534   6.561   5.967   8.998
19098WAT      O57535   0.362   1.815   1.017
19098WAT     H157536   0.373   1.869   1.100
19098WAT     H257537   0.449   1.809   0.969
19099WAT      O57538   2.175   0.573   3.489
19099WAT     H157539   2.219   0.637   3.425
19099WAT     H257540   2.229   0.568   3.573
19100WAT      O57541   8.094   3.334   3.996
19100WAT     H157542   8.190   3.310   3.981
19100WAT     H257543   8.082   3.433   3.983
19101WAT      O57544   8.099   2.385   5.169
19101WAT     H157545   8.161   2.320   5.213
19101WAT     H257546   8.151   2.464   5.137
19102WAT      O57547   8.275   6.054   3.141
19102WAT     H157548   8.362   6.103   3.143
19102WAT     H257549   8.215   6.096   3.073
19103WAT      O57550   4.797   2.956   8.525
19103WAT     H157551   4.802   2.919   8.432
19103WAT     H257552   4.717   3.015   8.534
19104WAT      O57553   4.794   4.791   0.022
19104WAT     H157554   4.851   4.807   0.102
19104WAT     H257555   4.713   4.738   0.049
19105WAT      O57556   9.306   1.828   1.787
19105WAT     H157557   9.304   1.816   1.887
19105WAT     H257558   9.246   1.760   1.744
19106WAT      O57559   4.407   2.169   9.280
19106WAT     H157560   4.311   2.150   9.302
19106WAT     H257561   4.453   2.209   9.360
19107WAT      O57562   1.941   1.087   3.793
19107WAT     H157563   1.876   1.018   3.824
19107WAT     H257564   1.891   1.166   3.757
19108WAT      O57565   5.157   9.408   2.694
19108WAT     H157566   5.224   9.464   2.646
19108WAT     H257567   5.126   9.334   2.633
19109WAT      O57568   5.297   4.990   4.070
19109WAT     H157569   5.291   4.991   4.170
19109WAT     H257570   5.393   4.998   4.042
19110WAT      O57571   6.990   4.119   6.929
19110WAT     H157572   6.920   4.190   6.926
19110WAT     H257573   6.974   4.052   6.856
19111WAT      O57574   4.008   6.592   8.049
19111WAT     H157575   4.063   6.513   8.075
19111WAT     H257576   3.915   6.562   8.028
19112WAT      O57577   9.458   1.414   0.286
19112WAT     H157578   9.498   1.483   0.226
19112WAT     H257579   9.367   1.444   0.315
19113WAT      O57580   5.427   4.915   9.142
19113WAT     H157581   5.494   4.845   9.117
19113WAT     H257582   5.374   4.883   9.221
19114WAT      O57583   2.328   5.814   6.511
19114WAT     H157584   2.418   5.777   6.531
19114WAT     H257585   2.337   5.903   6.466
19115WAT      O57586   3.836   3.312   4.231
19115WAT     H157587   3.745   3.350   4.246
19115WAT     H257588   3.881   3.361   4.156
19116WAT      O57589   3.973   2.990   3.217
19116WAT     H157590   4.003   3.085   3.228
19116WAT     H257591   4.048   2.937   3.176
19117WAT      O57592   3.599   8.940   5.837
19117WAT     H157593   3.641   8.863   5.790
19117WAT     H257594   3.638   8.947   5.929
19118WAT      O57595   5.367   7.044   4.626
19118WAT     H157596   5.278   7.065   4.666
19118WAT     H257597   5.356   7.027   4.528
19119WAT      O57598   4.362   5.396   0.814
19119WAT     H157599   4.413   5.347   0.885
19119WAT     H257600   4.294   5.336   0.773
19120WAT      O57601   6.962   2.742   4.285
19120WAT     H157602   6.900   2.665   4.278
19120WAT     H257603   6.937   2.799   4.363
19121WAT      O57604   9.605   4.849   8.905
19121WAT     H157605   9.538   4.879   8.837
19121WAT     H257606   9.615   4.920   8.975
19122WAT      O57607   4.004   4.004   1.019
19122WAT     H157608   3.980   4.040   0.929
19122WAT     H257609   3.921   3.986   1.071
19123WAT      O57610   2.598   2.596   5.016
19123WAT     H157611   2.591   2.502   4.981
19123WAT     H257612   2.543   2.657   4.959
19124WAT      O57613   6.072   7.363   2.867
19124WAT     H157614   6.036   7.284   2.917
19124WAT     H257615   6.158   7.391   2.908
19125WAT      O57616   2.353   8.540   7.576
19125WAT     H157617   2.262   8.575   7.554
19125WAT     H257618   2.353   8.501   7.668
19126WAT      O57619   1.470   5.017   5.492
19126WAT     H157620   1.385   5.047   5.450
19126WAT     H257621   1.507   4.939   5.442
19127WAT      O57622   2.757   0.427   6.780
19127WAT     H157623   2.713   0.340   6.755
19127WAT     H257624   2.712   0.465   6.861
19128WAT      O57625   1.328   3.324   0.219
19128WAT     H157626   1.365   3.245   0.267
19128WAT     H257627   1.398   3.362   0.158
19129WAT      O57628   0.011   3.755   4.444
19129WAT     H157629   0.016   3.816   4.364
19129WAT     H257630   0.096   3.703   4.452
19130WAT      O57631   5.349   4.606   9.859
19130WAT     H157632   5.428   4.549   9.880
19130WAT     H257633   5.365   4.655   9.773
19131WAT      O57634   9.812   1.295   7.913
19131WAT     H157635   9.835   1.210   7.866
19131WAT     H257636   9.808   1.370   7.847
19132WAT      O57637   1.102   2.358   3.245
19132WAT     H157638   1.011   2.382   3.279
19132WAT     H257639   1.161   2.439   3.247
19133WAT      O57640   2.334   8.992   5.203
19133WAT     H157641   2.391   8.956   5.129
19133WAT     H257642   2.321   8.922   5.273
19134WAT      O57643   9.847   2.815   7.021
19134WAT     H157644   9.839   2.852   6.928
19134WAT     H257645   9.939   2.777   7.034
19135WAT      O57646   1.259   6.022   5.178
19135WAT     H157647   1.261   6.095   5.246
19135WAT     H257648   1.176   6.029   5.123
19136WAT      O57649   0.381   3.152   1.546
19136WAT     H157650   0.448   3.220   1.577
19136WAT     H257651   0.293   3.196   1.529
19137WAT      O57652   6.925   2.575   9.206
19137WAT     H157653   6.851   2.601   9.144
19137WAT     H257654   7.012   2.609   9.169
19138WAT      O57655   8.758   7.070   3.163
19138WAT     H157656   8.678   7.125   3.138
19138WAT     H257657   8.829   7.131   3.199
19139WAT      O57658   9.356   2.609   4.726
19139WAT     H157659   9.452   2.604   4.699
19139WAT     H257660   9.349   2.617   4.825
19140WAT      O57661   1.566   8.703   4.773
19140WAT     H157662   1.634   8.739   4.708
19140WAT     H257663   1.609   8.634   4.831
19141WAT      O57664   2.571   6.467   0.090
19141WAT     H157665   2.474   6.448   0.079
19141WAT     H257666   2.618   6.384   0.121
19142WAT      O57667   0.602   1.347   0.016
19142WAT     H157668   0.584   1.392  -0.072
19142WAT     H257669   0.674   1.396   0.065
19143WAT      O57670   8.491   3.425   4.533
19143WAT     H157671   8.565   3.398   4.472
19143WAT     H257672   8.530   3.458   4.619
19144WAT      O57673   7.261   7.086   2.519
19144WAT     H157674   7.266   6.986   2.514
19144WAT     H257675   7.353   7.123   2.530
19145WAT      O57676   0.865   4.836   2.934
19145WAT     H157677   0.961   4.822   2.912
19145WAT     H257678   0.810   4.825   2.851
19146WAT      O57679   8.404   8.958   1.710
19146WAT     H157680   8.345   8.878   1.715
19146WAT     H257681   8.479   8.940   1.646
19147WAT      O57682   9.868   7.284   8.206
19147WAT     H157683   9.810   7.331   8.273
19147WAT     H257684   9.881   7.342   8.126
19148WAT      O57685   0.156   5.664   5.006
19148WAT     H157686   0.244   5.671   4.958
19148WAT     H257687   0.084   5.644   4.940
19149WAT      O57688   9.590   3.834   3.882
19149WAT     H157689   9.669   3.786   3.841
19149WAT     H257690   9.623   3.911   3.936
19150WAT      O57691   9.589   0.935   4.997
19150WAT     H157692   9.494   0.953   4.972
19150WAT     H257693   9.650   0.981   4.932
19151WAT      O57694   2.615   5.317   1.189
19151WAT     H157695   2.640   5.327   1.093
19151WAT     H257696   2.525   5.273   1.196
19152WAT      O57697   7.888   4.269   0.943
19152WAT     H157698   7.848   4.319   0.866
19152WAT     H257699   7.823   4.269   1.019
19153WAT      O57700   1.621   0.363   1.411
19153WAT     H157701   1.583   0.455   1.399
19153WAT     H257702   1.621   0.315   1.323
19154WAT      O57703   9.414   9.434   1.331
19154WAT     H157704   9.362   9.450   1.247
19154WAT     H257705   9.506   9.403   1.307
19155WAT      O57706   1.429   7.302   4.892
19155WAT     H157707   1.522   7.327   4.867
19155WAT     H257708   1.381   7.383   4.926
19156WAT      O57709   7.631   8.098   3.736
19156WAT     H157710   7.669   8.108   3.828
19156WAT     H257711   7.646   8.183   3.685
19157WAT      O57712   5.340   0.896   0.546
19157WAT     H157713   5.372   0.812   0.503
19157WAT     H257714   5.391   0.911   0.632
19158WAT      O57715   0.659   0.701   0.654
19158WAT     H157716   0.723   0.753   0.709
19158WAT     H257717   0.706   0.667   0.572
19159WAT      O57718   8.770   4.131   1.936
19159WAT     H157719   8.836   4.167   1.871
19159WAT     H257720   8.727   4.049   1.898
19160WAT      O57721   6.306   9.652   7.947
19160WAT     H157722   6.261   9.564   7.961
19160WAT     H257723   6.237   9.724   7.935
19161WAT      O57724   7.188   7.953   9.611
19161WAT     H157725   7.150   7.865   9.638
19161WAT     H257726   7.139   8.027   9.657
19162WAT      O57727   2.336   6.504   7.753
19162WAT     H157728   2.299   6.420   7.794
19162WAT     H257729   2.408   6.540   7.812
19163WAT      O57730   6.993   9.692   2.633
19163WAT     H157731   6.917   9.757   2.634
19163WAT     H257732   6.976   9.619   2.700
19164WAT      O57733   0.793   0.502   4.969
19164WAT     H157734   0.888   0.505   4.939
19164WAT     H257735   0.765   0.592   5.002
19165WAT      O57736   8.214   2.438   8.538
19165WAT     H157737   8.184   2.499   8.465
19165WAT     H257738   8.235   2.491   8.620
19166WAT      O57739   5.942   2.012   6.594
19166WAT     H157740   5.991   2.077   6.536
19166WAT     H257741   5.965   2.031   6.690
19167WAT      O57742   6.521   7.274   3.237
19167WAT     H157743   6.433   7.228   3.223
19167WAT     H257744   6.554   7.255   3.329
19168WAT      O57745   8.194   2.908   9.665
19168WAT     H157746   8.159   2.819   9.694
19168WAT     H257747   8.221   2.962   9.745
19169WAT      O57748   5.667   2.146   8.353
19169WAT     H157749   5.585   2.088   8.353
19169WAT     H257750   5.716   2.134   8.266
19170WAT      O57751   6.304   1.778   4.376
19170WAT     H157752   6.230   1.712   4.396
19170WAT     H257753   6.391   1.738   4.403
19171WAT      O57754   5.334   2.841   4.528
19171WAT     H157755   5.315   2.818   4.432
19171WAT     H257756   5.335   2.941   4.538
19172WAT      O57757   2.071   9.708   0.782
19172WAT     H157758   2.043   9.685   0.689
19172WAT     H257759   2.160   9.665   0.801
19173WAT      O57760   2.279   0.331   7.613
19173WAT     H157761   2.347   0.405   7.606
19173WAT     H257762   2.249   0.323   7.708
19174WAT      O57763   6.646   2.095   8.349
19174WAT     H157764   6.630   2.046   8.434
19174WAT     H257765   6.675   2.031   8.278
19175WAT      O57766   8.214   4.496   6.148
19175WAT     H157767   8.291   4.512   6.086
19175WAT     H257768   8.137   4.554   6.122
19176WAT      O57769   2.903   1.300   1.917
19176WAT     H157770   2.814   1.256   1.929
19176WAT     H257771   2.941   1.322   2.007
19177WAT      O57772   4.767   0.374   6.667
19177WAT     H157773   4.766   0.394   6.569
19177WAT     H257774   4.682   0.406   6.709
19178WAT      O57775   7.910   6.831   4.752
19178WAT     H157776   7.853   6.753   4.724
19178WAT     H257777   7.932   6.886   4.672
19179WAT      O57778   1.643   5.399   0.448
19179WAT     H157779   1.592   5.313   0.457
19179WAT     H257780   1.737   5.379   0.421
19180WAT      O57781   7.552   3.460   5.166
19180WAT     H157782   7.564   3.556   5.142
19180WAT     H257783   7.621   3.405   5.120
19181WAT      O57784   7.262   4.005   1.725
19181WAT     H157785   7.259   3.913   1.685
19181WAT     H257786   7.276   3.997   1.824
19182WAT      O57787   7.654   7.818   6.330
19182WAT     H157788   7.607   7.833   6.417
19182WAT     H257789   7.632   7.727   6.295
19183WAT      O57790   4.728   0.036   3.303
19183WAT     H157791   4.690  -0.045   3.347
19183WAT     H257792   4.769   0.010   3.215
19184WAT      O57793   0.062   8.705   0.027
19184WAT     H157794   0.065   8.772   0.102
19184WAT     H257795  -0.010   8.730  -0.037
19185WAT      O57796   2.755   5.512   1.341
19185WAT     H157797   2.812   5.476   1.415
19185WAT     H257798   2.706   5.436   1.298
19186WAT      O57799   0.401   6.049   9.102
19186WAT     H157800   0.320   5.991   9.094
19186WAT     H257801   0.483   5.994   9.086
19187WAT      O57802   2.883   0.807   5.325
19187WAT     H157803   2.901   0.850   5.414
19187WAT     H257804   2.925   0.862   5.253
19188WAT      O57805   3.136   0.923   8.148
19188WAT     H157806   3.162   0.931   8.052
19188WAT     H257807   3.154   1.009   8.195
19189WAT      O57808   1.883   6.017   4.184
19189WAT     H157809   1.789   6.035   4.212
19189WAT     H257810   1.942   6.014   4.266
19190WAT      O57811   5.630   4.737   4.709
19190WAT     H157812   5.718   4.715   4.668
19190WAT     H257813   5.637   4.730   4.809
19191WAT      O57814   3.633   5.145   7.157
19191WAT     H157815   3.548   5.133   7.208
19191WAT     H257816   3.630   5.091   7.073
19192WAT      O57817   6.021   1.130   3.091
19192WAT     H157818   5.983   1.052   3.041
19192WAT     H257819   5.978   1.137   3.181
19193WAT      O57820   5.670   1.999   5.562
19193WAT     H157821   5.713   1.916   5.597
19193WAT     H257822   5.695   2.011   5.466
19194WAT      O57823   6.274   6.081   0.632
19194WAT     H157824   6.284   5.999   0.688
19194WAT     H257825   6.362   6.102   0.589
19195WAT      O57826   9.536   0.752   3.411
19195WAT     H157827   9.528   0.663   3.367
19195WAT     H257828   9.604   0.747   3.485
19196WAT      O57829   8.227   4.993   8.647
19196WAT     H157830   8.213   5.080   8.694
19196WAT     H257831   8.253   4.923   8.714
19197WAT      O57832   4.641   4.312   7.615
19197WAT     H157833   4.658   4.248   7.541
19197WAT     H257834   4.618   4.402   7.577
19198WAT      O57835   0.317   9.698   2.826
19198WAT     H157836   0.285   9.702   2.732
19198WAT     H257837   0.382   9.622   2.837
19199WAT      O57838   4.904   3.892   6.357
19199WAT     H157839   4.863   3.857   6.441
19199WAT     H257840   5.000   3.864   6.351
19200WAT      O57841   0.371   7.695   4.997
19200WAT     H157842   0.444   7.677   5.062
19200WAT     H257843   0.304   7.756   5.038
19201WAT      O57844   4.528   4.663   2.943
19201WAT     H157845   4.439   4.620   2.925
19201WAT     H257846   4.517   4.763   2.946
19202WAT      O57847   0.784   8.895   4.738
19202WAT     H157848   0.817   8.925   4.648
19202WAT     H257849   0.728   8.812   4.726
19203WAT      O57850   7.051   1.707   5.861
19203WAT     H157851   6.959   1.747   5.851
19203WAT     H257852   7.063   1.635   5.792
19204WAT      O57853   5.894   4.667   2.366
19204WAT     H157854   5.808   4.622   2.389
19204WAT     H257855   5.969   4.602   2.372
19205WAT      O57856   3.214   9.486   4.793
19205WAT     H157857   3.282   9.425   4.754
19205WAT     H257858   3.125   9.440   4.794
19206WAT      O57859   6.700   5.516   1.636
19206WAT     H157860   6.688   5.473   1.547
19206WAT     H257861   6.656   5.606   1.636
19207WAT      O57862   2.268   4.303   0.717
19207WAT     H157863   2.207   4.224   0.712
19207WAT     H257864   2.221   4.383   0.680
19208WAT      O57865   8.742   4.826   4.022
19208WAT     H157866   8.678   4.841   4.098
19208WAT     H257867   8.690   4.799   3.940
19209WAT      O57868   1.973   4.909   6.039
19209WAT     H157869   1.990   4.990   5.983
19209WAT     H257870   1.994   4.929   6.135
19210WAT      O57871   5.465   9.543   2.070
19210WAT     H157872   5.460   9.486   1.988
19210WAT     H257873   5.503   9.490   2.146
19211WAT      O57874   9.530   1.403   2.243
19211WAT     H157875   9.489   1.416   2.153
19211WAT     H257876   9.613   1.458   2.250
19212WAT      O57877   3.983   4.897   7.378
19212WAT     H157878   4.044   4.846   7.439
19212WAT     H257879   4.009   4.994   7.379
19213WAT      O57880   1.480   5.057   8.741
19213WAT     H157881   1.533   5.119   8.683
19213WAT     H257882   1.383   5.067   8.721
19214WAT      O57883   0.715   3.773   9.122
19214WAT     H157884   0.759   3.750   9.209
19214WAT     H257885   0.653   3.699   9.096
19215WAT      O57886   5.901   3.617   8.133
19215WAT     H157887   5.849   3.556   8.193
19215WAT     H257888   5.938   3.566   8.056
19216WAT      O57889   4.724   7.132   2.174
19216WAT     H157890   4.722   7.136   2.273
19216WAT     H257891   4.675   7.051   2.142
19217WAT      O57892   4.011   8.250   4.288
19217WAT     H157893   4.074   8.327   4.275
19217WAT     H257894   4.053   8.166   4.254
19218WAT      O57895   4.665   8.300   6.026
19218WAT     H157896   4.584   8.280   6.081
19218WAT     H257897   4.703   8.389   6.052
19219WAT      O57898   0.890   6.169   9.130
19219WAT     H157899   0.861   6.253   9.083
19219WAT     H257900   0.892   6.093   9.065
19220WAT      O57901   1.043   3.969   7.532
19220WAT     H157902   1.118   3.977   7.466
19220WAT     H257903   0.970   3.913   7.492
19221WAT      O57904   5.063   4.028   3.887
19221WAT     H157905   5.042   3.930   3.892
19221WAT     H257906   5.159   4.040   3.859
19222WAT      O57907   6.809   7.318   3.185
19222WAT     H157908   6.871   7.258   3.235
19222WAT     H257909   6.718   7.276   3.180
19223WAT      O57910   4.951   9.171   6.174
19223WAT     H157911   4.969   9.159   6.076
19223WAT     H257912   4.965   9.083   6.220
19224WAT      O57913   4.057   1.404   8.834
19224WAT     H157914   4.049   1.353   8.919
19224WAT     H257915   3.987   1.371   8.769
19225WAT      O57916   0.609   1.409   5.275
19225WAT     H157917   0.584   1.330   5.220
19225WAT     H257918   0.538   1.480   5.266
19226WAT      O57919   2.359   9.183   4.458
19226WAT     H157920   2.283   9.191   4.392
19226WAT     H257921   2.360   9.264   4.516
19227WAT      O57922   4.880   0.343   7.382
19227WAT     H157923   4.896   0.327   7.284
19227WAT     H257924   4.891   0.440   7.402
19228WAT      O57925   1.567   8.100   7.953
19228WAT     H157926   1.492   8.167   7.949
19228WAT     H257927   1.654   8.146   7.939
19229WAT      O57928   2.385   3.358   0.151
19229WAT     H157929   2.354   3.401   0.236
19229WAT     H257930   2.311   3.304   0.112
19230WAT      O57931   7.165   8.133   9.204
19230WAT     H157932   7.176   8.230   9.222
19230WAT     H257933   7.228   8.081   9.262
19231WAT      O57934   5.337   3.064   7.751
19231WAT     H157935   5.309   3.158   7.771
19231WAT     H257936   5.418   3.041   7.805
19232WAT      O57937   2.370   0.320   8.792
19232WAT     H157938   2.326   0.241   8.749
19232WAT     H257939   2.466   0.322   8.767
19233WAT      O57940   1.882   0.114   9.446
19233WAT     H157941   1.910   0.079   9.535
19233WAT     H257942   1.959   0.159   9.402
19234WAT      O57943   8.730   2.586   6.806
19234WAT     H157944   8.712   2.639   6.888
19234WAT     H257945   8.788   2.507   6.828
19235WAT      O57946   7.822   1.770   2.895
19235WAT     H157947   7.795   1.849   2.839
19235WAT     H257948   7.740   1.723   2.927
19236WAT      O57949   4.476   4.850   1.981
19236WAT     H157950   4.453   4.791   2.059
19236WAT     H257951   4.439   4.811   1.897
19237WAT      O57952   7.899   1.657   7.407
19237WAT     H157953   7.909   1.750   7.371
19237WAT     H257954   7.984   1.630   7.453
19238WAT      O57955   0.036   7.400   5.401
19238WAT     H157956   0.067   7.471   5.337
19238WAT     H257957  -0.055   7.424   5.435
19239WAT      O57958   0.739   6.475   6.490
19239WAT     H157959   0.742   6.435   6.398
19239WAT     H257960   0.736   6.574   6.483
19240WAT      O57961   4.798   0.368   3.126
19240WAT     H157962   4.844   0.457   3.122
19240WAT     H257963   4.705   0.380   3.163
19241WAT      O57964   3.437   6.331   2.991
19241WAT     H157965   3.462   6.391   2.915
19241WAT     H257966   3.496   6.350   3.069
19242WAT      O57967   6.449   8.592   0.108
19242WAT     H157968   6.547   8.577   0.113
19242WAT     H257969   6.425   8.673   0.161
19243WAT      O57970   3.799   1.039   4.031
19243WAT     H157971   3.709   1.060   3.992
19243WAT     H257972   3.825   0.945   4.007
19244WAT      O57973   6.838   4.703   2.846
19244WAT     H157974   6.746   4.666   2.830
19244WAT     H257975   6.849   4.722   2.943
19245WAT      O57976   7.426   2.218   6.371
19245WAT     H157977   7.511   2.166   6.379
19245WAT     H257978   7.447   2.316   6.372
19246WAT      O57979   9.807   6.582   4.507
19246WAT     H157980   9.859   6.645   4.565
19246WAT     H257981   9.711   6.581   4.537
19247WAT      O57982   4.918   2.215   5.174
19247WAT     H157983   4.853   2.207   5.098
19247WAT     H257984   4.983   2.289   5.155
19248WAT      O57985   6.000   3.358   1.120
19248WAT     H157986   6.074   3.384   1.058
19248WAT     H257987   5.988   3.259   1.119
19249WAT      O57988   7.451   5.281   3.733
19249WAT     H157989   7.531   5.230   3.700
19249WAT     H257990   7.368   5.241   3.695
19250WAT      O57991   5.737   6.436   9.194
19250WAT     H157992   5.682   6.468   9.271
19250WAT     H257993   5.679   6.388   9.128
19251WAT      O57994   1.632   6.555   1.520
19251WAT     H157995   1.575   6.568   1.601
19251WAT     H257996   1.725   6.588   1.540
19252WAT      O57997   1.011   3.169   1.878
19252WAT     H157998   0.914   3.182   1.854
19252WAT     H257999   1.031   3.218   1.963
19253WAT      O58000   1.765   3.988   0.276
19253WAT     H158001   1.816   3.925   0.335
19253WAT     H258002   1.730   3.938   0.196
19254WAT      O58003   5.120   9.017   4.635
19254WAT     H158004   5.112   8.918   4.621
19254WAT     H258005   5.199   9.051   4.585
19255WAT      O58006   1.034   7.440   6.106
19255WAT     H158007   1.107   7.506   6.086
19255WAT     H258008   1.038   7.365   6.039
19256WAT      O58009   2.421   9.288   5.802
19256WAT     H158010   2.360   9.361   5.833
19256WAT     H258011   2.374   9.233   5.733
19257WAT      O58012   8.670   6.705   0.202
19257WAT     H158013   8.760   6.728   0.238
19257WAT     H258014   8.669   6.714   0.103
19258WAT      O58015   7.434   0.627   7.276
19258WAT     H158016   7.376   0.645   7.356
19258WAT     H258017   7.500   0.701   7.266
19259WAT      O58018   0.923   5.766   1.528
19259WAT     H158019   1.011   5.796   1.566
19259WAT     H258020   0.850   5.786   1.594
19260WAT      O58021   7.600   9.423   2.533
19260WAT     H158022   7.502   9.439   2.526
19260WAT     H258023   7.633   9.455   2.622
19261WAT      O58024   8.348   5.801   5.211
19261WAT     H158025   8.299   5.830   5.293
19261WAT     H258026   8.286   5.751   5.151
19262WAT      O58027   0.272   8.224   2.145
19262WAT     H158028   0.316   8.307   2.110
19262WAT     H258029   0.229   8.244   2.233
19263WAT      O58030   1.970   0.392   5.791
19263WAT     H158031   2.038   0.464   5.801
19263WAT     H258032   1.882   0.433   5.767
19264WAT      O58033   9.347   2.802   2.425
19264WAT     H158034   9.294   2.723   2.396
19264WAT     H258035   9.411   2.775   2.497
19265WAT      O58036   1.178   8.656   9.856
19265WAT     H158037   1.207   8.593   9.784
19265WAT     H258038   1.253   8.674   9.919
19266WAT      O58039   2.293   4.328   7.191
19266WAT     H158040   2.344   4.243   7.179
19266WAT     H258041   2.323   4.374   7.275
19267WAT      O58042   4.409   4.151   2.992
19267WAT     H158043   4.430   4.170   3.088
19267WAT     H258044   4.343   4.218   2.958
19268WAT      O58045   8.496   3.823   3.328
19268WAT     H158046   8.398   3.811   3.310
19268WAT     H258047   8.546   3.813   3.242
19269WAT      O58048   8.989   9.789   3.891
19269WAT     H158049   8.960   9.714   3.951
19269WAT     H258050   9.064   9.758   3.832
19270WAT      O58051   3.254   3.497   1.332
19270WAT     H158052   3.233   3.416   1.388
19270WAT     H258053   3.353   3.511   1.330
19271WAT      O58054   2.262   7.993   6.990
19271WAT     H158055   2.261   7.988   6.890
19271WAT     H258056   2.352   7.963   7.023
19272WAT      O58057   2.650   0.863   8.263
19272WAT     H158058   2.746   0.891   8.271
19272WAT     H258059   2.612   0.849   8.354
19273WAT      O58060   8.626   1.503   7.028
19273WAT     H158061   8.685   1.422   7.022
19273WAT     H258062   8.596   1.516   7.123
19274WAT      O58063   1.029   2.817   9.551
19274WAT     H158064   1.023   2.849   9.645
19274WAT     H258065   1.085   2.881   9.498
19275WAT      O58066   2.012   3.712   9.279
19275WAT     H158067   2.096   3.668   9.312
19275WAT     H258068   2.011   3.808   9.308
19276WAT      O58069   6.299   8.006   1.070
19276WAT     H158070   6.214   7.987   1.019
19276WAT     H258071   6.302   7.950   1.152
19277WAT      O58072   2.778   0.438   0.893
19277WAT     H158073   2.798   0.535   0.908
19277WAT     H258074   2.690   0.429   0.846
19278WAT      O58075   9.775   7.681   0.471
19278WAT     H158076   9.717   7.695   0.391
19278WAT     H258077   9.827   7.764   0.490
19279WAT      O58078   6.264   5.654   8.772
19279WAT     H158079   6.251   5.752   8.765
19279WAT     H258080   6.220   5.608   8.695
19280WAT      O58081   9.670   3.693   2.054
19280WAT     H158082   9.692   3.668   2.148
19280WAT     H258083   9.724   3.638   1.991
19281WAT      O58084   9.227   9.522   1.142
19281WAT     H158085   9.163   9.511   1.218
19281WAT     H258086   9.188   9.480   1.059
19282WAT      O58087   2.088   8.757   3.468
19282WAT     H158088   2.087   8.665   3.508
19282WAT     H258089   2.071   8.825   3.540
19283WAT      O58090   4.035   7.702   3.432
19283WAT     H158091   4.052   7.798   3.411
19283WAT     H258092   3.967   7.665   3.368
19284WAT      O58093   2.463   4.703   6.467
19284WAT     H158094   2.394   4.721   6.397
19284WAT     H258095   2.434   4.628   6.525
19285WAT      O58096   8.255   0.895   5.810
19285WAT     H158097   8.176   0.835   5.821
19285WAT     H258098   8.236   0.984   5.852
19286WAT      O58099   3.333   9.069   5.791
19286WAT     H158100   3.408   9.007   5.814
19286WAT     H258101   3.271   9.076   5.869
19287WAT      O58102   3.306   8.957   3.780
19287WAT     H158103   3.357   8.879   3.817
19287WAT     H258104   3.257   8.929   3.698
19288WAT      O58105   7.679   8.262   7.140
19288WAT     H158106   7.743   8.210   7.197
19288WAT     H258107   7.587   8.257   7.180
19289WAT      O58108   0.674   4.087   4.420
19289WAT     H158109   0.648   4.079   4.324
19289WAT     H258110   0.763   4.134   4.426
19290WAT      O58111   1.022   2.004   5.613
19290WAT     H158112   0.976   1.916   5.626
19290WAT     H258113   0.955   2.075   5.596
19291WAT      O58114   3.249   9.780   6.655
19291WAT     H158115   3.183   9.721   6.609
19291WAT     H258116   3.256   9.867   6.606
19292WAT      O58117   7.707   6.416   7.003
19292WAT     H158118   7.655   6.476   7.064
19292WAT     H258119   7.714   6.459   6.913
19293WAT      O58120   4.180   8.247   0.864
19293WAT     H158121   4.267   8.201   0.844
19293WAT     H258122   4.155   8.305   0.787
19294WAT      O58123   4.431   2.816   2.445
19294WAT     H158124   4.343   2.843   2.406
19294WAT     H258125   4.442   2.717   2.438
19295WAT      O58126   5.215   5.107   7.152
19295WAT     H158127   5.252   5.090   7.243
19295WAT     H258128   5.138   5.046   7.135
19296WAT      O58129   8.336   8.445   4.333
19296WAT     H158130   8.319   8.346   4.333
19296WAT     H258131   8.254   8.493   4.362
19297WAT      O58132   2.915   9.201   1.137
19297WAT     H158133   2.964   9.128   1.184
19297WAT     H258134   2.963   9.288   1.149
19298WAT      O58135   9.534   1.091   8.265
19298WAT     H158136   9.446   1.125   8.295
19298WAT     H258137   9.544   1.106   8.166
19299WAT      O58138   5.649   6.643   2.199
19299WAT     H158139   5.664   6.741   2.195
19299WAT     H258140   5.630   6.616   2.293
19300WAT      O58141   4.324   8.825   1.726
19300WAT     H158142   4.388   8.872   1.665
19300WAT     H258143   4.242   8.800   1.676
19301WAT      O58144   0.819   2.462   3.066
19301WAT     H158145   0.727   2.483   3.032
19301WAT     H258146   0.885   2.523   3.024
19302WAT      O58147   2.054   3.917   7.687
19302WAT     H158148   1.985   3.846   7.678
19302WAT     H258149   2.135   3.880   7.733
19303WAT      O58150   8.931   8.078   9.620
19303WAT     H158151   9.020   8.087   9.664
19303WAT     H258152   8.865   8.041   9.685
19304WAT      O58153   4.456   5.963   6.432
19304WAT     H158154   4.531   6.010   6.479
19304WAT     H258155   4.488   5.932   6.342
19305WAT      O58156   1.032   7.920   8.102
19305WAT     H158157   1.043   7.941   8.199
19305WAT     H258158   1.118   7.882   8.066
19306WAT      O58159   8.248   6.915   2.186
19306WAT     H158160   8.168   6.893   2.131
19306WAT     H258161   8.225   6.987   2.252
19307WAT      O58162   8.242   8.147   5.839
19307WAT     H158163   8.338   8.136   5.811
19307WAT     H258164   8.233   8.232   5.892
19308WAT      O58165   1.100   2.190   0.840
19308WAT     H158166   1.009   2.155   0.817
19308WAT     H258167   1.150   2.211   0.756
19309WAT      O58168   8.704   4.356   0.973
19309WAT     H158169   8.732   4.414   1.049
19309WAT     H258170   8.752   4.384   0.890
19310WAT      O58171   7.458   2.847   9.606
19310WAT     H158172   7.468   2.801   9.517
19310WAT     H258173   7.369   2.891   9.611
19311WAT      O58174   4.836   9.403   5.403
19311WAT     H158175   4.919   9.423   5.351
19311WAT     H258176   4.838   9.308   5.433
19312WAT      O58177   3.481   4.882   8.478
19312WAT     H158178   3.387   4.885   8.511
19312WAT     H258179   3.544   4.910   8.551
19313WAT      O58180   4.059   6.944   9.081
19313WAT     H158181   3.985   7.011   9.090
19313WAT     H258182   4.115   6.947   9.164
19314WAT      O58183   3.638   2.119   7.321
19314WAT     H158184   3.565   2.059   7.354
19314WAT     H258185   3.725   2.070   7.326
19315WAT      O58186   1.664   6.933   2.370
19315WAT     H158187   1.754   6.930   2.326
19315WAT     H258188   1.639   6.841   2.400
19316WAT      O58189   7.449   0.480   7.067
19316WAT     H158190   7.365   0.491   7.013
19316WAT     H258191   7.443   0.536   7.150
19317WAT      O58192   4.808   0.091   5.704
19317WAT     H158193   4.799   0.015   5.640
19317WAT     H258194   4.737   0.085   5.774
19318WAT      O58195   3.215   5.841   5.949
19318WAT     H158196   3.267   5.758   5.933
19318WAT     H258197   3.168   5.869   5.865
19319WAT      O58198   8.994   5.132   1.902
19319WAT     H158199   9.032   5.109   1.813
19319WAT     H258200   9.060   5.186   1.954
19320WAT      O58201   0.007   0.902   5.298
19320WAT     H158202  -0.004   0.826   5.233
19320WAT     H258203  -0.070   0.965   5.289
19321WAT      O58204   6.161   1.719   2.639
19321WAT     H158205   6.227   1.652   2.674
19321WAT     H258206   6.203   1.771   2.564
19322WAT      O58207   0.044   5.294   0.476
19322WAT     H158208   0.100   5.363   0.431
19322WAT     H258209  -0.018   5.253   0.409
19323WAT      O58210   9.069   4.420   8.455
19323WAT     H158211   9.076   4.480   8.375
19323WAT     H258212   9.090   4.326   8.428
19324WAT      O58213   9.404   1.334   3.293
19324WAT     H158214   9.401   1.234   3.286
19324WAT     H258215   9.497   1.366   3.275
19325WAT      O58216   8.984   1.667   0.606
19325WAT     H158217   8.934   1.717   0.535
19325WAT     H258218   9.064   1.720   0.635
19326WAT      O58219   3.205   3.091   3.856
19326WAT     H158220   3.121   3.051   3.820
19326WAT     H258221   3.214   3.067   3.953
19327WAT      O58222   0.389   0.085   1.562
19327WAT     H158223   0.442   0.045   1.636
19327WAT     H258224   0.319   0.146   1.599
19328WAT      O58225   7.647   0.476   3.599
19328WAT     H158226   7.712   0.401   3.589
19328WAT     H258227   7.610   0.476   3.692
19329WAT      O58228   6.417   6.768   3.699
19329WAT     H158229   6.379   6.746   3.789
19329WAT     H258230   6.461   6.687   3.661
19330WAT      O58231   1.225   7.108   3.690
19330WAT     H158232   1.317   7.072   3.700
19330WAT     H258233   1.184   7.122   3.780
19331WAT      O58234   7.103   8.741   7.636
19331WAT     H158235   7.011   8.757   7.599
19331WAT     H258236   7.171   8.776   7.571
19332WAT      O58237   8.719   6.959   5.889
19332WAT     H158238   8.773   6.925   5.811
19332WAT     H258239   8.631   6.911   5.892
19333WAT      O58240   8.064   9.745   9.876
19333WAT     H158241   8.112   9.661   9.901
19333WAT     H258242   7.974   9.746   9.919
19334WAT      O58243   3.979   5.705   8.169
19334WAT     H158244   3.983   5.764   8.250
19334WAT     H258245   3.901   5.731   8.112
19335WAT      O58246   4.362   1.713   9.457
19335WAT     H158247   4.331   1.627   9.418
19335WAT     H258248   4.462   1.713   9.461
19336WAT      O58249   4.081   6.215   3.234
19336WAT     H158250   4.161   6.274   3.221
19336WAT     H258251   4.112   6.121   3.248
19337WAT      O58252   5.912   2.181   0.548
19337WAT     H158253   5.919   2.168   0.647
19337WAT     H258254   5.824   2.222   0.526
19338WAT      O58255   7.387   0.186   5.012
19338WAT     H158256   7.400   0.280   4.981
19338WAT     H258257   7.402   0.181   5.111
19339WAT      O58258   5.104   0.428   0.207
19339WAT     H158259   5.185   0.479   0.182
19339WAT     H258260   5.084   0.442   0.304
19340WAT      O58261   6.005   8.761   5.039
19340WAT     H158262   6.018   8.716   4.950
19340WAT     H258263   5.914   8.802   5.042
19341WAT      O58264   5.646   5.455   9.445
19341WAT     H158265   5.682   5.543   9.413
19341WAT     H258266   5.548   5.463   9.460
19342WAT      O58267   8.535   3.670   7.818
19342WAT     H158268   8.460   3.611   7.790
19342WAT     H258269   8.564   3.726   7.740
19343WAT      O58270   6.568   3.183   6.113
19343WAT     H158271   6.657   3.149   6.084
19343WAT     H258272   6.508   3.106   6.135
19344WAT      O58273   6.304   7.148   3.110
19344WAT     H158274   6.319   7.050   3.118
19344WAT     H258275   6.329   7.178   3.018
19345WAT      O58276   6.093   5.173   8.988
19345WAT     H158277   6.125   5.223   9.068
19345WAT     H258278   6.148   5.091   8.975
19346WAT      O58279   2.860   0.396   3.672
19346WAT     H158280   2.866   0.491   3.704
19346WAT     H258281   2.803   0.343   3.734
19347WAT      O58282   2.633   5.503   2.011
19347WAT     H158283   2.680   5.432   1.959
19347WAT     H258284   2.688   5.530   2.090
19348WAT      O58285   5.790   5.181   2.504
19348WAT     H158286   5.805   5.162   2.406
19348WAT     H258287   5.846   5.119   2.558
19349WAT      O58288   3.129   1.179   4.767
19349WAT     H158289   3.087   1.264   4.798
19349WAT     H258290   3.194   1.148   4.836
19350WAT      O58291   9.516   7.891   2.212
19350WAT     H158292   9.580   7.965   2.195
19350WAT     H258293   9.458   7.914   2.290
19351WAT      O58294   9.246   1.967   6.976
19351WAT     H158295   9.259   2.028   7.054
19351WAT     H258296   9.270   2.014   6.892
19352WAT      O58297   9.417   1.977   9.818
19352WAT     H158298   9.360   1.962   9.738
19352WAT     H258299   9.480   2.053   9.801
19353WAT      O58300   5.371   4.872   7.464
19353WAT     H158301   5.297   4.938   7.470
19353WAT     H258302   5.349   4.803   7.395
19354WAT      O58303   1.338   6.918   4.772
19354WAT     H158304   1.319   6.969   4.856
19354WAT     H258305   1.344   6.982   4.695
19355WAT      O58306   2.905   7.370   5.994
19355WAT     H158307   2.890   7.287   5.940
19355WAT     H258308   2.974   7.427   5.949
19356WAT      O58309   5.152   7.320   3.751
19356WAT     H158310   5.188   7.230   3.774
19356WAT     H258311   5.066   7.334   3.800
19357WAT      O58312   8.603   3.469   8.672
19357WAT     H158313   8.695   3.471   8.633
19357WAT     H258314   8.536   3.472   8.599
19358WAT      O58315   1.799   1.703   9.101
19358WAT     H158316   1.880   1.671   9.150
19358WAT     H258317   1.814   1.693   9.003
19359WAT      O58318   0.335   3.159   0.509
19359WAT     H158319   0.342   3.171   0.410
19359WAT     H258320   0.426   3.163   0.550
19360WAT      O58321   0.526   3.270   7.241
19360WAT     H158322   0.534   3.258   7.340
19360WAT     H258323   0.618   3.285   7.203
19361WAT      O58324   5.642   8.312   3.776
19361WAT     H158325   5.632   8.314   3.875
19361WAT     H258326   5.736   8.287   3.752
19362WAT      O58327   5.554   6.040   9.028
19362WAT     H158328   5.468   6.030   8.979
19362WAT     H258329   5.552   5.986   9.112
19363WAT      O58330   4.008   1.427   0.112
19363WAT     H158331   4.101   1.463   0.127
19363WAT     H258332   3.944   1.476   0.171
19364WAT      O58333   8.573   9.273   6.324
19364WAT     H158334   8.632   9.353   6.314
19364WAT     H258335   8.623   9.190   6.298
19365WAT      O58336   3.334   9.641   2.172
19365WAT     H158337   3.427   9.609   2.190
19365WAT     H258338   3.298   9.595   2.091
19366WAT      O58339   1.398   6.089   3.496
19366WAT     H158340   1.406   6.186   3.474
19366WAT     H258341   1.483   6.042   3.472
19367WAT      O58342   9.684   4.436   2.254
19367WAT     H158343   9.586   4.415   2.260
19367WAT     H258344   9.727   4.375   2.188
19368WAT      O58345   4.894   8.595   8.638
19368WAT     H158346   4.826   8.607   8.566
19368WAT     H258347   4.851   8.550   8.716
19369WAT      O58348   3.991   8.812   5.001
19369WAT     H158349   3.942   8.816   5.088
19369WAT     H258350   3.931   8.844   4.928
19370WAT      O58351   0.173   2.770   3.575
19370WAT     H158352   0.171   2.688   3.633
19370WAT     H258353   0.256   2.823   3.595
19371WAT      O58354   3.619   2.834   9.570
19371WAT     H158355   3.663   2.769   9.632
19371WAT     H258356   3.686   2.868   9.504
19372WAT      O58357   7.855   1.050   7.614
19372WAT     H158358   7.896   0.998   7.688
19372WAT     H258359   7.844   0.992   7.534
19373WAT      O58360   9.423   7.896   2.683
19373WAT     H158361   9.324   7.890   2.695
19373WAT     H258362   9.457   7.812   2.641
19374WAT      O58363   7.413   5.253   8.942
19374WAT     H158364   7.380   5.161   8.964
19374WAT     H258365   7.435   5.302   9.026
19375WAT      O58366   6.397   7.043   6.146
19375WAT     H158367   6.379   7.005   6.055
19375WAT     H258368   6.441   7.132   6.137
19376WAT      O58369   3.718   8.617   7.904
19376WAT     H158370   3.679   8.695   7.856
19376WAT     H258371   3.645   8.563   7.947
19377WAT      O58372   5.664   6.214   7.037
19377WAT     H158373   5.712   6.267   7.106
19377WAT     H258374   5.585   6.266   7.004
19378WAT      O58375   6.993   1.672   6.329
19378WAT     H158376   6.903   1.690   6.289
19378WAT     H258377   7.055   1.747   6.307
19379WAT      O58378   7.753   0.424   0.037
19379WAT     H158379   7.730   0.333   0.070
19379WAT     H258380   7.692   0.449  -0.038
19380WAT      O58381   9.539   5.178   1.769
19380WAT     H158382   9.532   5.253   1.835
19380WAT     H258383   9.635   5.167   1.741
19381WAT      O58384   2.332   4.227   2.038
19381WAT     H158385   2.310   4.145   2.091
19381WAT     H258386   2.367   4.298   2.099
19382WAT      O58387   5.855   5.033   0.491
19382WAT     H158388   5.797   4.965   0.446
19382WAT     H258389   5.861   5.115   0.434
19383WAT      O58390   7.638   5.761   5.287
19383WAT     H158391   7.724   5.812   5.285
19383WAT     H258392   7.613   5.741   5.382
19384WAT      O58393   8.874   1.241   8.991
19384WAT     H158394   8.959   1.280   8.955
19384WAT     H258395   8.851   1.285   9.078
19385WAT      O58396   9.351   4.614   7.879
19385WAT     H158397   9.425   4.645   7.938
19385WAT     H258398   9.388   4.567   7.799
19386WAT      O58399   1.769   2.478   7.760
19386WAT     H158400   1.867   2.490   7.773
19386WAT     H258401   1.721   2.556   7.799
19387WAT      O58402   1.636   2.639   2.180
19387WAT     H158403   1.726   2.679   2.194
19387WAT     H258404   1.602   2.664   2.090
19388WAT      O58405   8.429   7.546   3.590
19388WAT     H158406   8.501   7.609   3.563
19388WAT     H258407   8.467   7.475   3.649
19389WAT      O58408   3.892   5.510   0.143
19389WAT     H158409   3.927   5.590   0.094
19389WAT     H258410   3.931   5.427   0.104
19390WAT      O58411   8.686   4.861   2.064
19390WAT     H158412   8.775   4.904   2.078
19390WAT     H258413   8.633   4.913   1.997
19391WAT      O58414   1.986   6.104   0.695
19391WAT     H158415   1.916   6.122   0.625
19391WAT     H258416   2.074   6.089   0.651
19392WAT      O58417   9.674   8.404   6.677
19392WAT     H158418   9.604   8.377   6.611
19392WAT     H258419   9.761   8.419   6.630
19393WAT      O58420   3.502   4.385   4.555
19393WAT     H158421   3.462   4.454   4.494
19393WAT     H258422   3.541   4.311   4.500
19394WAT      O58423   7.998   3.027   0.666
19394WAT     H158424   7.924   3.083   0.630
19394WAT     H258425   7.984   3.012   0.764
19395WAT      O58426   7.540   1.758   3.630
19395WAT     H158427   7.554   1.767   3.729
19395WAT     H258428   7.526   1.849   3.591
19396WAT      O58429   4.531   7.872   7.219
19396WAT     H158430   4.623   7.892   7.184
19396WAT     H258431   4.526   7.900   7.315
19397WAT      O58432   1.960   6.285   7.981
19397WAT     H158433   1.926   6.192   7.991
19397WAT     H258434   1.957   6.311   7.884
19398WAT      O58435   0.891   9.313   8.954
19398WAT     H158436   0.877   9.403   8.911
19398WAT     H258437   0.974   9.272   8.919
19399WAT      O58438   4.043   4.811   0.230
19399WAT     H158439   3.979   4.800   0.154
19399WAT     H258440   3.994   4.841   0.312
19400WAT      O58441   6.106   5.608   4.094
19400WAT     H158442   6.201   5.639   4.104
19400WAT     H258443   6.073   5.572   4.180
19401WAT      O58444   9.309   9.000   6.163
19401WAT     H158445   9.374   9.037   6.230
19401WAT     H258446   9.246   8.938   6.210
19402WAT      O58447   7.354   2.023   8.136
19402WAT     H158448   7.259   2.007   8.109
19402WAT     H258449   7.366   2.119   8.161
19403WAT      O58450   6.181   8.528   3.188
19403WAT     H158451   6.136   8.447   3.226
19403WAT     H258452   6.188   8.598   3.259
19404WAT      O58453   3.149   3.946   6.328
19404WAT     H158454   3.067   3.889   6.331
19404WAT     H258455   3.134   4.023   6.266
19405WAT      O58456   3.791   3.888   2.963
19405WAT     H158457   3.873   3.851   2.919
19405WAT     H258458   3.715   3.824   2.950
19406WAT      O58459   6.982   4.859   7.813
19406WAT     H158460   7.018   4.768   7.792
19406WAT     H258461   7.058   4.922   7.829
19407WAT      O58462   6.366   6.248   1.915
19407WAT     H158463   6.329   6.169   1.867
19407WAT     H258464   6.357   6.235   2.013
19408WAT      O58465   5.609   4.458   1.479
19408WAT     H158466   5.610   4.442   1.578
19408WAT     H258467   5.696   4.427   1.439
19409WAT      O58468   8.527   4.209   9.769
19409WAT     H158469   8.449   4.235   9.826
19409WAT     H258470   8.494   4.183   9.677
19410WAT      O58471   5.587   7.852   8.396
19410WAT     H158472   5.536   7.771   8.426
19410WAT     H258473   5.684   7.838   8.415
19411WAT      O58474   7.260   5.370   6.205
19411WAT     H158475   7.232   5.287   6.158
19411WAT     H258476   7.360   5.373   6.211
19412WAT      O58477   2.810   5.521   7.376
19412WAT     H158478   2.886   5.476   7.330
19412WAT     H258479   2.765   5.457   7.438
19413WAT      O58480   6.834   7.332   3.524
19413WAT     H158481   6.895   7.279   3.582
19413WAT     H258482   6.758   7.274   3.494
19414WAT      O58483   1.625   1.707   9.439
19414WAT     H158484   1.701   1.726   9.377
19414WAT     H258485   1.607   1.788   9.495
19415WAT      O58486   9.067   7.446   3.868
19415WAT     H158487   9.044   7.492   3.954
19415WAT     H258488   9.122   7.364   3.888
19416WAT      O58489   7.363   7.637   4.071
19416WAT     H158490   7.354   7.718   4.013
19416WAT     H258491   7.406   7.563   4.020
19417WAT      O58492   5.694   4.723   1.587
19417WAT     H158493   5.783   4.717   1.633
19417WAT     H258494   5.681   4.641   1.531
19418WAT      O58495   3.605   7.883   1.675
19418WAT     H158496   3.664   7.905   1.753
19418WAT     H258497   3.543   7.809   1.701
19419WAT      O58498   9.426   6.754   4.760
19419WAT     H158499   9.345   6.741   4.703
19419WAT     H258500   9.493   6.683   4.739
19420WAT      O58501   6.630   8.762   3.955
19420WAT     H158502   6.541   8.773   3.912
19420WAT     H258503   6.675   8.851   3.963
19421WAT      O58504   3.065   2.877   1.396
19421WAT     H158505   3.046   2.840   1.305
19421WAT     H258506   3.046   2.808   1.465
19422WAT      O58507   4.435   5.504   8.782
19422WAT     H158508   4.520   5.557   8.779
19422WAT     H258509   4.457   5.407   8.772
19423WAT      O58510   0.405   8.456   7.428
19423WAT     H158511   0.356   8.396   7.366
19423WAT     H258512   0.341   8.497   7.494
19424WAT      O58513   7.347   8.986   3.000
19424WAT     H158514   7.277   9.042   3.045
19424WAT     H258515   7.346   9.005   2.902
19425WAT      O58516   6.421   4.467   8.054
19425WAT     H158517   6.512   4.430   8.037
19425WAT     H258518   6.352   4.408   8.010
19426WAT      O58519   7.011   7.911   8.684
19426WAT     H158520   6.917   7.900   8.650
19426WAT     H258521   7.012   7.981   8.755
19427WAT      O58522   3.943   0.902   4.886
19427WAT     H158523   3.907   0.809   4.882
19427WAT     H258524   3.867   0.967   4.891
19428WAT      O58525   1.176   0.267   8.602
19428WAT     H158526   1.238   0.261   8.680
19428WAT     H258527   1.139   0.359   8.595
19429WAT      O58528   9.684   7.529   5.394
19429WAT     H158529   9.700   7.618   5.436
19429WAT     H258530   9.597   7.529   5.345
19430WAT      O58531   3.376   2.383   5.812
19430WAT     H158532   3.349   2.325   5.888
19430WAT     H258533   3.410   2.470   5.846
19431WAT      O58534   5.763   5.638   5.023
19431WAT     H158535   5.780   5.663   4.928
19431WAT     H258536   5.726   5.717   5.072
19432WAT      O58537   2.799   4.266   4.406
19432WAT     H158538   2.891   4.306   4.402
19432WAT     H258539   2.793   4.189   4.342
19433WAT      O58540   1.401   5.627   0.551
19433WAT     H158541   1.353   5.549   0.592
19433WAT     H258542   1.440   5.600   0.463
19434WAT      O58543   6.232   6.716   1.040
19434WAT     H158544   6.192   6.671   1.120
19434WAT     H258545   6.258   6.810   1.064
19435WAT      O58546   5.039   2.728   9.778
19435WAT     H158547   4.967   2.665   9.806
19435WAT     H258548   5.123   2.676   9.758
19436WAT      O58549   8.575   1.084   2.562
19436WAT     H158550   8.599   0.992   2.531
19436WAT     H258551   8.521   1.078   2.646
19437WAT      O58552   8.768   3.949   2.732
19437WAT     H158553   8.731   3.983   2.818
19437WAT     H258554   8.712   3.981   2.656
19438WAT      O58555   3.566   7.909   1.057
19438WAT     H158556   3.646   7.938   1.111
19438WAT     H258557   3.525   7.828   1.099
19439WAT      O58558   1.143   0.369   7.495
19439WAT     H158559   1.145   0.434   7.419
19439WAT     H258560   1.173   0.279   7.463
19440WAT      O58561   5.456   1.103   9.703
19440WAT     H158562   5.520   1.179   9.709
19440WAT     H258563   5.414   1.101   9.613
19441WAT      O58564   7.925   7.719   4.429
19441WAT     H158565   7.902   7.671   4.514
19441WAT     H258566   8.020   7.749   4.433
19442WAT      O58567   3.010   6.680   7.311
19442WAT     H158568   3.029   6.705   7.406
19442WAT     H258569   2.914   6.656   7.301
19443WAT      O58570   6.360   6.173   8.842
19443WAT     H158571   6.272   6.134   8.813
19443WAT     H258572   6.377   6.147   8.937
19444WAT      O58573   2.418   8.661   5.015
19444WAT     H158574   2.371   8.631   5.098
19444WAT     H258575   2.499   8.605   5.001
19445WAT      O58576   4.567   2.562   9.414
19445WAT     H158577   4.547   2.636   9.350
19445WAT     H258578   4.513   2.481   9.391
19446WAT      O58579   5.965   3.260   9.837
19446WAT     H158580   5.928   3.305   9.755
19446WAT     H258581   5.909   3.180   9.860
19447WAT      O58582   0.419   7.292   1.010
19447WAT     H158583   0.438   7.200   1.046
19447WAT     H258584   0.365   7.285   0.926
19448WAT      O58585   1.188   4.853   9.488
19448WAT     H158586   1.092   4.826   9.487
19448WAT     H258587   1.199   4.942   9.445
19449WAT      O58588   4.195   4.344   3.017
19449WAT     H158589   4.152   4.397   3.091
19449WAT     H258590   4.228   4.407   2.947
19450WAT      O58591   9.332   0.232   8.645
19450WAT     H158592   9.410   0.293   8.634
19450WAT     H258593   9.320   0.177   8.562
19451WAT      O58594   3.325   0.853   5.696
19451WAT     H158595   3.282   0.942   5.709
19451WAT     H258596   3.364   0.821   5.782
19452WAT      O58597   7.596   0.873   6.210
19452WAT     H158598   7.568   0.778   6.198
19452WAT     H258599   7.686   0.886   6.169
19453WAT      O58600   3.839   7.330   6.521
19453WAT     H158601   3.764   7.368   6.575
19453WAT     H258602   3.815   7.238   6.490
19454WAT      O58603   7.062   7.811   2.341
19454WAT     H158604   7.122   7.883   2.375
19454WAT     H258605   7.110   7.755   2.274
19455WAT      O58606   4.755   4.353   0.501
19455WAT     H158607   4.842   4.312   0.530
19455WAT     H258608   4.714   4.401   0.578
19456WAT      O58609   7.342   0.748   3.534
19456WAT     H158610   7.384   0.821   3.587
19456WAT     H258611   7.380   0.747   3.441
19457WAT      O58612   1.869   0.408   7.988
19457WAT     H158613   1.806   0.439   8.060
19457WAT     H258614   1.889   0.311   8.002
19458WAT      O58615   9.474   9.085   8.348
19458WAT     H158616   9.401   9.111   8.412
19458WAT     H258617   9.468   9.141   8.266
19459WAT      O58618   4.167   0.142   2.826
19459WAT     H158619   4.180   0.240   2.806
19459WAT     H258620   4.169   0.127   2.924
19460WAT      O58621   0.162   3.205   2.421
19460WAT     H158622   0.255   3.194   2.388
19460WAT     H258623   0.152   3.296   2.462
19461WAT      O58624   1.430   7.398   6.052
19461WAT     H158625   1.406   7.368   6.144
19461WAT     H258626   1.487   7.329   6.008
19462WAT      O58627   4.729   5.082   9.462
19462WAT     H158628   4.805   5.145   9.444
19462WAT     H258629   4.732   5.052   9.557
19463WAT      O58630   7.987   5.104   2.816
19463WAT     H158631   7.914   5.058   2.867
19463WAT     H258632   7.950   5.141   2.731
19464WAT      O58633   0.532   3.817   8.770
19464WAT     H158634   0.467   3.786   8.700
19464WAT     H258635   0.512   3.912   8.794
19465WAT      O58636   6.076   3.518   7.372
19465WAT     H158637   5.978   3.539   7.369
19465WAT     H258638   6.091   3.424   7.341
19466WAT      O58639   2.946   2.996   3.754
19466WAT     H158640   2.860   2.962   3.716
19466WAT     H258641   2.946   3.096   3.754
19467WAT      O58642   6.207   5.327   2.609
19467WAT     H158643   6.291   5.370   2.640
19467WAT     H258644   6.143   5.397   2.575
19468WAT      O58645   6.627   8.376   6.207
19468WAT     H158646   6.612   8.278   6.215
19468WAT     H258647   6.705   8.393   6.147
19469WAT      O58648   2.934   9.246   0.075
19469WAT     H158649   2.990   9.254  -0.007
19469WAT     H258650   2.887   9.157   0.074
19470WAT      O58651   2.340   2.836   8.018
19470WAT     H158652   2.384   2.847   8.107
19470WAT     H258653   2.241   2.849   8.028
19471WAT      O58654   8.879   6.860   3.809
19471WAT     H158655   8.879   6.791   3.882
19471WAT     H258656   8.974   6.877   3.781
19472WAT      O58657   3.558   4.938   8.983
19472WAT     H158658   3.557   4.991   9.068
19472WAT     H258659   3.651   4.908   8.963
19473WAT      O58660   1.500   9.453   8.553
19473WAT     H158661   1.564   9.421   8.623
19473WAT     H258662   1.550   9.476   8.469
19474WAT      O58663   1.418   6.826   1.461
19474WAT     H158664   1.479   6.757   1.500
19474WAT     H258665   1.472   6.892   1.408
19475WAT      O58666   5.911   0.808   6.032
19475WAT     H158667   5.919   0.835   6.128
19475WAT     H258668   5.955   0.876   5.974
19476WAT      O58669   2.803   0.918   3.429
19476WAT     H158670   2.834   0.848   3.363
19476WAT     H258671   2.839   1.007   3.402
19477WAT      O58672   1.102   7.329   6.635
19477WAT     H158673   1.039   7.341   6.712
19477WAT     H258674   1.169   7.259   6.658
19478WAT      O58675   0.794   6.922   0.390
19478WAT     H158676   0.854   6.869   0.331
19478WAT     H258677   0.699   6.894   0.375
19479WAT      O58678   5.770   5.714   2.402
19479WAT     H158679   5.795   5.628   2.446
19479WAT     H258680   5.826   5.788   2.439
19480WAT      O58681   9.675   2.553   5.153
19480WAT     H158682   9.738   2.611   5.101
19480WAT     H258683   9.613   2.506   5.090
19481WAT      O58684   4.516   5.419   6.427
19481WAT     H158685   4.447   5.490   6.434
19481WAT     H258686   4.482   5.334   6.467
19482WAT      O58687   9.481   8.220   1.682
19482WAT     H158688   9.386   8.190   1.688
19482WAT     H258689   9.490   8.288   1.610
19483WAT      O58690   5.911   2.033   0.799
19483WAT     H158691   5.923   1.936   0.819
19483WAT     H258692   5.828   2.066   0.843
19484WAT      O58693   0.169   3.961   9.560
19484WAT     H158694   0.208   3.881   9.514
19484WAT     H258695   0.150   4.031   9.492
19485WAT      O58696   8.487   8.737   1.274
19485WAT     H158697   8.551   8.661   1.279
19485WAT     H258698   8.504   8.791   1.192
19486WAT      O58699   2.004   5.795   3.767
19486WAT     H158700   2.017   5.701   3.736
19486WAT     H258701   1.973   5.795   3.862
19487WAT      O58702   1.697   8.731   0.282
19487WAT     H158703   1.616   8.729   0.225
19487WAT     H258704   1.688   8.804   0.350
19488WAT      O58705   0.983   4.104   6.078
19488WAT     H158706   0.958   4.033   6.013
19488WAT     H258707   0.909   4.171   6.084
19489WAT      O58708   0.798   3.471   6.819
19489WAT     H158709   0.740   3.533   6.872
19489WAT     H258710   0.768   3.470   6.724
19490WAT      O58711   5.592   6.711   1.602
19490WAT     H158712   5.624   6.617   1.591
19490WAT     H258713   5.625   6.748   1.689
19491WAT      O58714   1.663   8.417   1.289
19491WAT     H158715   1.636   8.366   1.207
19491WAT     H258716   1.589   8.414   1.356
19492WAT      O58717   2.344   8.236   1.838
19492WAT     H158718   2.362   8.180   1.918
19492WAT     H258719   2.274   8.192   1.782
19493WAT      O58720   1.862   6.196   9.833
19493WAT     H158721   1.817   6.174   9.746
19493WAT     H258722   1.893   6.111   9.877
19494WAT      O58723   2.701   9.555   5.651
19494WAT     H158724   2.602   9.568   5.643
19494WAT     H258725   2.734   9.508   5.569
19495WAT      O58726   3.586   6.166   2.031
19495WAT     H158727   3.654   6.238   2.016
19495WAT     H258728   3.537   6.149   1.946
19496WAT      O58729   6.082   5.078   0.160
19496WAT     H158730   6.091   4.979   0.164
19496WAT     H258731   6.140   5.120   0.230
19497WAT      O58732   1.888   5.313   4.216
19497WAT     H158733   1.913   5.288   4.123
19497WAT     H258734   1.835   5.239   4.258
19498WAT      O58735   8.386   9.759   4.740
19498WAT     H158736   8.339   9.699   4.675
19498WAT     H258737   8.445   9.705   4.799
19499WAT      O58738   0.049   8.010   8.199
19499WAT     H158739  -0.013   8.075   8.154
19499WAT     H258740   0.092   7.952   8.131
19500WAT      O58741   7.986   0.107   5.213
19500WAT     H158742   7.893   0.094   5.180
19500WAT     H258743   8.007   0.205   5.216
19501WAT      O58744   3.322   0.521   4.198
19501WAT     H158745   3.322   0.426   4.229
19501WAT     H258746   3.370   0.527   4.111
19502WAT      O58747   7.993   9.104   8.285
19502WAT     H158748   8.047   9.031   8.328
19502WAT     H258749   7.905   9.111   8.331
19503WAT      O58750   6.037   0.644   6.528
19503WAT     H158751   6.047   0.578   6.453
19503WAT     H258752   6.006   0.732   6.491
19504WAT      O58753   5.150   1.504   6.012
19504WAT     H158754   5.163   1.598   5.981
19504WAT     H258755   5.239   1.466   6.040
19505WAT      O58756   6.875   8.632   1.273
19505WAT     H158757   6.892   8.592   1.183
19505WAT     H258758   6.957   8.624   1.329
19506WAT      O58759   6.663   0.809   9.227
19506WAT     H158760   6.671   0.858   9.314
19506WAT     H258761   6.701   0.865   9.154
19507WAT      O58762   2.273   6.604   5.402
19507WAT     H158763   2.262   6.592   5.500
19507WAT     H258764   2.330   6.529   5.366
19508WAT      O58765   1.079   7.922   8.730
19508WAT     H158766   1.127   7.991   8.785
19508WAT     H258767   1.108   7.930   8.634
19509WAT      O58768   4.126   8.489   4.326
19509WAT     H158769   4.191   8.559   4.297
19509WAT     H258770   4.044   8.533   4.363
19510WAT      O58771   5.857   6.631   5.605
19510WAT     H158772   5.887   6.572   5.681
19510WAT     H258773   5.809   6.575   5.537
19511WAT      O58774   9.484   9.502   5.445
19511WAT     H158775   9.554   9.435   5.419
19511WAT     H258776   9.417   9.458   5.505
19512WAT      O58777   6.587   2.126   0.842
19512WAT     H158778   6.525   2.204   0.830
19512WAT     H258779   6.654   2.125   0.768
19513WAT      O58780   0.047   3.777   0.291
19513WAT     H158781   0.065   3.872   0.315
19513WAT     H258782   0.022   3.771   0.194
19514WAT      O58783   6.089   4.581   6.826
19514WAT     H158784   6.008   4.545   6.780
19514WAT     H258785   6.061   4.646   6.897
19515WAT      O58786   3.217   9.359   9.211
19515WAT     H158787   3.205   9.438   9.271
19515WAT     H258788   3.212   9.388   9.115
19516WAT      O58789   6.890   3.003   1.620
19516WAT     H158790   6.887   3.055   1.535
19516WAT     H258791   6.915   3.063   1.696
19517WAT      O58792   2.281   0.428   8.398
19517WAT     H158793   2.327   0.511   8.367
19517WAT     H258794   2.185   0.431   8.372
19518WAT      O58795   9.558   8.838   5.268
19518WAT     H158796   9.543   8.755   5.321
19518WAT     H258797   9.472   8.865   5.225
19519WAT      O58798   4.632   5.097   3.688
19519WAT     H158799   4.702   5.026   3.676
19519WAT     H258800   4.674   5.187   3.682
19520WAT      O58801   9.100   0.751   2.668
19520WAT     H158802   9.194   0.733   2.696
19520WAT     H258803   9.039   0.688   2.717
19521WAT      O58804   6.129   1.670   5.117
19521WAT     H158805   6.156   1.609   5.043
19521WAT     H258806   6.060   1.625   5.174
19522WAT      O58807   6.213   0.899   9.287
19522WAT     H158808   6.180   0.994   9.286
19522WAT     H258809   6.137   0.837   9.266
19523WAT      O58810   9.083   1.766   1.973
19523WAT     H158811   9.101   1.684   1.919
19523WAT     H258812   8.988   1.796   1.958
19524WAT      O58813   2.601   9.155   4.325
19524WAT     H158814   2.521   9.171   4.383
19524WAT     H258815   2.610   9.057   4.306
19525WAT      O58816   7.153   8.957   9.371
19525WAT     H158817   7.192   8.895   9.438
19525WAT     H258818   7.163   8.918   9.279
19526WAT      O58819   3.446   8.974   5.190
19526WAT     H158820   3.453   8.945   5.285
19526WAT     H258821   3.426   8.895   5.132
19527WAT      O58822   7.744   1.881   9.268
19527WAT     H158823   7.662   1.929   9.236
19527WAT     H258824   7.722   1.784   9.284
19528WAT      O58825   8.746   4.075   9.738
19528WAT     H158826   8.663   4.127   9.760
19528WAT     H258827   8.816   4.094   9.807
19529WAT      O58828   0.510   7.589   0.127
19529WAT     H158829   0.560   7.634   0.053
19529WAT     H258830   0.528   7.635   0.213
19530WAT      O58831   7.285   8.307   5.333
19530WAT     H158832   7.371   8.325   5.380
19530WAT     H258833   7.213   8.293   5.401
19531WAT      O58834   2.155   1.702   7.632
19531WAT     H158835   2.166   1.697   7.533
19531WAT     H258836   2.244   1.720   7.675
19532WAT      O58837   3.044   7.957   4.689
19532WAT     H158838   3.009   7.929   4.600
19532WAT     H258839   3.139   7.928   4.698
19533WAT      O58840   3.734   7.999   3.597
19533WAT     H158841   3.726   8.039   3.506
19533WAT     H258842   3.788   7.914   3.592
19534WAT      O58843   8.476   1.898   9.623
19534WAT     H158844   8.529   1.854   9.695
19534WAT     H258845   8.512   1.871   9.534
19535WAT      O58846   1.484   9.633   3.209
19535WAT     H158847   1.521   9.665   3.296
19535WAT     H258848   1.391   9.669   3.198
19536WAT      O58849   0.746   0.419   0.223
19536WAT     H158850   0.690   0.354   0.172
19536WAT     H258851   0.839   0.419   0.186
19537WAT      O58852   7.304   6.637   5.690
19537WAT     H158853   7.363   6.627   5.610
19537WAT     H258854   7.331   6.719   5.742
19538WAT      O58855   4.421   7.257   0.343
19538WAT     H158856   4.392   7.286   0.252
19538WAT     H258857   4.342   7.228   0.396
19539WAT      O58858   1.414   7.625   3.360
19539WAT     H158859   1.473   7.559   3.313
19539WAT     H258860   1.337   7.577   3.402
19540WAT      O58861   4.568   2.158   2.836
19540WAT     H158862   4.646   2.113   2.879
19540WAT     H258863   4.565   2.134   2.739
19541WAT      O58864   5.724   1.479   1.188
19541WAT     H158865   5.736   1.486   1.089
19541WAT     H258866   5.808   1.509   1.233
19542WAT      O58867   9.095   8.647   3.088
19542WAT     H158868   9.058   8.695   3.167
19542WAT     H258869   9.087   8.706   3.007
19543WAT      O58870   5.395   8.768   8.206
19543WAT     H158871   5.355   8.860   8.207
19543WAT     H258872   5.366   8.719   8.124
19544WAT      O58873   5.550   5.822   0.868
19544WAT     H158874   5.517   5.729   0.884
19544WAT     H258875   5.510   5.857   0.783
19545WAT      O58876   9.411   2.517   9.639
19545WAT     H158877   9.420   2.464   9.723
19545WAT     H258878   9.345   2.473   9.578
19546WAT      O58879   7.212   9.297   0.624
19546WAT     H158880   7.159   9.227   0.673
19546WAT     H258881   7.258   9.356   0.690
19547WAT      O58882   0.869   5.512   1.470
19547WAT     H158883   0.843   5.492   1.375
19547WAT     H258884   0.884   5.610   1.480
19548WAT      O58885   4.156   6.679   9.452
19548WAT     H158886   4.231   6.621   9.483
19548WAT     H258887   4.108   6.717   9.531
19549WAT      O58888   9.281   5.961   9.205
19549WAT     H158889   9.355   5.895   9.212
19549WAT     H258890   9.199   5.925   9.249
19550WAT      O58891   8.198   2.593   8.310
19550WAT     H158892   8.124   2.566   8.249
19550WAT     H258893   8.280   2.540   8.288
19551WAT      O58894   6.775   1.383   0.613
19551WAT     H158895   6.739   1.468   0.575
19551WAT     H258896   6.862   1.401   0.659
19552WAT      O58897   0.294   2.000   3.492
19552WAT     H158898   0.392   2.011   3.511
19552WAT     H258899   0.256   1.930   3.553
19553WAT      O58900   2.899   3.899   0.607
19553WAT     H158901   2.966   3.852   0.550
19553WAT     H258902   2.867   3.982   0.561
19554WAT      O58903   7.989   9.053   0.693
19554WAT     H158904   7.950   9.095   0.776
19554WAT     H258905   8.084   9.028   0.711
19555WAT      O58906   2.606   3.589   6.381
19555WAT     H158907   2.702   3.569   6.398
19555WAT     H258908   2.549   3.521   6.427
19556WAT      O58909   5.779   3.345   4.312
19556WAT     H158910   5.704   3.337   4.245
19556WAT     H258911   5.741   3.347   4.404
19557WAT      O58912   9.144   5.293   7.787
19557WAT     H158913   9.086   5.263   7.711
19557WAT     H258914   9.088   5.344   7.853
19558WAT      O58915   8.663   1.227   7.270
19558WAT     H158916   8.566   1.253   7.280
19558WAT     H258917   8.669   1.138   7.226
19559WAT      O58918   1.053   2.720   6.820
19559WAT     H158919   1.041   2.621   6.825
19559WAT     H258920   1.043   2.759   6.912
19560WAT      O58921   4.725   5.440   1.640
19560WAT     H158922   4.807   5.487   1.672
19560WAT     H258923   4.667   5.418   1.719
19561WAT      O58924   0.202   8.896   6.068
19561WAT     H158925   0.121   8.859   6.113
19561WAT     H258926   0.184   8.989   6.037
19562WAT      O58927   5.891   6.935   6.695
19562WAT     H158928   5.972   6.976   6.737
19562WAT     H258929   5.809   6.967   6.742
19563WAT      O58930   9.319   2.701   4.968
19563WAT     H158931   9.236   2.756   4.963
19563WAT     H258932   9.399   2.762   4.966
19564WAT      O58933   3.211   4.289   2.708
19564WAT     H158934   3.264   4.280   2.792
19564WAT     H258935   3.118   4.256   2.723
19565WAT      O58936   8.238   8.661   3.909
19565WAT     H158937   8.180   8.655   3.827
19565WAT     H258938   8.195   8.722   3.976
19566WAT      O58939   4.850   8.116   7.698
19566WAT     H158940   4.911   8.195   7.696
19566WAT     H258941   4.789   8.119   7.619
19567WAT      O58942   5.962   1.227   4.377
19567WAT     H158943   6.007   1.139   4.361
19567WAT     H258944   5.970   1.251   4.474
19568WAT      O58945   8.505   6.580   4.386
19568WAT     H158946   8.479   6.553   4.479
19568WAT     H258947   8.462   6.518   4.321
19569WAT      O58948   3.938   3.467   6.414
19569WAT     H158949   3.997   3.529   6.467
19569WAT     H258950   3.845   3.503   6.414
19570WAT      O58951   1.273   5.166   0.765
19570WAT     H158952   1.330   5.089   0.737
19570WAT     H258953   1.245   5.154   0.860
19571WAT      O58954   0.467   3.835   3.205
19571WAT     H158955   0.503   3.928   3.202
19571WAT     H258956   0.424   3.819   3.294
19572WAT      O58957   4.500   7.110   1.324
19572WAT     H158958   4.540   7.196   1.357
19572WAT     H258959   4.509   7.040   1.395
19573WAT      O58960   0.733   1.239   8.965
19573WAT     H158961   0.737   1.322   9.020
19573WAT     H258962   0.654   1.244   8.904
19574WAT      O58963   3.917   7.457   7.882
19574WAT     H158964   3.859   7.537   7.902
19574WAT     H258965   3.911   7.392   7.958
19575WAT      O58966   0.236   2.209   8.713
19575WAT     H158967   0.219   2.174   8.806
19575WAT     H258968   0.295   2.289   8.718
19576WAT      O58969   2.893   1.167   0.138
19576WAT     H158970   2.843   1.252   0.154
19576WAT     H258971   2.959   1.181   0.064
19577WAT      O58972   0.678   1.959   4.952
19577WAT     H158973   0.698   2.048   4.992
19577WAT     H258974   0.583   1.957   4.920
19578WAT      O58975   0.200   6.143   9.746
19578WAT     H158976   0.134   6.068   9.753
19578WAT     H258977   0.218   6.163   9.650
19579WAT      O58978   1.033   1.404   5.493
19579WAT     H158979   0.935   1.385   5.501
19579WAT     H258980   1.047   1.503   5.482
19580WAT      O58981   1.693   2.643   8.324
19580WAT     H158982   1.626   2.585   8.371
19580WAT     H258983   1.689   2.625   8.226
19581WAT      O58984   2.147   2.956   0.201
19581WAT     H158985   2.114   3.026   0.265
19581WAT     H258986   2.186   2.879   0.252
19582WAT      O58987   7.998   4.891   4.152
19582WAT     H158988   7.945   4.807   4.156
19582WAT     H258989   7.981   4.937   4.064
19583WAT      O58990   8.426   7.313   0.545
19583WAT     H158991   8.508   7.352   0.587
19583WAT     H258992   8.448   7.224   0.505
19584WAT      O58993   6.033   4.336   4.259
19584WAT     H158994   6.038   4.286   4.173
19584WAT     H258995   6.122   4.335   4.304
19585WAT      O58996   2.704   6.054   8.416
19585WAT     H158997   2.737   6.060   8.321
19585WAT     H258998   2.758   5.986   8.466
19586WAT      O58999   4.065   0.653   0.622
19586WAT     H159000   4.128   0.588   0.664
19586WAT     H259001   4.105   0.745   0.626
19587WAT      O59002   3.415   7.798   7.372
19587WAT     H159003   3.445   7.703   7.374
19587WAT     H259004   3.438   7.839   7.284
19588WAT      O59005   0.964   1.898   5.976
19588WAT     H159006   0.925   1.806   5.963
19588WAT     H259007   0.897   1.967   5.948
19589WAT      O59008   1.016   7.225   3.513
19589WAT     H159009   0.972   7.311   3.538
19589WAT     H259010   1.063   7.186   3.592
19590WAT      O59011   9.811   4.943   6.105
19590WAT     H159012   9.730   4.886   6.094
19590WAT     H259013   9.876   4.923   6.032
19591WAT      O59014   0.787   9.077   8.798
19591WAT     H159015   0.821   9.160   8.843
19591WAT     H259016   0.752   9.014   8.867
19592WAT      O59017   9.088   7.844   3.656
19592WAT     H159018   9.077   7.893   3.743
19592WAT     H259019   9.002   7.801   3.630
19593WAT      O59020   2.611   1.603   9.036
19593WAT     H159021   2.543   1.611   8.962
19593WAT     H259022   2.564   1.585   9.122
19594WAT      O59023   7.129   4.862   2.015
19594WAT     H159024   7.074   4.801   2.071
19594WAT     H259025   7.117   4.956   2.047
19595WAT      O59026   7.393   5.532   5.223
19595WAT     H159027   7.443   5.526   5.137
19595WAT     H259028   7.353   5.624   5.232
19596WAT      O59029   6.604   5.377   8.542
19596WAT     H159030   6.674   5.374   8.470
19596WAT     H259031   6.586   5.472   8.567
19597WAT      O59032   4.869   5.777   0.532
19597WAT     H159033   4.951   5.816   0.574
19597WAT     H259034   4.895   5.700   0.473
19598WAT      O59035   4.342   9.534   6.378
19598WAT     H159036   4.261   9.476   6.390
19598WAT     H259037   4.424   9.481   6.400
19599WAT      O59038   8.762   4.590   5.781
19599WAT     H159039   8.667   4.615   5.803
19599WAT     H259040   8.779   4.607   5.684
19600WAT      O59041   2.310   5.116   4.277
19600WAT     H159042   2.377   5.042   4.284
19600WAT     H259043   2.341   5.195   4.329
19601WAT      O59044   7.800   9.046   9.477
19601WAT     H159045   7.739   9.022   9.552
19601WAT     H259046   7.845   9.133   9.497
19602WAT      O59047   0.903   6.968   7.599
19602WAT     H159048   0.999   6.989   7.614
19602WAT     H259049   0.857   6.957   7.688
19603WAT      O59050   7.955   8.974   6.841
19603WAT     H159051   8.022   9.026   6.894
19603WAT     H259052   7.997   8.891   6.805
19604WAT      O59053   7.229   3.871   2.674
19604WAT     H159054   7.173   3.791   2.654
19604WAT     H259055   7.176   3.954   2.658
19605WAT      O59056   9.299   4.406   8.161
19605WAT     H159057   9.208   4.415   8.123
19605WAT     H259058   9.330   4.495   8.195
19606WAT      O59059   7.032   9.421   3.135
19606WAT     H159060   7.094   9.499   3.129
19606WAT     H259061   7.058   9.352   3.067
19607WAT      O59062   6.692   6.693   4.874
19607WAT     H159063   6.709   6.645   4.788
19607WAT     H259064   6.738   6.645   4.948
19608WAT      O59065   2.897   1.904   5.627
19608WAT     H159066   2.876   1.809   5.603
19608WAT     H259067   2.996   1.920   5.617
19609WAT      O59068   4.719   4.774   0.449
19609WAT     H159069   4.798   4.712   0.448
19609WAT     H259070   4.655   4.746   0.377
19610WAT      O59071   3.367   1.755   1.227
19610WAT     H159072   3.379   1.781   1.132
19610WAT     H259073   3.324   1.830   1.277
19611WAT      O59074   0.925   2.661   8.317
19611WAT     H159075   0.872   2.597   8.373
19611WAT     H259076   0.871   2.744   8.302
19612WAT      O59077   1.564   9.747   2.741
19612WAT     H159078   1.546   9.843   2.721
19612WAT     H259079   1.591   9.737   2.837
19613WAT      O59080   2.550   3.385   1.563
19613WAT     H159081   2.577   3.474   1.526
19613WAT     H259082   2.592   3.313   1.509
19614WAT      O59083   7.584   2.409   8.666
19614WAT     H159084   7.601   2.490   8.610
19614WAT     H259085   7.569   2.330   8.607
19615WAT      O59086   2.315   4.648   4.538
19615WAT     H159087   2.358   4.596   4.612
19615WAT     H259088   2.227   4.684   4.570
19616WAT      O59089   9.261   5.009   5.180
19616WAT     H159090   9.190   4.939   5.177
19616WAT     H259091   9.350   4.966   5.169
19617WAT      O59092   8.594   2.954   3.294
19617WAT     H159093   8.666   3.003   3.245
19617WAT     H259094   8.556   3.013   3.366
19618WAT      O59095   1.308   8.867   6.234
19618WAT     H159096   1.408   8.869   6.223
19618WAT     H259097   1.276   8.959   6.257
19619WAT      O59098   1.559   4.557   8.389
19619WAT     H159099   1.526   4.539   8.296
19619WAT     H259100   1.598   4.473   8.427
19620WAT      O59101   5.521   7.869   0.361
19620WAT     H159102   5.589   7.866   0.287
19620WAT     H259103   5.550   7.808   0.435
19621WAT      O59104   9.313   1.828   4.672
19621WAT     H159105   9.301   1.753   4.608
19621WAT     H259106   9.290   1.796   4.765
19622WAT      O59107   1.912   4.452   6.798
19622WAT     H159108   2.006   4.432   6.825
19622WAT     H259109   1.863   4.366   6.780
19623WAT      O59110   1.108   7.237   1.598
19623WAT     H159111   1.044   7.212   1.526
19623WAT     H259112   1.061   7.290   1.669
19624WAT      O59113   8.626   9.268   0.292
19624WAT     H159114   8.679   9.197   0.340
19624WAT     H259115   8.643   9.356   0.335
19625WAT      O59116   2.567   8.834   2.591
19625WAT     H159117   2.633   8.864   2.522
19625WAT     H259118   2.489   8.791   2.547
19626WAT      O59119   5.037   1.549   5.516
19626WAT     H159120   4.980   1.628   5.539
19626WAT     H259121   5.108   1.537   5.585
19627WAT      O59122   1.779   1.208   2.998
19627WAT     H159123   1.774   1.238   2.903
19627WAT     H259124   1.689   1.174   3.027
19628WAT      O59125   6.612   2.445   5.920
19628WAT     H159126   6.574   2.378   5.984
19628WAT     H259127   6.559   2.444   5.835
19629WAT      O59128   1.675   3.755   4.817
19629WAT     H159129   1.691   3.848   4.849
19629WAT     H259130   1.626   3.704   4.887
19630WAT      O59131   2.832   3.100   4.258
19630WAT     H159132   2.860   3.143   4.344
19630WAT     H259133   2.799   3.007   4.276
19631WAT      O59134   5.868   0.231   1.414
19631WAT     H159135   5.955   0.238   1.463
19631WAT     H259136   5.799   0.191   1.475
19632WAT      O59137   7.523   4.822   6.915
19632WAT     H159138   7.474   4.853   6.996
19632WAT     H259139   7.620   4.811   6.937
19633WAT      O59140   2.751   4.253   4.900
19633WAT     H159141   2.708   4.170   4.934
19633WAT     H259142   2.838   4.230   4.856
19634WAT      O59143   6.301   6.941   6.607
19634WAT     H159144   6.332   6.853   6.643
19634WAT     H259145   6.256   6.992   6.681
19635WAT      O59146   5.068   8.140   1.529
19635WAT     H159147   5.151   8.148   1.585
19635WAT     H259148   5.051   8.226   1.482
19636WAT      O59149   2.382   9.274   3.812
19636WAT     H159150   2.426   9.335   3.878
19636WAT     H259151   2.439   9.193   3.798
19637WAT      O59152   1.561   6.139   6.609
19637WAT     H159153   1.596   6.051   6.577
19637WAT     H259154   1.468   6.152   6.576
19638WAT      O59155   6.908   0.300   8.247
19638WAT     H159156   6.819   0.260   8.226
19638WAT     H259157   6.905   0.339   8.339
19639WAT      O59158   0.624   4.907   5.665
19639WAT     H159159   0.584   4.840   5.727
19639WAT     H259160   0.722   4.917   5.684
19640WAT      O59161   3.693   4.281   3.216
19640WAT     H159162   3.749   4.253   3.294
19640WAT     H259163   3.596   4.270   3.239
19641WAT      O59164   4.669   0.909   3.048
19641WAT     H159165   4.760   0.909   3.005
19641WAT     H259166   4.616   0.986   3.013
19642WAT      O59167   5.490   9.367   7.974
19642WAT     H159168   5.400   9.377   7.930
19642WAT     H259169   5.489   9.286   8.033
19643WAT      O59170   7.883   5.851   3.817
19643WAT     H159171   7.911   5.854   3.913
19643WAT     H259172   7.962   5.831   3.760
19644WAT      O59173   0.754   8.103   0.712
19644WAT     H159174   0.666   8.090   0.665
19644WAT     H259175   0.759   8.196   0.748
19645WAT      O59176   7.050   9.447   1.805
19645WAT     H159177   7.092   9.388   1.874
19645WAT     H259178   7.081   9.419   1.714
19646WAT      O59179   1.335   0.279   9.062
19646WAT     H159180   1.288   0.366   9.050
19646WAT     H259181   1.275   0.216   9.113
19647WAT      O59182   5.178   7.758   6.397
19647WAT     H159183   5.181   7.659   6.387
19647WAT     H259184   5.259   7.798   6.355
19648WAT      O59185   5.155   7.384   9.689
19648WAT     H159186   5.126   7.316   9.755
19648WAT     H259187   5.205   7.457   9.735
19649WAT      O59188   2.189   2.738   9.717
19649WAT     H159189   2.096   2.704   9.702
19649WAT     H259190   2.246   2.665   9.755
19650WAT      O59191   8.231   1.981   1.122
19650WAT     H159192   8.304   1.960   1.057
19650WAT     H259193   8.241   1.924   1.203
19651WAT      O59194   4.348   0.084   1.538
19651WAT     H159195   4.272   0.020   1.554
19651WAT     H259196   4.424   0.061   1.599
19652WAT      O59197   1.199   3.488   5.639
19652WAT     H159198   1.148   3.402   5.639
19652WAT     H259199   1.240   3.502   5.549
19653WAT      O59200   0.960   3.460   3.214
19653WAT     H159201   0.929   3.412   3.295
19653WAT     H259202   0.908   3.545   3.203
19654WAT      O59203   1.375   3.706   1.648
19654WAT     H159204   1.458   3.735   1.696
19654WAT     H259205   1.315   3.657   1.711
19655WAT      O59206   1.713   1.706   1.737
19655WAT     H159207   1.698   1.795   1.780
19655WAT     H259208   1.663   1.702   1.651
19656WAT      O59209   3.136   0.287   7.501
19656WAT     H159210   3.038   0.304   7.513
19656WAT     H259211   3.174   0.253   7.587
19657WAT      O59212   5.915   1.457   1.895
19657WAT     H159213   5.961   1.372   1.921
19657WAT     H259214   5.881   1.449   1.802
19658WAT      O59215   5.945   2.014   9.405
19658WAT     H159216   6.043   1.996   9.392
19658WAT     H259217   5.926   2.023   9.503
19659WAT      O59218   0.911   8.447   3.342
19659WAT     H159219   0.910   8.400   3.254
19659WAT     H259220   0.915   8.379   3.416
19660WAT      O59221   2.057   0.238   6.258
19660WAT     H159222   2.010   0.161   6.302
19660WAT     H259223   2.010   0.261   6.173
19661WAT      O59224   6.343   8.303   1.630
19661WAT     H159225   6.247   8.300   1.658
19661WAT     H259226   6.349   8.336   1.535
19662WAT      O59227   8.066   8.389   7.648
19662WAT     H159228   8.135   8.349   7.588
19662WAT     H259229   8.018   8.462   7.599
19663WAT      O59230   9.463   2.235   5.374
19663WAT     H159231   9.555   2.229   5.412
19663WAT     H259232   9.396   2.219   5.446
19664WAT      O59233   1.235   6.836   2.676
19664WAT     H159234   1.196   6.835   2.584
19664WAT     H259235   1.282   6.749   2.692
19665WAT      O59236   2.733   3.683   8.747
19665WAT     H159237   2.695   3.641   8.664
19665WAT     H259238   2.828   3.654   8.758
19666WAT      O59239   9.702   4.385   6.885
19666WAT     H159240   9.644   4.322   6.833
19666WAT     H259241   9.783   4.408   6.832
19667WAT      O59242   2.412   1.272   0.497
19667WAT     H159243   2.479   1.266   0.423
19667WAT     H259244   2.406   1.183   0.542
19668WAT      O59245   5.953   5.947   8.099
19668WAT     H159246   5.970   6.030   8.046
19668WAT     H259247   6.039   5.917   8.141
19669WAT      O59248   0.840   3.560   8.063
19669WAT     H159249   0.863   3.466   8.039
19669WAT     H259250   0.922   3.617   8.062
19670WAT      O59251   4.361   8.552   1.182
19670WAT     H159252   4.437   8.492   1.157
19670WAT     H259253   4.287   8.542   1.115
19671WAT      O59254   9.885   1.878   8.993
19671WAT     H159255   9.799   1.921   9.020
19671WAT     H259256   9.957   1.947   8.987
19672WAT      O59257   7.247   8.697   3.125
19672WAT     H159258   7.290   8.671   3.212
19672WAT     H259259   7.299   8.771   3.083
19673WAT      O59260   4.457   4.212   1.850
19673WAT     H159261   4.457   4.308   1.879
19673WAT     H259262   4.505   4.203   1.763
19674WAT      O59263   4.742   3.159   9.718
19674WAT     H159264   4.815   3.166   9.650
19674WAT     H259265   4.658   3.128   9.674
19675WAT      O59266   5.905   2.039   2.892
19675WAT     H159267   5.907   2.080   2.983
19675WAT     H259268   5.991   1.991   2.875
19676WAT      O59269   6.260   1.203   2.963
19676WAT     H159270   6.267   1.171   2.868
19676WAT     H259271   6.182   1.159   3.007
19677WAT      O59272   5.437   3.527   5.808
19677WAT     H159273   5.519   3.470   5.796
19677WAT     H259274   5.459   3.622   5.785
19678WAT      O59275   2.255   2.843   8.995
19678WAT     H159276   2.192   2.766   8.980
19678WAT     H259277   2.324   2.818   9.062
19679WAT      O59278   3.391   6.891   1.988
19679WAT     H159279   3.383   6.813   1.926
19679WAT     H259280   3.404   6.858   2.082
19680WAT      O59281   5.147   6.774   4.449
19680WAT     H159282   5.097   6.692   4.420
19680WAT     H259283   5.084   6.836   4.497
19681WAT      O59284   1.474   3.927   6.269
19681WAT     H159285   1.431   3.893   6.352
19681WAT     H259286   1.418   3.904   6.189
19682WAT      O59287   6.371   2.223   3.538
19682WAT     H159288   6.399   2.183   3.450
19682WAT     H259289   6.350   2.320   3.525
19683WAT      O59290   3.286   0.505   7.783
19683WAT     H159291   3.206   0.538   7.832
19683WAT     H259292   3.277   0.407   7.766
19684WAT      O59293   6.344   2.197   4.170
19684WAT     H159294   6.293   2.130   4.224
19684WAT     H259295   6.405   2.249   4.229
19685WAT      O59296   5.449   6.445   7.067
19685WAT     H159297   5.533   6.475   7.113
19685WAT     H259298   5.381   6.417   7.135
19686WAT      O59299   8.376   1.363   2.780
19686WAT     H159300   8.349   1.362   2.876
19686WAT     H259301   8.428   1.280   2.759
19687WAT      O59302   0.840   5.174   3.739
19687WAT     H159303   0.903   5.242   3.701
19687WAT     H259304   0.746   5.199   3.716
19688WAT      O59305   9.234   3.386   3.108
19688WAT     H159306   9.144   3.426   3.123
19688WAT     H259307   9.227   3.314   3.039
19689WAT      O59308   1.595   5.107   0.434
19689WAT     H159309   1.571   5.056   0.517
19689WAT     H259310   1.634   5.044   0.367
19690WAT      O59311   1.782   5.445   6.033
19690WAT     H159312   1.822   5.531   6.002
19690WAT     H259313   1.748   5.393   5.955
19691WAT      O59314   4.116   3.216   3.759
19691WAT     H159315   4.171   3.235   3.677
19691WAT     H259316   4.150   3.271   3.835
19692WAT      O59317   0.308   1.736   6.050
19692WAT     H159318   0.235   1.795   6.083
19692WAT     H259319   0.361   1.702   6.128
19693WAT      O59320   7.839   4.364   8.254
19693WAT     H159321   7.791   4.440   8.209
19693WAT     H259322   7.921   4.398   8.299
19694WAT      O59323   2.378   4.536   3.420
19694WAT     H159324   2.342   4.584   3.500
19694WAT     H259325   2.331   4.570   3.338
19695WAT      O59326   1.071   8.904   9.850
19695WAT     H159327   1.085   8.806   9.843
19695WAT     H259328   1.079   8.932   9.946
19696WAT      O59329   4.228   6.179   4.756
19696WAT     H159330   4.245   6.153   4.852
19696WAT     H259331   4.134   6.158   4.731
19697WAT      O59332   0.250   9.336   6.616
19697WAT     H159333   0.239   9.330   6.715
19697WAT     H259334   0.347   9.327   6.593
19698WAT      O59335   9.189   1.747   6.680
19698WAT     H159336   9.195   1.738   6.779
19698WAT     H259337   9.276   1.779   6.644
19699WAT      O59338   1.373   5.137   2.478
19699WAT     H159339   1.378   5.170   2.572
19699WAT     H259340   1.361   5.038   2.478
19700WAT      O59341   3.086   8.768   0.683
19700WAT     H159342   3.003   8.756   0.628
19700WAT     H259343   3.165   8.734   0.632
19701WAT      O59344   0.857   8.915   8.013
19701WAT     H159345   0.802   8.834   7.995
19701WAT     H259346   0.943   8.889   8.057
19702WAT      O59347   8.842   2.716   6.553
19702WAT     H159348   8.831   2.676   6.644
19702WAT     H259349   8.902   2.796   6.559
19703WAT      O59350   2.196   2.099   7.110
19703WAT     H159351   2.118   2.097   7.047
19703WAT     H259352   2.207   2.192   7.146
19704WAT      O59353   2.807   0.580   3.379
19704WAT     H159354   2.880   0.515   3.358
19704WAT     H259355   2.797   0.645   3.303
19705WAT      O59356   7.590   2.898   3.281
19705WAT     H159357   7.537   2.961   3.337
19705WAT     H259358   7.687   2.906   3.304
19706WAT      O59359   4.525   6.327   0.437
19706WAT     H159360   4.433   6.349   0.467
19706WAT     H259361   4.546   6.231   0.458
19707WAT      O59362   6.487   1.037   5.397
19707WAT     H159363   6.465   1.107   5.465
19707WAT     H259364   6.445   0.950   5.425
19708WAT      O59365   1.055   5.382   1.620
19708WAT     H159366   1.020   5.303   1.671
19708WAT     H259367   0.983   5.416   1.559
19709WAT      O59368   9.228   3.824   9.779
19709WAT     H159369   9.180   3.908   9.756
19709WAT     H259370   9.211   3.800   9.874
19710WAT      O59371   2.369   7.100   3.066
19710WAT     H159372   2.419   7.037   3.006
19710WAT     H259373   2.346   7.183   3.016
19711WAT      O59374   8.196   9.347   8.726
19711WAT     H159375   8.201   9.442   8.758
19711WAT     H259376   8.135   9.342   8.647
19712WAT      O59377   2.760   8.207   9.063
19712WAT     H159378   2.816   8.127   9.038
19712WAT     H259379   2.663   8.185   9.049
19713WAT      O59380   6.328   4.751   6.815
19713WAT     H159381   6.323   4.796   6.726
19713WAT     H259382   6.259   4.679   6.819
19714WAT      O59383   3.289   4.191   1.477
19714WAT     H159384   3.216   4.183   1.409
19714WAT     H259385   3.361   4.125   1.458
19715WAT      O59386   0.977   2.939   0.462
19715WAT     H159387   1.029   3.016   0.424
19715WAT     H259388   1.041   2.872   0.501
19716WAT      O59389   7.708   6.872   6.561
19716WAT     H159390   7.787   6.928   6.586
19716WAT     H259391   7.664   6.837   6.644
19717WAT      O59392   8.195   9.672   8.224
19717WAT     H159393   8.233   9.639   8.137
19717WAT     H259394   8.223   9.611   8.298
19718WAT      O59395   6.165   8.736   8.684
19718WAT     H159396   6.261   8.720   8.707
19718WAT     H259397   6.144   8.833   8.693
19719WAT      O59398   7.208   3.249   8.191
19719WAT     H159399   7.227   3.328   8.251
19719WAT     H259400   7.275   3.177   8.209
19720WAT      O59401   0.371   3.722   0.252
19720WAT     H159402   0.354   3.705   0.350
19720WAT     H259403   0.332   3.648   0.198
19721WAT      O59404   0.176   6.551   6.483
19721WAT     H159405   0.142   6.645   6.477
19721WAT     H259406   0.117   6.498   6.545
19722WAT      O59407   5.749   5.642   4.716
19722WAT     H159408   5.751   5.567   4.649
19722WAT     H259409   5.705   5.722   4.674
19723WAT      O59410   5.612   1.021   8.886
19723WAT     H159411   5.578   1.114   8.900
19723WAT     H259412   5.678   1.021   8.810
19724WAT      O59413   6.722   8.430   2.597
19724WAT     H159414   6.628   8.423   2.563
19724WAT     H259415   6.776   8.354   2.561
19725WAT      O59416   8.480   7.612   8.194
19725WAT     H159417   8.479   7.704   8.234
19725WAT     H259418   8.529   7.615   8.107
19726WAT      O59419   2.538   4.831   4.666
19726WAT     H159420   2.581   4.858   4.580
19726WAT     H259421   2.566   4.738   4.691
19727WAT      O59422   6.392   4.799   0.891
19727WAT     H159423   6.388   4.818   0.989
19727WAT     H259424   6.478   4.754   0.869
19728WAT      O59425   3.783   7.208   1.312
19728WAT     H159426   3.828   7.233   1.227
19728WAT     H259427   3.820   7.120   1.345
19729WAT      O59428   6.268   2.795   7.246
19729WAT     H159429   6.191   2.770   7.306
19729WAT     H259430   6.234   2.812   7.154
19730WAT      O59431   2.833   8.218   3.569
19730WAT     H159432   2.742   8.242   3.533
19730WAT     H259433   2.895   8.199   3.492
19731WAT      O59434   0.114   0.107   7.116
19731WAT     H159435   0.156   0.059   7.040
19731WAT     H259436   0.127   0.055   7.200
19732WAT      O59437   1.452   1.301   1.740
19732WAT     H159438   1.522   1.324   1.672
19732WAT     H259439   1.419   1.208   1.723
19733WAT      O59440   7.583   2.598   1.983
19733WAT     H159441   7.667   2.643   2.014
19733WAT     H259442   7.507   2.628   2.041
19734WAT      O59443   4.331   8.153   7.419
19734WAT     H159444   4.409   8.093   7.439
19734WAT     H259445   4.247   8.099   7.420
19735WAT      O59446   8.898   5.662   9.597
19735WAT     H159447   8.814   5.633   9.551
19735WAT     H259448   8.940   5.584   9.643
19736WAT      O59449   9.665   2.963   5.700
19736WAT     H159450   9.594   2.893   5.710
19736WAT     H259451   9.754   2.923   5.719
19737WAT      O59452   4.049   7.118   2.552
19737WAT     H159453   4.131   7.075   2.588
19737WAT     H259454   3.986   7.048   2.518
19738WAT      O59455   6.748   0.309   1.785
19738WAT     H159456   6.802   0.391   1.804
19738WAT     H259457   6.737   0.256   1.869
19739WAT      O59458   5.351   0.125   8.875
19739WAT     H159459   5.281   0.063   8.909
19739WAT     H259460   5.353   0.121   8.775
19740WAT      O59461   3.860   3.249   0.740
19740WAT     H159462   3.896   3.166   0.783
19740WAT     H259463   3.792   3.224   0.672
19741WAT      O59464   7.687   4.214   8.771
19741WAT     H159465   7.637   4.134   8.803
19741WAT     H259466   7.768   4.185   8.720
19742WAT      O59467   9.223   9.162   9.527
19742WAT     H159468   9.130   9.162   9.489
19742WAT     H259469   9.289   9.143   9.453
19743WAT      O59470   9.346   4.220   7.587
19743WAT     H159471   9.268   4.210   7.648
19743WAT     H259472   9.320   4.193   7.494
19744WAT      O59473   2.827   4.948   8.201
19744WAT     H159474   2.923   4.921   8.208
19744WAT     H259475   2.802   4.958   8.105
19745WAT      O59476   8.528   3.095   1.372
19745WAT     H159477   8.481   3.028   1.430
19745WAT     H259478   8.517   3.186   1.410
19746WAT      O59479   8.789   3.828   6.294
19746WAT     H159480   8.872   3.798   6.340
19746WAT     H259481   8.765   3.920   6.326
19747WAT      O59482   3.562   1.941   8.152
19747WAT     H159483   3.549   1.894   8.065
19747WAT     H259484   3.474   1.971   8.188
19748WAT      O59485   8.280   2.223   3.771
19748WAT     H159486   8.265   2.192   3.677
19748WAT     H259487   8.340   2.303   3.770
19749WAT      O59488   1.101   8.660   6.645
19749WAT     H159489   1.048   8.576   6.632
19749WAT     H259490   1.046   8.727   6.696
19750WAT      O59491   1.546   2.035   3.839
19750WAT     H159492   1.606   1.964   3.875
19750WAT     H259493   1.571   2.054   3.744
19751WAT      O59494   8.106   0.360   5.512
19751WAT     H159495   8.084   0.453   5.542
19751WAT     H259496   8.190   0.330   5.557
19752WAT      O59497   8.896   2.959   7.699
19752WAT     H159498   8.885   2.993   7.792
19752WAT     H259499   8.837   2.879   7.686
19753WAT      O59500   8.190   1.828   8.060
19753WAT     H159501   8.236   1.857   8.143
19753WAT     H259502   8.183   1.728   8.058
19754WAT      O59503   0.775   6.205   1.033
19754WAT     H159504   0.758   6.151   0.951
19754WAT     H259505   0.849   6.163   1.086
19755WAT      O59506   7.763   4.314   1.186
19755WAT     H159507   7.707   4.234   1.208
19755WAT     H259508   7.839   4.320   1.250
19756WAT      O59509   6.087   2.581   3.255
19756WAT     H159510   6.022   2.641   3.208
19756WAT     H259511   6.071   2.486   3.228
19757WAT      O59512   5.029   4.207   1.558
19757WAT     H159513   5.108   4.196   1.496
19757WAT     H259514   4.964   4.133   1.542
19758WAT      O59515   2.973   1.985   8.474
19758WAT     H159516   2.909   1.994   8.550
19758WAT     H259517   3.057   2.037   8.494
19759WAT      O59518   1.208   3.150   3.278
19759WAT     H159519   1.123   3.169   3.327
19759WAT     H259520   1.281   3.208   3.316
19760WAT      O59521   9.752   3.688   7.399
19760WAT     H159522   9.772   3.600   7.355
19760WAT     H259523   9.699   3.745   7.336
19761WAT      O59524   7.202   0.908   4.863
19761WAT     H159525   7.123   0.927   4.921
19761WAT     H259526   7.173   0.909   4.767
19762WAT      O59527   5.357   4.705   0.252
19762WAT     H159528   5.304   4.752   0.182
19762WAT     H259529   5.423   4.643   0.209
19763WAT      O59530   6.076   8.072   8.743
19763WAT     H159531   6.083   8.132   8.822
19763WAT     H259532   6.159   8.079   8.688
19764WAT      O59533   7.274   0.902   8.724
19764WAT     H159534   7.271   0.990   8.677
19764WAT     H259535   7.197   0.846   8.694
19765WAT      O59536   6.035   8.705   8.925
19765WAT     H159537   5.948   8.742   8.893
19765WAT     H259538   6.103   8.710   8.851
19766WAT      O59539   9.556   4.094   8.348
19766WAT     H159540   9.624   4.023   8.366
19766WAT     H259541   9.521   4.130   8.434
19767WAT      O59542   2.514   8.929   4.057
19767WAT     H159543   2.513   8.837   4.016
19767WAT     H259544   2.538   8.996   3.987
19768WAT      O59545   1.796   8.136   4.368
19768WAT     H159546   1.792   8.217   4.309
19768WAT     H259547   1.885   8.132   4.413
19769WAT      O59548   3.429   0.018   1.919
19769WAT     H159549   3.409  -0.054   1.853
19769WAT     H259550   3.410   0.107   1.877
19770WAT      O59551   7.466   5.218   9.815
19770WAT     H159552   7.514   5.131   9.800
19770WAT     H259553   7.488   5.254   9.905
19771WAT      O59554   7.193   4.589   0.626
19771WAT     H159555   7.175   4.634   0.713
19771WAT     H259556   7.289   4.564   0.620
19772WAT      O59557   3.748   0.724   7.255
19772WAT     H159558   3.686   0.714   7.177
19772WAT     H259559   3.696   0.753   7.335
19773WAT      O59560   3.143   4.558   1.748
19773WAT     H159561   3.193   4.490   1.801
19773WAT     H259562   3.137   4.527   1.652
19774WAT      O59563   8.535   2.133   0.323
19774WAT     H159564   8.460   2.099   0.267
19774WAT     H259565   8.520   2.106   0.418
19775WAT      O59566   3.000   4.220   4.777
19775WAT     H159567   2.977   4.269   4.692
19775WAT     H259568   3.062   4.144   4.756
19776WAT      O59569   5.386   7.820   2.720
19776WAT     H159570   5.417   7.907   2.758
19776WAT     H259571   5.353   7.834   2.626
19777WAT      O59572   6.673   7.078   8.786
19777WAT     H159573   6.602   7.063   8.855
19777WAT     H259574   6.702   6.990   8.748
19778WAT      O59575   6.069   8.976   8.717
19778WAT     H159576   5.989   8.990   8.774
19778WAT     H259577   6.054   9.019   8.628
19779WAT      O59578   8.542   5.476   9.834
19779WAT     H159579   8.531   5.450   9.930
19779WAT     H259580   8.624   5.431   9.797
19780WAT      O59581   6.068   3.481   7.041
19780WAT     H159582   6.133   3.545   6.999
19780WAT     H259583   6.098   3.387   7.022
19781WAT      O59584   2.864   2.278   0.890
19781WAT     H159585   2.947   2.310   0.845
19781WAT     H259586   2.850   2.181   0.868
19782WAT      O59587   6.547   3.861   7.600
19782WAT     H159588   6.608   3.938   7.616
19782WAT     H259589   6.463   3.894   7.556
19783WAT      O59590   1.439   7.410   0.450
19783WAT     H159591   1.346   7.429   0.419
19783WAT     H259592   1.436   7.358   0.536
19784WAT      O59593   3.302   4.776   0.138
19784WAT     H159594   3.369   4.723   0.086
19784WAT     H259595   3.347   4.856   0.178
19785WAT      O59596   4.073   0.583   5.957
19785WAT     H159597   4.164   0.624   5.952
19785WAT     H259598   4.019   0.631   6.026
19786WAT      O59599   0.649   4.826   8.048
19786WAT     H159600   0.582   4.790   7.983
19786WAT     H259601   0.723   4.760   8.059
19787WAT      O59602   3.384   8.708   5.536
19787WAT     H159603   3.317   8.778   5.562
19787WAT     H259604   3.355   8.619   5.572
19788WAT      O59605   2.728   0.815   5.612
19788WAT     H159606   2.768   0.730   5.646
19788WAT     H259607   2.800   0.871   5.570
19789WAT      O59608   6.191   2.630   5.999
19789WAT     H159609   6.257   2.559   6.022
19789WAT     H259610   6.125   2.593   5.933
19790WAT      O59611   3.855   6.333   3.643
19790WAT     H159612   3.881   6.348   3.547
19790WAT     H259613   3.789   6.402   3.671
19791WAT      O59614   7.398   8.889   5.240
19791WAT     H159615   7.413   8.842   5.154
19791WAT     H259616   7.419   8.828   5.316
19792WAT      O59617   5.049   2.445   2.394
19792WAT     H159618   5.075   2.542   2.398
19792WAT     H259619   4.968   2.430   2.450
19793WAT      O59620   0.764   7.590   3.789
19793WAT     H159621   0.667   7.607   3.776
19793WAT     H259622   0.805   7.666   3.839
19794WAT      O59623   1.614   7.134   2.766
19794WAT     H159624   1.576   7.095   2.682
19794WAT     H259625   1.567   7.219   2.787
19795WAT      O59626   2.073   5.532   3.634
19795WAT     H159627   2.029   5.447   3.663
19795WAT     H259628   2.012   5.582   3.573
19796WAT      O59629   3.831   9.756   8.402
19796WAT     H159630   3.736   9.771   8.430
19796WAT     H259631   3.861   9.666   8.434
19797WAT      O59632   1.723   2.058   5.647
19797WAT     H159633   1.771   2.020   5.567
19797WAT     H259634   1.789   2.071   5.721
19798WAT      O59635   6.421   6.652   2.254
19798WAT     H159636   6.427   6.561   2.294
19798WAT     H259637   6.484   6.714   2.302
19799WAT      O59638   3.635   1.664   0.212
19799WAT     H159639   3.610   1.637   0.305
19799WAT     H259640   3.579   1.742   0.184
19800WAT      O59641   6.415   8.851   2.039
19800WAT     H159642   6.323   8.835   2.076
19800WAT     H259643   6.478   8.872   2.113
19801WAT      O59644   4.957   4.553   1.239
19801WAT     H159645   5.049   4.592   1.231
19801WAT     H259646   4.954   4.465   1.191
19802WAT      O59647   9.794   6.325   1.985
19802WAT     H159648   9.862   6.357   2.050
19802WAT     H259649   9.757   6.402   1.934
19803WAT      O59650   9.750   0.144   9.543
19803WAT     H159651   9.789   0.141   9.635
19803WAT     H259652   9.800   0.079   9.485
19804WAT      O59653   1.806   3.653   6.469
19804WAT     H159654   1.739   3.712   6.515
19804WAT     H259655   1.842   3.586   6.534
19805WAT      O59656   2.882   6.094   4.908
19805WAT     H159657   2.886   6.048   4.996
19805WAT     H259658   2.841   6.033   4.840
19806WAT      O59659   2.244   2.400   8.289
19806WAT     H159660   2.198   2.361   8.368
19806WAT     H259661   2.183   2.396   8.210
19807WAT      O59662   8.202   9.553   9.175
19807WAT     H159663   8.166   9.586   9.088
19807WAT     H259664   8.265   9.622   9.213
19808WAT      O59665   8.372   9.378   8.455
19808WAT     H159666   8.306   9.308   8.482
19808WAT     H259667   8.432   9.398   8.533
19809WAT      O59668   5.445   4.008   5.295
19809WAT     H159669   5.495   4.034   5.377
19809WAT     H259670   5.446   4.084   5.230
19810WAT      O59671   9.314   5.427   1.908
19810WAT     H159672   9.403   5.442   1.952
19810WAT     H259673   9.305   5.487   1.829
19811WAT      O59674   9.823   1.179   9.885
19811WAT     H159675   9.899   1.120   9.859
19811WAT     H259676   9.856   1.248   9.949
19812WAT      O59677   4.306   2.313   5.553
19812WAT     H159678   4.260   2.310   5.464
19812WAT     H259679   4.380   2.381   5.549
19813WAT      O59680   7.332   3.424   2.638
19813WAT     H159681   7.353   3.477   2.556
19813WAT     H259682   7.232   3.421   2.650
19814WAT      O59683   4.330   1.465   9.330
19814WAT     H159684   4.297   1.483   9.237
19814WAT     H259685   4.415   1.413   9.326
19815WAT      O59686   7.291   4.344   2.911
19815WAT     H159687   7.316   4.375   2.819
19815WAT     H259688   7.341   4.400   2.978
19816WAT      O59689   2.422   5.905   6.193
19816WAT     H159690   2.327   5.881   6.172
19816WAT     H259691   2.423   5.987   6.250
19817WAT      O59692   0.524   1.458   3.051
19817WAT     H159693   0.443   1.514   3.032
19817WAT     H259694   0.588   1.511   3.108
19818WAT      O59695   5.612   2.872   1.753
19818WAT     H159696   5.623   2.807   1.829
19818WAT     H259697   5.690   2.933   1.749
19819WAT      O59698   5.964   5.721   9.615
19819WAT     H159699   5.977   5.778   9.695
19819WAT     H259700   5.953   5.626   9.643
19820WAT      O59701   4.095   3.326   7.360
19820WAT     H159702   4.043   3.384   7.297
19820WAT     H259703   4.192   3.348   7.353
19821WAT      O59704   9.489   9.605   4.411
19821WAT     H159705   9.476   9.701   4.438
19821WAT     H259706   9.575   9.572   4.448
19822WAT      O59707   9.290   4.475   5.382
19822WAT     H159708   9.230   4.423   5.322
19822WAT     H259709   9.236   4.531   5.444
19823WAT      O59710   6.434   2.623   7.341
19823WAT     H159711   6.491   2.669   7.409
19823WAT     H259712   6.366   2.688   7.305
19824WAT      O59713   2.814   4.995   7.932
19824WAT     H159714   2.905   5.024   7.903
19824WAT     H259715   2.758   4.976   7.851
19825WAT      O59716   3.502   7.604   0.338
19825WAT     H159717   3.539   7.646   0.421
19825WAT     H259718   3.530   7.508   0.333
19826WAT      O59719   5.941   9.393   3.490
19826WAT     H159720   5.932   9.489   3.464
19826WAT     H259721   5.850   9.351   3.491
19827WAT      O59722   6.960   5.098   1.772
19827WAT     H159723   7.026   5.168   1.745
19827WAT     H259724   7.005   5.008   1.772
19828WAT      O59725   1.085   5.288   2.406
19828WAT     H159726   1.144   5.211   2.380
19828WAT     H259727   1.094   5.361   2.339
19829WAT      O59728   1.455   6.837   0.595
19829WAT     H159729   1.456   6.858   0.497
19829WAT     H259730   1.491   6.916   0.646
19830WAT      O59731   0.919   2.165   4.295
19830WAT     H159732   0.943   2.074   4.263
19830WAT     H259733   0.820   2.170   4.307
19831WAT      O59734   8.095   8.540   4.478
19831WAT     H159735   8.063   8.573   4.389
19831WAT     H259736   8.111   8.618   4.538
19832WAT      O59737   0.175   4.675   9.679
19832WAT     H159738   0.101   4.741   9.688
19832WAT     H259739   0.236   4.681   9.758
19833WAT      O59740   1.090   3.064   0.729
19833WAT     H159741   0.994   3.090   0.717
19833WAT     H259742   1.097   2.964   0.738
19834WAT      O59743   9.875   8.167   7.633
19834WAT     H159744   9.867   8.232   7.710
19834WAT     H259745   9.969   8.131   7.630
19835WAT      O59746   7.753   6.422   8.266
19835WAT     H159747   7.777   6.384   8.177
19835WAT     H259748   7.695   6.503   8.252
19836WAT      O59749   5.651   4.324   2.153
19836WAT     H159750   5.648   4.224   2.141
19836WAT     H259751   5.558   4.359   2.164
19837WAT      O59752   5.669   6.803   8.953
19837WAT     H159753   5.753   6.774   8.907
19837WAT     H259754   5.590   6.777   8.896
19838WAT      O59755   7.622   9.700   6.970
19838WAT     H159756   7.686   9.754   6.915
19838WAT     H259757   7.672   9.655   7.044
19839WAT      O59758   2.575   0.062   1.643
19839WAT     H159759   2.494   0.009   1.668
19839WAT     H259760   2.654   0.001   1.637
19840WAT      O59761   7.963   3.276   8.180
19840WAT     H159762   7.911   3.353   8.216
19840WAT     H259763   7.907   3.193   8.186
19841WAT      O59764   5.390   5.021   0.401
19841WAT     H159765   5.369   5.021   0.303
19841WAT     H259766   5.314   5.063   0.451
19842WAT      O59767   6.706   8.577   5.576
19842WAT     H159768   6.632   8.581   5.508
19842WAT     H259769   6.703   8.660   5.633
19843WAT      O59770   0.260   8.729   4.998
19843WAT     H159771   0.194   8.718   4.924
19843WAT     H259772   0.227   8.796   5.063
19844WAT      O59773   4.514   5.017   2.451
19844WAT     H159774   4.577   5.003   2.375
19844WAT     H259775   4.548   4.969   2.532
19845WAT      O59776   4.877   0.676   0.804
19845WAT     H159777   4.942   0.750   0.783
19845WAT     H259778   4.791   0.715   0.836
19846WAT      O59779   8.710   5.983   3.985
19846WAT     H159780   8.703   5.889   4.016
19846WAT     H259781   8.660   6.043   4.048
19847WAT      O59782   1.299   6.406   7.783
19847WAT     H159783   1.348   6.380   7.866
19847WAT     H259784   1.282   6.325   7.727
19848WAT      O59785   6.495   5.088   0.982
19848WAT     H159786   6.446   5.024   1.041
19848WAT     H259787   6.592   5.090   1.010
19849WAT      O59788   3.795   4.809   7.219
19849WAT     H159789   3.805   4.874   7.144
19849WAT     H259790   3.866   4.826   7.287
19850WAT      O59791   4.784   1.986   7.190
19850WAT     H159792   4.698   1.963   7.236
19850WAT     H259793   4.850   1.912   7.204
19851WAT      O59794   6.847   3.569   0.287
19851WAT     H159795   6.809   3.574   0.195
19851WAT     H259796   6.942   3.538   0.282
19852WAT      O59797   8.999   0.671   6.074
19852WAT     H159798   9.003   0.671   6.173
19852WAT     H259799   9.087   0.701   6.037
19853WAT      O59800   7.770   3.548   1.519
19853WAT     H159801   7.838   3.541   1.447
19853WAT     H259802   7.679   3.555   1.478
19854WAT      O59803   2.340   0.984   6.988
19854WAT     H159804   2.418   1.004   6.928
19854WAT     H259805   2.290   0.905   6.953
19855WAT      O59806   0.628   0.905   9.732
19855WAT     H159807   0.713   0.868   9.770
19855WAT     H259808   0.581   0.958   9.802
19856WAT      O59809   7.059   3.223   1.430
19856WAT     H159810   7.018   3.306   1.468
19856WAT     H259811   7.002   3.189   1.355
19857WAT      O59812   6.869   9.335   0.006
19857WAT     H159813   6.880   9.244  -0.032
19857WAT     H259814   6.842   9.329   0.102
19858WAT      O59815   8.755   1.524   1.061
19858WAT     H159816   8.682   1.564   1.116
19858WAT     H259817   8.740   1.426   1.052
19859WAT      O59818   2.722   8.588   3.718
19859WAT     H159819   2.787   8.663   3.705
19859WAT     H259820   2.771   8.501   3.714
19860WAT      O59821   0.347   0.527   5.588
19860WAT     H159822   0.345   0.427   5.597
19860WAT     H259823   0.431   0.554   5.541
19861WAT      O59824   2.680   2.186   6.209
19861WAT     H159825   2.654   2.280   6.188
19861WAT     H259826   2.779   2.177   6.203
19862WAT      O59827   7.502   3.858   5.291
19862WAT     H159828   7.538   3.949   5.274
19862WAT     H259829   7.517   3.800   5.211
19863WAT      O59830   8.968   9.586   0.052
19863WAT     H159831   8.969   9.486   0.040
19863WAT     H259832   8.883   9.623   0.014
19864WAT      O59833   4.019   5.115   7.850
19864WAT     H159834   3.957   5.173   7.796
19864WAT     H259835   4.106   5.105   7.802
19865WAT      O59836   2.049   3.687   3.156
19865WAT     H159837   2.073   3.591   3.146
19865WAT     H259838   2.056   3.733   3.067
19866WAT      O59839   2.439   2.961   6.831
19866WAT     H159840   2.525   2.919   6.803
19866WAT     H259841   2.373   2.957   6.756
19867WAT      O59842   5.026   5.965   1.971
19867WAT     H159843   5.098   5.976   2.040
19867WAT     H259844   5.028   6.044   1.909
19868WAT      O59845   1.838   3.208   1.784
19868WAT     H159846   1.833   3.152   1.701
19868WAT     H259847   1.922   3.187   1.833
19869WAT      O59848   4.875   5.228   0.691
19869WAT     H159849   4.777   5.216   0.703
19869WAT     H259850   4.924   5.191   0.770
19870WAT      O59851   1.059   1.886   0.116
19870WAT     H159852   1.136   1.866   0.055
19870WAT     H259853   1.094   1.927   0.200
19871WAT      O59854   1.003   7.258   9.216
19871WAT     H159855   1.083   7.204   9.189
19871WAT     H259856   0.945   7.274   9.136
19872WAT      O59857   5.506   1.561   0.440
19872WAT     H159858   5.472   1.473   0.405
19872WAT     H259859   5.501   1.561   0.540
19873WAT      O59860   8.510   0.684   2.553
19873WAT     H159861   8.545   0.591   2.538
19873WAT     H259862   8.581   0.750   2.529
19874WAT      O59863   8.462   0.692   3.850
19874WAT     H159864   8.505   0.604   3.832
19874WAT     H259865   8.394   0.712   3.779
19875WAT      O59866   1.086   5.387   5.179
19875WAT     H159867   1.161   5.326   5.204
19875WAT     H259868   1.033   5.346   5.105
19876WAT      O59869   5.178   0.149   9.224
19876WAT     H159870   5.169   0.111   9.316
19876WAT     H259871   5.265   0.196   9.215
19877WAT      O59872   2.464   0.822   0.557
19877WAT     H159873   2.525   0.868   0.493
19877WAT     H259874   2.425   0.890   0.620
19878WAT      O59875   7.540   1.455   9.459
19878WAT     H159876   7.532   1.419   9.366
19878WAT     H259877   7.577   1.384   9.519
19879WAT      O59878   4.257   7.187   8.595
19879WAT     H159879   4.247   7.120   8.668
19879WAT     H259880   4.211   7.272   8.621
19880WAT      O59881   3.011   0.828   4.002
19880WAT     H159882   2.915   0.823   3.975
19880WAT     H259883   3.061   0.889   3.940
19881WAT      O59884   4.735   6.657   6.202
19881WAT     H159885   4.736   6.665   6.103
19881WAT     H259886   4.678   6.580   6.229
19882WAT      O59887   9.724   9.659   9.625
19882WAT     H159888   9.752   9.716   9.548
19882WAT     H259889   9.723   9.563   9.598
19883WAT      O59890   3.019   3.503   0.802
19883WAT     H159891   2.979   3.495   0.710
19883WAT     H259892   2.970   3.442   0.864
19884WAT      O59893   4.911   9.588   7.209
19884WAT     H159894   4.827   9.566   7.160
19884WAT     H259895   4.896   9.576   7.308
19885WAT      O59896   6.559   2.850   5.502
19885WAT     H159897   6.627   2.921   5.522
19885WAT     H259898   6.602   2.760   5.507
19886WAT      O59899   0.200   1.804   6.287
19886WAT     H159900   0.253   1.778   6.367
19886WAT     H259901   0.191   1.904   6.283
19887WAT      O59902   1.805   7.001   4.203
19887WAT     H159903   1.819   7.099   4.190
19887WAT     H259904   1.782   6.983   4.299
19888WAT      O59905   3.710   4.629   3.343
19888WAT     H159906   3.744   4.583   3.261
19888WAT     H259907   3.691   4.562   3.414
19889WAT      O59908   9.419   5.001   5.459
19889WAT     H159909   9.455   5.065   5.527
19889WAT     H259910   9.362   4.933   5.505
19890WAT      O59911   7.579   4.091   1.994
19890WAT     H159912   7.668   4.044   1.998
19890WAT     H259913   7.578   4.154   1.917
19891WAT      O59914   1.350   0.901   0.456
19891WAT     H159915   1.400   0.827   0.502
19891WAT     H259916   1.280   0.861   0.396
19892WAT      O59917   8.048   2.591   9.243
19892WAT     H159918   8.079   2.514   9.187
19892WAT     H259919   7.949   2.597   9.240
19893WAT      O59920   3.744   1.684   3.214
19893WAT     H159921   3.788   1.742   3.147
19893WAT     H259922   3.655   1.654   3.180
19894WAT      O59923   7.287   1.338   0.684
19894WAT     H159924   7.308   1.241   0.685
19894WAT     H259925   7.367   1.389   0.652
19895WAT      O59926   3.407   5.630   1.866
19895WAT     H159927   3.429   5.593   1.775
19895WAT     H259928   3.442   5.567   1.936
19896WAT      O59929   3.742   4.683   6.482
19896WAT     H159930   3.755   4.618   6.407
19896WAT     H259931   3.823   4.740   6.491
19897WAT      O59932   1.644   8.332   8.248
19897WAT     H159933   1.669   8.264   8.317
19897WAT     H259934   1.604   8.286   8.169
19898WAT      O59935   9.692   1.382   6.359
19898WAT     H159936   9.634   1.347   6.433
19898WAT     H259937   9.669   1.335   6.274
19899WAT      O59938   5.989   8.103   6.967
19899WAT     H159939   5.938   8.060   6.892
19899WAT     H259940   6.085   8.109   6.943
19900WAT      O59941   7.577   8.398   2.111
19900WAT     H159942   7.573   8.490   2.150
19900WAT     H259943   7.652   8.347   2.154
19901WAT      O59944   8.111   0.696   6.045
19901WAT     H159945   8.180   0.625   6.057
19901WAT     H259946   8.107   0.752   6.128
19902WAT      O59947   0.470   0.301   3.836
19902WAT     H159948   0.529   0.249   3.773
19902WAT     H259949   0.515   0.311   3.924
19903WAT      O59950   3.874   3.841   8.280
19903WAT     H159951   3.926   3.825   8.196
19903WAT     H259952   3.937   3.854   8.356
19904WAT      O59953   0.972   5.004   4.247
19904WAT     H159954   1.018   4.988   4.159
19904WAT     H259955   0.874   5.010   4.232
19905WAT      O59956   7.838   4.539   9.827
19905WAT     H159957   7.743   4.528   9.857
19905WAT     H259958   7.845   4.517   9.730
19906WAT      O59959   5.957   4.127   3.152
19906WAT     H159960   5.860   4.103   3.156
19906WAT     H259961   5.973   4.186   3.073
19907WAT      O59962   3.033   2.043   7.590
19907WAT     H159963   3.071   2.102   7.519
19907WAT     H259964   3.021   1.951   7.554
19908WAT      O59965   9.033   8.746   0.311
19908WAT     H159966   9.080   8.754   0.224
19908WAT     H259967   9.082   8.798   0.381
19909WAT      O59968   9.461   6.987   8.627
19909WAT     H159969   9.396   7.046   8.676
19909WAT     H259970   9.527   7.044   8.578
19910WAT      O59971   3.743   7.605   2.442
19910WAT     H159972   3.803   7.585   2.365
19910WAT     H259973   3.705   7.697   2.433
19911WAT      O59974   8.063   7.131   5.938
19911WAT     H159975   8.161   7.148   5.929
19911WAT     H259976   8.012   7.197   5.882
19912WAT      O59977   4.247   3.782   2.531
19912WAT     H159978   4.323   3.779   2.597
19912WAT     H259979   4.277   3.741   2.445
19913WAT      O59980   8.056   0.684   6.657
19913WAT     H159981   8.127   0.666   6.589
19913WAT     H259982   7.982   0.617   6.647
19914WAT      O59983   6.239   4.500   5.631
19914WAT     H159984   6.194   4.580   5.671
19914WAT     H259985   6.216   4.494   5.533
19915WAT      O59986   3.703   4.275   2.759
19915WAT     H159987   3.700   4.238   2.852
19915WAT     H259988   3.654   4.214   2.697
19916WAT      O59989   6.590   5.899   7.401
19916WAT     H159990   6.661   5.955   7.359
19916WAT     H259991   6.621   5.804   7.405
19917WAT      O59992   8.992   8.897   8.322
19917WAT     H159993   8.957   8.843   8.245
19917WAT     H259994   9.085   8.928   8.302
19918WAT      O59995   7.272   9.336   1.596
19918WAT     H159996   7.227   9.286   1.522
19918WAT     H259997   7.347   9.280   1.632
19919WAT      O59998   2.358   3.979   0.739
19919WAT     H159999   2.300   3.984   0.821
19919WAT     H260000   2.399   4.069   0.722
19920WAT      O60001   3.990   7.209   4.079
19920WAT     H160002   4.002   7.109   4.082
19920WAT     H260003   4.046   7.246   4.005
19921WAT      O60004   3.019   0.758   7.689
19921WAT     H160005   2.970   0.840   7.719
19921WAT     H260006   3.000   0.683   7.753
19922WAT      O60007   2.618   2.142   7.853
19922WAT     H160008   2.577   2.211   7.914
19922WAT     H260009   2.717   2.155   7.851
19923WAT      O60010   8.708   2.018   3.082
19923WAT     H160011   8.642   1.978   3.018
19923WAT     H260012   8.667   2.096   3.129
19924WAT      O60013   3.623   0.483   6.228
19924WAT     H160014   3.620   0.574   6.270
19924WAT     H260015   3.544   0.430   6.259
19925WAT      O60016   6.614   6.158   6.649
19925WAT     H160017   6.660   6.139   6.736
19925WAT     H260018   6.516   6.173   6.665
19926WAT      O60019   4.769   9.501   0.135
19926WAT     H160020   4.827   9.478   0.057
19926WAT     H260021   4.690   9.441   0.137
19927WAT      O60022   2.683   9.320   1.485
19927WAT     H160023   2.672   9.419   1.492
19927WAT     H260024   2.673   9.292   1.389
19928WAT      O60025   4.612   5.191   0.763
19928WAT     H160026   4.586   5.273   0.814
19928WAT     H260027   4.567   5.111   0.804
19929WAT      O60028   8.287   9.069   6.065
19929WAT     H160029   8.347   9.081   5.985
19929WAT     H260030   8.238   9.154   6.083
19930WAT      O60031   1.446   7.735   6.231
19930WAT     H160032   1.421   7.785   6.314
19930WAT     H260033   1.364   7.691   6.193
19931WAT      O60034   3.695   3.021   5.076
19931WAT     H160035   3.765   3.059   5.016
19931WAT     H260036   3.626   3.091   5.095
19932WAT      O60037   0.734   1.122   2.470
19932WAT     H160038   0.735   1.149   2.373
19932WAT     H260039   0.779   1.193   2.525
19933WAT      O60040   5.802   6.912   8.362
19933WAT     H160041   5.845   6.995   8.326
19933WAT     H260042   5.742   6.873   8.292
19934WAT      O60043   3.132   2.144   0.622
19934WAT     H160044   3.148   2.054   0.664
19934WAT     H260045   3.219   2.194   0.618
19935WAT      O60046   6.388   3.663   8.983
19935WAT     H160047   6.410   3.752   8.944
19935WAT     H260048   6.345   3.606   8.913
19936WAT      O60049   9.817   7.833   9.612
19936WAT     H160050   9.909   7.864   9.635
19936WAT     H260051   9.779   7.780   9.687
19937WAT      O60052   7.337   3.466   0.771
19937WAT     H160053   7.405   3.428   0.834
19937WAT     H260054   7.250   3.476   0.819
19938WAT      O60055   8.454   5.481   3.006
19938WAT     H160056   8.435   5.387   3.035
19938WAT     H260057   8.522   5.522   3.068
19939WAT      O60058   4.666   5.759   6.648
19939WAT     H160059   4.757   5.731   6.678
19939WAT     H260060   4.651   5.854   6.672
19940WAT      O60061  -0.000   5.160   1.464
19940WAT     H160062   0.085   5.202   1.432
19940WAT     H260063  -0.029   5.203   1.549
19941WAT      O60064   6.439   3.863   8.238
19941WAT     H160065   6.512   3.900   8.182
19941WAT     H260066   6.371   3.820   8.179
19942WAT      O60067   4.778   0.450   3.601
19942WAT     H160068   4.808   0.447   3.506
19942WAT     H260069   4.856   0.429   3.660
19943WAT      O60070   7.802   4.163   9.278
19943WAT     H160071   7.734   4.209   9.220
19943WAT     H260072   7.880   4.134   9.223
19944WAT      O60073   8.297   5.805   7.764
19944WAT     H160074   8.371   5.866   7.794
19944WAT     H260075   8.213   5.858   7.753
19945WAT      O60076   8.199   5.686   7.008
19945WAT     H160077   8.242   5.761   7.058
19945WAT     H260078   8.245   5.600   7.032
19946WAT      O60079   3.221   4.893   8.611
19946WAT     H160080   3.276   4.819   8.650
19946WAT     H260081   3.157   4.855   8.544
19947WAT      O60082   6.014   8.140   5.201
19947WAT     H160083   5.940   8.190   5.246
19947WAT     H260084   6.052   8.073   5.264
19948WAT      O60085   4.413   3.999   0.082
19948WAT     H160086   4.468   4.068   0.129
19948WAT     H260087   4.468   3.956   0.011
19949WAT      O60088   0.271   7.176   6.101
19949WAT     H160089   0.330   7.203   6.025
19949WAT     H260090   0.328   7.161   6.182
19950WAT      O60091   7.257   4.451   1.857
19950WAT     H160092   7.273   4.438   1.759
19950WAT     H260093   7.340   4.487   1.900
19951WAT      O60094   1.305   5.393   8.684
19951WAT     H160095   1.305   5.357   8.777
19951WAT     H260096   1.270   5.323   8.621
19952WAT      O60097   3.275   2.304   4.391
19952WAT     H160098   3.229   2.217   4.411
19952WAT     H260099   3.367   2.285   4.355
19953WAT      O60100   0.049   2.770   0.344
19953WAT     H160101   0.072   2.679   0.308
19953WAT     H260102   0.088   2.780   0.435
19954WAT      O60103   6.685   9.059   3.955
19954WAT     H160104   6.602   9.115   3.948
19954WAT     H260105   6.705   9.042   4.051
19955WAT      O60106   6.265   6.965   2.840
19955WAT     H160107   6.328   7.043   2.833
19955WAT     H260108   6.171   6.997   2.833
19956WAT      O60109   0.073   7.549   5.677
19956WAT     H160110   0.119   7.517   5.594
19956WAT     H260111   0.052   7.471   5.736
19957WAT      O60112   9.262   9.437   4.381
19957WAT     H160113   9.338   9.500   4.361
19957WAT     H260114   9.252   9.373   4.305
19958WAT      O60115   0.963   7.575   7.288
19958WAT     H160116   0.965   7.674   7.272
19958WAT     H260117   0.883   7.536   7.242
19959WAT      O60118   8.080   3.511   3.383
19959WAT     H160119   8.167   3.463   3.383
19959WAT     H260120   8.094   3.605   3.413
19960WAT      O60121   9.750   4.998   9.436
19960WAT     H160122   9.809   5.052   9.496
19960WAT     H260123   9.713   4.920   9.486
19961WAT      O60124   8.260   1.595   2.716
19961WAT     H160125   8.209   1.622   2.797
19961WAT     H260126   8.316   1.515   2.736
19962WAT      O60127   1.088   3.698   6.196
19962WAT     H160128   1.173   3.652   6.220
19962WAT     H260129   1.057   3.752   6.274
19963WAT      O60130   3.252   3.329   4.008
19963WAT     H160131   3.152   3.335   4.005
19963WAT     H260132   3.284   3.268   3.936
19964WAT      O60133   2.143   6.324   2.169
19964WAT     H160134   2.083   6.392   2.127
19964WAT     H260135   2.090   6.270   2.235
19965WAT      O60136   8.540   7.919   5.388
19965WAT     H160137   8.470   7.984   5.419
19965WAT     H260138   8.604   7.966   5.328
19966WAT      O60139   1.491   5.442   9.780
19966WAT     H160140   1.436   5.418   9.860
19966WAT     H260141   1.478   5.374   9.708
19967WAT      O60142   5.116   8.388   4.911
19967WAT     H160143   5.148   8.400   5.005
19967WAT     H260144   5.149   8.463   4.854
19968WAT      O60145   3.030   3.891   7.489
19968WAT     H160146   2.939   3.881   7.449
19968WAT     H260147   3.047   3.818   7.555
19969WAT      O60148   7.027   6.613   5.601
19969WAT     H160149   7.010   6.517   5.623
19969WAT     H260150   7.125   6.628   5.590
19970WAT      O60151   0.211   1.536   5.224
19970WAT     H160152   0.290   1.596   5.238
19970WAT     H260153   0.232   1.470   5.151
19971WAT      O60154   4.762   4.430   0.988
19971WAT     H160155   4.833   4.380   1.037
19971WAT     H260156   4.672   4.394   1.013
19972WAT      O60157   9.541   2.215   5.998
19972WAT     H160158   9.500   2.158   6.069
19972WAT     H260159   9.496   2.196   5.910
19973WAT      O60160   0.269   4.337   4.650
19973WAT     H160161   0.307   4.328   4.742
19973WAT     H260162   0.325   4.283   4.586
19974WAT      O60163   1.186   1.865   2.505
19974WAT     H160164   1.133   1.784   2.527
19974WAT     H260165   1.155   1.942   2.560
19975WAT      O60166   9.511   8.699   7.979
19975WAT     H160167   9.439   8.722   7.913
19975WAT     H260168   9.565   8.623   7.944
19976WAT      O60169   9.529   3.289   2.906
19976WAT     H160170   9.605   3.354   2.901
19976WAT     H260171   9.444   3.337   2.884
19977WAT      O60172   4.830   4.401   7.789
19977WAT     H160173   4.911   4.359   7.747
19977WAT     H260174   4.748   4.370   7.741
19978WAT      O60175   5.583   4.718   3.915
19978WAT     H160176   5.632   4.797   3.950
19978WAT     H260177   5.554   4.659   3.990
19979WAT      O60178   9.068   7.889   2.914
19979WAT     H160179   9.135   7.839   2.968
19979WAT     H260180   8.977   7.874   2.951
19980WAT      O60181   9.835   5.232   4.180
19980WAT     H160182   9.768   5.231   4.254
19980WAT     H260183   9.845   5.326   4.145
19981WAT      O60184   2.849   2.259   2.444
19981WAT     H160185   2.826   2.274   2.348
19981WAT     H260186   2.808   2.174   2.476
19982WAT      O60187   9.822   9.597   0.383
19982WAT     H160188   9.767   9.545   0.448
19982WAT     H260189   9.799   9.567   0.290
19983WAT      O60190   2.638   3.020   3.999
19983WAT     H160191   2.644   2.949   4.069
19983WAT     H260192   2.684   2.988   3.916
19984WAT      O60193   8.833   3.219   9.653
19984WAT     H160194   8.895   3.267   9.591
19984WAT     H260195   8.741   3.217   9.612
19985WAT      O60196   4.974   9.305   1.071
19985WAT     H160197   4.904   9.358   1.023
19985WAT     H260198   4.967   9.322   1.169
19986WAT      O60199   4.517   6.778   9.668
19986WAT     H160200   4.515   6.685   9.704
19986WAT     H260201   4.530   6.775   9.568
19987WAT      O60202   0.711   1.010   3.521
19987WAT     H160203   0.648   0.963   3.460
19987WAT     H260204   0.783   0.946   3.550
19988WAT      O60205   2.257   4.271   8.896
19988WAT     H160206   2.197   4.251   8.819
19988WAT     H260207   2.284   4.186   8.940
19989WAT      O60208   0.800   1.427   3.973
19989WAT     H160209   0.769   1.517   4.005
19989WAT     H260210   0.755   1.405   3.887
19990WAT      O60211   8.089   3.597   1.442
19990WAT     H160212   8.076   3.628   1.348
19990WAT     H260213   8.131   3.506   1.442
19991WAT      O60214   2.638   8.459   3.293
19991WAT     H160215   2.552   8.430   3.252
19991WAT     H260216   2.652   8.411   3.379
19992WAT      O60217   1.222   1.787   4.862
19992WAT     H160218   1.248   1.832   4.777
19992WAT     H260219   1.274   1.702   4.873
19993WAT      O60220   5.810   1.844   0.407
19993WAT     H160221   5.883   1.906   0.435
19993WAT     H260222   5.839   1.749   0.421
19994WAT      O60223   0.454   4.407   8.291
19994WAT     H160224   0.412   4.343   8.227
19994WAT     H260225   0.390   4.483   8.309
19995WAT      O60226   9.641   6.847   3.126
19995WAT     H160227   9.646   6.849   3.026
19995WAT     H260228   9.688   6.926   3.163
19996WAT      O60229   9.366   5.656   1.718
19996WAT     H160230   9.460   5.688   1.723
19996WAT     H260231   9.347   5.620   1.627
19997WAT      O60232   6.326   5.419   7.204
19997WAT     H160233   6.404   5.464   7.160
19997WAT     H260234   6.345   5.406   7.301
19998WAT      O60235   6.715   3.628   3.697
19998WAT     H160236   6.676   3.586   3.779
19998WAT     H260237   6.771   3.707   3.724
19999WAT      O60238   9.776   2.181   0.515
19999WAT     H160239   9.724   2.123   0.452
19999WAT     H260240   9.716   2.250   0.554
20000WAT      O60241   9.455   0.658   4.147
20000WAT     H160242   9.542   0.697   4.119
20000WAT     H260243   9.430   0.694   4.237
20001WAT      O60244   9.137   0.329   4.111
20001WAT     H160245   9.051   0.285   4.085
20001WAT     H260246   9.170   0.289   4.197
20002WAT      O60247   7.500   9.524   7.281
20002WAT     H160248   7.453   9.435   7.281
20002WAT     H260249   7.437   9.595   7.253
20003WAT      O60250   3.261   2.657   3.486
20003WAT     H160251   3.203   2.608   3.421
20003WAT     H260252   3.355   2.660   3.452
20004WAT      O60253   7.202   1.594   1.317
20004WAT     H160254   7.265   1.535   1.368
20004WAT     H260255   7.255   1.662   1.265
20005WAT      O60256   3.467   6.414   1.705
20005WAT     H160257   3.448   6.322   1.738
20005WAT     H260258   3.451   6.418   1.606
20006WAT      O60259   6.468   6.608   6.287
20006WAT     H160260   6.445   6.700   6.318
20006WAT     H260261   6.397   6.575   6.225
20007WAT      O60262   7.970   3.671   7.474
20007WAT     H160263   8.049   3.666   7.412
20007WAT     H260264   7.997   3.718   7.558
20008WAT      O60265   6.962   9.761   0.311
20008WAT     H160266   6.988   9.753   0.215
20008WAT     H260267   7.036   9.728   0.369
20009WAT      O60268   8.016   5.075   0.316
20009WAT     H160269   8.057   5.126   0.392
20009WAT     H260270   8.072   4.995   0.296
20010WAT      O60271   9.837   4.460   5.099
20010WAT     H160272   9.923   4.510   5.108
20010WAT     H260273   9.855   4.364   5.082
20011WAT      O60274   1.061   1.366   7.178
20011WAT     H160275   0.974   1.332   7.144
20011WAT     H260276   1.136   1.311   7.141
20012WAT      O60277   4.148   3.898   8.276
20012WAT     H160278   4.129   3.879   8.179
20012WAT     H260279   4.232   3.850   8.303
20013WAT      O60280   8.753   7.252   9.228
20013WAT     H160281   8.701   7.334   9.206
20013WAT     H260282   8.831   7.277   9.286
20014WAT      O60283   8.066   6.679   1.745
20014WAT     H160284   7.982   6.726   1.771
20014WAT     H260285   8.134   6.746   1.716
20015WAT      O60286   4.740   0.701   6.385
20015WAT     H160287   4.755   0.603   6.371
20015WAT     H260288   4.681   0.714   6.465
20016WAT      O60289   5.059   0.073   4.300
20016WAT     H160290   5.116  -0.005   4.275
20016WAT     H260291   4.966   0.042   4.320
20017WAT      O60292   0.309   8.733   7.772
20017WAT     H160293   0.316   8.794   7.851
20017WAT     H260294   0.217   8.739   7.733
20018WAT      O60295   1.684   5.599   4.824
20018WAT     H160296   1.712   5.519   4.876
20018WAT     H260297   1.589   5.622   4.846
20019WAT      O60298   5.565   7.854   7.901
20019WAT     H160299   5.635   7.869   7.972
20019WAT     H260300   5.498   7.928   7.905
20020WAT      O60301   2.569   1.198   1.427
20020WAT     H160302   2.661   1.232   1.408
20020WAT     H260303   2.527   1.251   1.500
20021WAT      O60304   7.606   4.890   5.257
20021WAT     H160305   7.657   4.969   5.223
20021WAT     H260306   7.563   4.843   5.180
20022WAT      O60307   0.946   1.955   2.205
20022WAT     H160308   0.864   1.970   2.261
20022WAT     H260309   1.003   1.886   2.249
20023WAT      O60310   9.547   6.940   7.991
20023WAT     H160311   9.576   6.967   8.082
20023WAT     H260312   9.580   6.848   7.970
20024WAT      O60313   7.683   2.971   3.653
20024WAT     H160314   7.705   2.877   3.628
20024WAT     H260315   7.607   3.003   3.597
20025WAT      O60316   9.678   5.466   3.840
20025WAT     H160317   9.704   5.556   3.874
20025WAT     H260318   9.616   5.422   3.906
20026WAT      O60319   2.102   1.876   4.109
20026WAT     H160320   2.054   1.793   4.079
20026WAT     H260321   2.034   1.946   4.131
20027WAT      O60322   0.771   4.966   3.153
20027WAT     H160323   0.805   4.928   3.066
20027WAT     H260324   0.810   4.914   3.229
20028WAT      O60325   6.880   5.443   2.459
20028WAT     H160326   6.903   5.452   2.362
20028WAT     H260327   6.781   5.454   2.471
20029WAT      O60328   8.327   9.457   0.537
20029WAT     H160329   8.307   9.369   0.494
20029WAT     H260330   8.296   9.532   0.478
20030WAT      O60331   9.416   8.584   7.120
20030WAT     H160332   9.450   8.667   7.075
20030WAT     H260333   9.455   8.504   7.075
20031WAT      O60334   7.856   3.462   5.781
20031WAT     H160335   7.847   3.457   5.682
20031WAT     H260336   7.893   3.551   5.807
20032WAT      O60337   0.709   6.802   3.221
20032WAT     H160338   0.715   6.716   3.273
20032WAT     H260339   0.613   6.830   3.214
20033WAT      O60340   5.893   6.712   8.832
20033WAT     H160341   5.912   6.660   8.916
20033WAT     H260342   5.934   6.666   8.754
20034WAT      O60343   2.152   6.784   5.086
20034WAT     H160344   2.101   6.698   5.081
20034WAT     H260345   2.249   6.764   5.103
20035WAT      O60346   0.211   0.097   9.447
20035WAT     H160347   0.206   0.189   9.408
20035WAT     H260348   0.294   0.089   9.503
20036WAT      O60349   8.095   3.848   7.682
20036WAT     H160350   8.163   3.834   7.754
20036WAT     H260351   8.097   3.944   7.653
20037WAT      O60352   2.448   9.757   5.203
20037WAT     H160353   2.518   9.819   5.166
20037WAT     H260354   2.422   9.691   5.132
20038WAT      O60355   7.179   7.808   1.154
20038WAT     H160356   7.134   7.821   1.243
20038WAT     H260357   7.242   7.883   1.137
20039WAT      O60358   8.751   7.080   3.904
20039WAT     H160359   8.741   7.096   4.002
20039WAT     H260360   8.781   6.986   3.888
20040WAT      O60361   3.709   9.369   7.681
20040WAT     H160362   3.688   9.406   7.591
20040WAT     H260363   3.808   9.366   7.694
20041WAT      O60364   3.603   5.093   4.002
20041WAT     H160365   3.595   5.163   3.931
20041WAT     H260366   3.689   5.105   4.052
20042WAT      O60367   6.720   6.928   5.660
20042WAT     H160368   6.745   6.850   5.601
20042WAT     H260369   6.803   6.977   5.686
20043WAT      O60370   6.893   9.296   7.096
20043WAT     H160371   6.971   9.349   7.061
20043WAT     H260372   6.845   9.253   7.019
20044WAT      O60373   0.290   8.537   0.352
20044WAT     H160374   0.356   8.463   0.345
20044WAT     H260375   0.203   8.509   0.310
20045WAT      O60376   0.106   3.413   9.120
20045WAT     H160377   0.010   3.387   9.110
20045WAT     H260378   0.146   3.363   9.197
20046WAT      O60379   3.073   1.381   3.812
20046WAT     H160380   2.996   1.372   3.875
20046WAT     H260381   3.149   1.427   3.858
20047WAT      O60382   7.722   3.051   2.004
20047WAT     H160383   7.690   2.978   1.944
20047WAT     H260384   7.751   3.129   1.950
20048WAT      O60385   8.729   5.203   4.423
20048WAT     H160386   8.642   5.159   4.444
20048WAT     H260387   8.724   5.300   4.447
20049WAT      O60388   6.384   9.335   8.205
20049WAT     H160389   6.304   9.331   8.146
20049WAT     H260390   6.425   9.243   8.212
20050WAT      O60391   0.283   6.507   4.675
20050WAT     H160392   0.221   6.585   4.679
20050WAT     H260393   0.236   6.429   4.634
20051WAT      O60394   8.797   8.052   8.055
20051WAT     H160395   8.763   7.987   8.123
20051WAT     H260396   8.897   8.047   8.051
20052WAT      O60397   2.214   4.887   6.585
20052WAT     H160398   2.196   4.863   6.490
20052WAT     H260399   2.148   4.956   6.615
20053WAT      O60400   8.655   1.480   4.467
20053WAT     H160401   8.666   1.401   4.527
20053WAT     H260402   8.628   1.560   4.521
20054WAT      O60403   2.862   1.198   5.699
20054WAT     H160404   2.857   1.259   5.620
20054WAT     H260405   2.916   1.241   5.772
20055WAT      O60406   6.608   9.403   6.726
20055WAT     H160407   6.550   9.397   6.808
20055WAT     H260408   6.594   9.322   6.670
20056WAT      O60409   7.906   6.415   1.225
20056WAT     H160410   7.935   6.485   1.290
20056WAT     H260411   7.945   6.434   1.135
20057WAT      O60412   7.620   2.848   2.343
20057WAT     H160413   7.711   2.811   2.364
20057WAT     H260414   7.629   2.944   2.316
20058WAT      O60415   0.868   9.555   8.825
20058WAT     H160416   0.938   9.581   8.757
20058WAT     H260417   0.818   9.637   8.854
20059WAT      O60418   5.529   2.508   1.022
20059WAT     H160419   5.482   2.597   1.028
20059WAT     H260420   5.622   2.522   0.989
20060WAT      O60421   2.306   5.041   8.748
20060WAT     H160422   2.298   4.993   8.835
20060WAT     H260423   2.278   4.981   8.673
20061WAT      O60424   9.461   0.568   7.544
20061WAT     H160425   9.451   0.584   7.446
20061WAT     H260426   9.370   0.566   7.586
20062WAT      O60427   6.027   4.250   8.562
20062WAT     H160428   6.043   4.191   8.641
20062WAT     H260429   6.109   4.252   8.504
20063WAT      O60430   5.996   0.905   2.958
20063WAT     H160431   6.001   0.838   3.032
20063WAT     H260432   6.068   0.886   2.892
20064WAT      O60433   9.672   3.906   0.344
20064WAT     H160434   9.733   3.833   0.376
20064WAT     H260435   9.603   3.867   0.283
20065WAT      O60436   1.398   8.048   9.014
20065WAT     H160437   1.440   7.986   8.947
20065WAT     H260438   1.322   8.003   9.059
20066WAT      O60439   7.884   0.721   5.873
20066WAT     H160440   7.957   0.702   5.939
20066WAT     H260441   7.873   0.820   5.863
20067WAT      O60442   8.638   7.719   4.645
20067WAT     H160443   8.580   7.735   4.725
20067WAT     H260444   8.628   7.796   4.581
20068WAT      O60445   2.527   8.061   3.335
20068WAT     H160446   2.590   7.986   3.355
20068WAT     H260447   2.433   8.034   3.357
20069WAT      O60448   4.229   2.795   9.508
20069WAT     H160449   4.267   2.842   9.429
20069WAT     H260450   4.220   2.697   9.488
20070WAT      O60451   7.178   1.864   0.451
20070WAT     H160452   7.176   1.823   0.542
20070WAT     H260453   7.170   1.792   0.382
20071WAT      O60454   3.772   5.930   1.476
20071WAT     H160455   3.719   5.982   1.408
20071WAT     H260456   3.713   5.908   1.553
20072WAT      O60457   8.684   0.617   0.281
20072WAT     H160458   8.592   0.604   0.244
20072WAT     H260459   8.746   0.643   0.207
20073WAT      O60460   8.137   9.299   6.079
20073WAT     H160461   8.157   9.335   5.988
20073WAT     H260462   8.051   9.249   6.077
20074WAT      O60463   0.610   3.831   5.149
20074WAT     H160464   0.657   3.897   5.090
20074WAT     H260465   0.631   3.738   5.118
20075WAT      O60466   7.799   6.457   1.824
20075WAT     H160467   7.888   6.421   1.797
20075WAT     H260468   7.765   6.519   1.754
20076WAT      O60469   6.813   7.941   2.399
20076WAT     H160470   6.762   7.938   2.485
20076WAT     H260471   6.909   7.919   2.416
20077WAT      O60472   7.911   3.003   7.124
20077WAT     H160473   7.921   2.915   7.170
20077WAT     H260474   7.848   3.061   7.176
20078WAT      O60475   2.168   1.814   7.928
20078WAT     H160476   2.209   1.849   8.013
20078WAT     H260477   2.215   1.730   7.902
20079WAT      O60478   5.889   6.326   4.470
20079WAT     H160479   5.860   6.250   4.528
20079WAT     H260480   5.813   6.389   4.457
20080WAT      O60481   7.269   7.217   1.177
20080WAT     H160482   7.259   7.125   1.138
20080WAT     H260483   7.196   7.233   1.243
20081WAT      O60484   7.246   1.982   7.026
20081WAT     H160485   7.156   2.023   7.010
20081WAT     H260486   7.313   2.028   6.968
20082WAT      O60487   6.783   4.919   0.865
20082WAT     H160488   6.729   4.886   0.787
20082WAT     H260489   6.826   5.006   0.841
20083WAT      O60490   4.672   3.080   3.657
20083WAT     H160491   4.760   3.049   3.620
20083WAT     H260492   4.646   3.022   3.734
20084WAT      O60493   1.586   4.760   5.419
20084WAT     H160494   1.650   4.730   5.348
20084WAT     H260495   1.635   4.765   5.506
20085WAT      O60496   3.717   7.037   0.053
20085WAT     H160497   3.686   6.956   0.004
20085WAT     H260498   3.647   7.108   0.047
20086WAT      O60499   7.881   3.221   3.294
20086WAT     H160500   7.826   3.241   3.212
20086WAT     H260501   7.831   3.250   3.375
20087WAT      O60502   5.720   6.279   3.096
20087WAT     H160503   5.777   6.352   3.059
20087WAT     H260504   5.771   6.227   3.164
20088WAT      O60505   7.702   3.917   0.267
20088WAT     H160506   7.717   3.824   0.234
20088WAT     H260507   7.745   3.982   0.205
20089WAT      O60508   1.626   8.584   7.068
20089WAT     H160509   1.715   8.562   7.030
20089WAT     H260510   1.624   8.561   7.165
20090WAT      O60511   4.179   6.923   9.326
20090WAT     H160512   4.145   7.002   9.378
20090WAT     H260513   4.171   6.841   9.382
20091WAT      O60514   3.352   5.484   4.980
20091WAT     H160515   3.292   5.556   5.012
20091WAT     H260516   3.401   5.443   5.057
20092WAT      O60517   5.190   4.152   5.175
20092WAT     H160518   5.285   4.166   5.146
20092WAT     H260519   5.167   4.221   5.244
20093WAT      O60520   8.668   5.386   6.223
20093WAT     H160521   8.662   5.296   6.267
20093WAT     H260522   8.578   5.430   6.225
20094WAT      O60523   3.657   3.886   1.824
20094WAT     H160524   3.679   3.970   1.872
20094WAT     H260525   3.712   3.810   1.860
20095WAT      O60526   7.724   7.418   5.440
20095WAT     H160527   7.746   7.482   5.366
20095WAT     H260528   7.780   7.335   5.430
20096WAT      O60529   2.666   4.004   3.505
20096WAT     H160530   2.625   4.041   3.421
20096WAT     H260531   2.632   4.056   3.584
20097WAT      O60532   1.782   0.545   5.277
20097WAT     H160533   1.859   0.536   5.341
20097WAT     H260534   1.728   0.461   5.278
20098WAT      O60535   6.387   3.246   8.966
20098WAT     H160536   6.446   3.327   8.971
20098WAT     H260537   6.378   3.207   9.058
20099WAT      O60538   3.960   9.072   0.037
20099WAT     H160539   4.003   8.996  -0.012
20099WAT     H260540   4.027   9.145   0.051
20100WAT      O60541   0.396   2.499   3.551
20100WAT     H160542   0.390   2.409   3.594
20100WAT     H260543   0.312   2.516   3.499
20101WAT      O60544   1.528   6.983   7.690
20101WAT     H160545   1.509   7.081   7.681
20101WAT     H260546   1.460   6.942   7.751
20102WAT      O60547   3.190   1.709   7.324
20102WAT     H160548   3.185   1.623   7.273
20102WAT     H260549   3.109   1.764   7.305
20103WAT      O60550   3.475   2.663   9.384
20103WAT     H160551   3.398   2.707   9.337
20103WAT     H260552   3.514   2.727   9.450
20104WAT      O60553   5.207   5.213   3.395
20104WAT     H160554   5.219   5.295   3.338
20104WAT     H260555   5.273   5.143   3.367
20105WAT      O60556   4.338   7.592   0.953
20105WAT     H160557   4.436   7.593   0.931
20105WAT     H260558   4.318   7.515   1.014
20106WAT      O60559   7.494   9.681   6.324
20106WAT     H160560   7.536   9.760   6.368
20106WAT     H260561   7.396   9.679   6.344
20107WAT      O60562   3.545   1.844   4.564
20107WAT     H160563   3.595   1.782   4.625
20107WAT     H260564   3.447   1.826   4.572
20108WAT      O60565   2.068   2.126   6.069
20108WAT     H160566   2.157   2.106   6.027
20108WAT     H260567   2.042   2.220   6.048
20109WAT      O60568   8.284   4.370   8.520
20109WAT     H160569   8.378   4.391   8.493
20109WAT     H260570   8.246   4.448   8.569
20110WAT      O60571   3.763   1.416   1.061
20110WAT     H160572   3.790   1.320   1.065
20110WAT     H260573   3.725   1.437   0.971
20111WAT      O60574   3.229   7.880   3.973
20111WAT     H160575   3.221   7.838   4.063
20111WAT     H260576   3.138   7.894   3.934
20112WAT      O60577   2.400   4.996   6.332
20112WAT     H160578   2.435   5.041   6.250
20112WAT     H260579   2.475   4.977   6.395
20113WAT      O60580   7.948   9.107   5.495
20113WAT     H160581   7.928   9.132   5.400
20113WAT     H260582   8.012   9.031   5.498
20114WAT      O60583   6.675   8.959   1.889
20114WAT     H160584   6.762   8.912   1.896
20114WAT     H260585   6.601   8.892   1.884
20115WAT      O60586   2.609   0.272   7.127
20115WAT     H160587   2.669   0.229   7.195
20115WAT     H260588   2.515   0.242   7.143
20116WAT      O60589   6.766   1.286   3.314
20116WAT     H160590   6.780   1.193   3.282
20116WAT     H260591   6.668   1.308   3.313
20117WAT      O60592   4.987   0.535   9.431
20117WAT     H160593   4.921   0.460   9.441
20117WAT     H260594   5.079   0.500   9.448
20118WAT      O60595   3.110   7.463   0.665
20118WAT     H160596   3.181   7.433   0.601
20118WAT     H260597   3.020   7.452   0.622
20119WAT      O60598   2.842   6.804   3.039
20119WAT     H160599   2.939   6.800   3.015
20119WAT     H260600   2.791   6.737   2.985
20120WAT      O60601   2.367   8.716   2.430
20120WAT     H160602   2.428   8.739   2.354
20120WAT     H260603   2.272   8.713   2.397
20121WAT      O60604   9.129   2.569   7.802
20121WAT     H160605   9.088   2.587   7.713
20121WAT     H260606   9.156   2.655   7.845
20122WAT      O60607   6.692   6.535   2.097
20122WAT     H160608   6.660   6.456   2.046
20122WAT     H260609   6.628   6.556   2.171
20123WAT      O60610   6.423   2.674   9.541
20123WAT     H160611   6.363   2.732   9.488
20123WAT     H260612   6.517   2.685   9.509
20124WAT      O60613   9.165   0.685   9.758
20124WAT     H160614   9.244   0.645   9.712
20124WAT     H260615   9.178   0.683   9.857
20125WAT      O60616   3.814   4.224   3.477
20125WAT     H160617   3.753   4.159   3.523
20125WAT     H260618   3.891   4.175   3.437
20126WAT      O60619   2.500   4.973   2.325
20126WAT     H160620   2.508   4.896   2.388
20126WAT     H260621   2.549   4.952   2.240
20127WAT      O60622   8.352   3.207   6.504
20127WAT     H160623   8.253   3.219   6.500
20127WAT     H260624   8.396   3.276   6.446
20128WAT      O60625   2.257   9.727   1.929
20128WAT     H160626   2.264   9.668   2.010
20128WAT     H260627   2.300   9.815   1.949
20129WAT      O60628   4.626   7.574   2.483
20129WAT     H160629   4.716   7.597   2.445
20129WAT     H260630   4.632   7.570   2.582
20130WAT      O60631   8.252   4.006   4.230
20130WAT     H160632   8.249   3.907   4.219
20130WAT     H260633   8.346   4.038   4.219
20131WAT      O60634   4.322   0.004   8.886
20131WAT     H160635   4.401   0.062   8.903
20131WAT     H260636   4.322  -0.073   8.949
20132WAT      O60637   1.856   9.634   0.292
20132WAT     H160638   1.823   9.592   0.207
20132WAT     H260639   1.807   9.720   0.308
20133WAT      O60640   1.534   3.527   2.036
20133WAT     H160641   1.594   3.584   1.980
20133WAT     H260642   1.529   3.563   2.128
20134WAT      O60643   3.356   3.119   9.707
20134WAT     H160644   3.452   3.099   9.727
20134WAT     H260645   3.315   3.166   9.785
20135WAT      O60646   5.518   5.855   1.955
20135WAT     H160647   5.597   5.873   1.897
20135WAT     H260648   5.542   5.874   2.050
20136WAT      O60649   2.166   8.095   3.718
20136WAT     H160650   2.181   8.009   3.768
20136WAT     H260651   2.250   8.149   3.718
20137WAT      O60652   1.701   5.451   8.257
20137WAT     H160653   1.619   5.499   8.286
20137WAT     H260654   1.764   5.443   8.334
20138WAT      O60655   6.264   0.050   7.073
20138WAT     H160656   6.345   0.038   7.131
20138WAT     H260657   6.292   0.080   6.982
20139WAT      O60658   2.361   0.662   9.590
20139WAT     H160659   2.335   0.745   9.540
20139WAT     H260660   2.439   0.618   9.546
20140WAT      O60661   4.505   8.789   8.785
20140WAT     H160662   4.432   8.754   8.726
20140WAT     H260663   4.467   8.851   8.853
20141WAT      O60664   0.624   5.518   4.045
20141WAT     H160665   0.705   5.522   3.987
20141WAT     H260666   0.588   5.425   4.045
20142WAT      O60667   6.541   7.461   6.568
20142WAT     H160668   6.493   7.466   6.656
20142WAT     H260669   6.475   7.468   6.493
20143WAT      O60670   2.813   8.130   5.719
20143WAT     H160671   2.786   8.224   5.696
20143WAT     H260672   2.892   8.132   5.780
20144WAT      O60673   3.548   4.188   6.414
20144WAT     H160674   3.540   4.102   6.365
20144WAT     H260675   3.643   4.218   6.414
20145WAT      O60676   4.993   0.405   4.104
20145WAT     H160677   5.064   0.378   4.168
20145WAT     H260678   5.033   0.423   4.014
20146WAT      O60679   5.157   0.202   6.536
20146WAT     H160680   5.061   0.197   6.565
20146WAT     H260681   5.193   0.294   6.554
20147WAT      O60682   6.873   1.876   8.453
20147WAT     H160683   6.938   1.846   8.383
20147WAT     H260684   6.892   1.971   8.478
20148WAT      O60685   7.330   9.175   2.192
20148WAT     H160686   7.376   9.153   2.106
20148WAT     H260687   7.352   9.269   2.218
20149WAT      O60688   0.128   5.552   7.432
20149WAT     H160689   0.174   5.610   7.365
20149WAT     H260690   0.038   5.590   7.452
20150WAT      O60691   6.620   0.324   4.849
20150WAT     H160692   6.712   0.309   4.887
20150WAT     H260693   6.580   0.406   4.891
20151WAT      O60694   0.384   4.275   4.922
20151WAT     H160695   0.448   4.222   4.867
20151WAT     H260696   0.382   4.240   5.016
20152WAT      O60697   2.756   6.169   3.949
20152WAT     H160698   2.658   6.189   3.941
20152WAT     H260699   2.776   6.144   4.044
20153WAT      O60700   8.907   4.657   0.707
20153WAT     H160701   8.886   4.561   0.689
20153WAT     H260702   8.821   4.708   0.712
20154WAT      O60703   2.012   9.112   7.209
20154WAT     H160704   2.090   9.120   7.271
20154WAT     H260705   1.934   9.072   7.257
20155WAT      O60706   1.425   7.311   2.838
20155WAT     H160707   1.413   7.406   2.809
20155WAT     H260708   1.345   7.281   2.889
20156WAT      O60709   7.243   4.263   4.476
20156WAT     H160710   7.338   4.247   4.502
20156WAT     H260711   7.214   4.196   4.408
20157WAT      O60712   9.871   8.699   1.521
20157WAT     H160713   9.828   8.678   1.433
20157WAT     H260714   9.845   8.792   1.549
20158WAT      O60715   7.877   9.190   6.008
20158WAT     H160716   7.885   9.096   6.040
20158WAT     H260717   7.856   9.190   5.910
20159WAT      O60718   6.150   6.296   6.260
20159WAT     H160719   6.213   6.373   6.250
20159WAT     H260720   6.060   6.322   6.227
20160WAT      O60721   5.779   9.510   6.354
20160WAT     H160722   5.739   9.432   6.306
20160WAT     H260723   5.705   9.569   6.388
20161WAT      O60724   2.123   0.215   9.358
20161WAT     H160725   2.181   0.268   9.420
20161WAT     H260726   2.163   0.125   9.343
20162WAT      O60727   0.779   6.825   1.778
20162WAT     H160728   0.765   6.917   1.815
20162WAT     H260729   0.696   6.771   1.790
20163WAT      O60730   7.503   6.145   2.624
20163WAT     H160731   7.581   6.200   2.652
20163WAT     H260732   7.475   6.172   2.532
20164WAT      O60733   8.322   9.439   5.353
20164WAT     H160734   8.341   9.509   5.284
20164WAT     H260735   8.233   9.458   5.395
20165WAT      O60736   3.440   7.804   2.110
20165WAT     H160737   3.385   7.887   2.110
20165WAT     H260738   3.518   7.816   2.172
20166WAT      O60739   9.761   9.011   0.395
20166WAT     H160740   9.792   9.106   0.395
20166WAT     H260741   9.750   8.979   0.300
20167WAT      O60742   6.980   2.486   2.654
20167WAT     H160743   6.994   2.579   2.687
20167WAT     H260744   6.926   2.488   2.570
20168WAT      O60745   2.517   5.722   0.858
20168WAT     H160746   2.435   5.675   0.893
20168WAT     H260747   2.588   5.721   0.929
20169WAT      O60748   1.327   2.477   3.673
20169WAT     H160749   1.320   2.414   3.595
20169WAT     H260750   1.384   2.436   3.743
20170WAT      O60751   0.831   5.338   6.812
20170WAT     H160752   0.785   5.263   6.860
20170WAT     H260753   0.774   5.371   6.737
20171WAT      O60754   9.491   8.833   9.645
20171WAT     H160755   9.412   8.878   9.687
20171WAT     H260756   9.460   8.762   9.583
20172WAT      O60757   5.438   6.849   0.350
20172WAT     H160758   5.423   6.802   0.436
20172WAT     H260759   5.452   6.782   0.277
20173WAT      O60760   0.566   6.110   6.194
20173WAT     H160761   0.583   6.109   6.292
20173WAT     H260762   0.474   6.145   6.176
20174WAT      O60763   5.948   7.108   0.259
20174WAT     H160764   5.973   7.115   0.355
20174WAT     H260765   5.999   7.176   0.206
20175WAT      O60766   6.389   1.253   9.453
20175WAT     H160767   6.316   1.216   9.394
20175WAT     H260768   6.406   1.348   9.429
20176WAT      O60769   0.707   2.337   2.283
20176WAT     H160770   0.733   2.273   2.211
20176WAT     H260771   0.728   2.297   2.372
20177WAT      O60772   7.958   7.872   2.575
20177WAT     H160773   7.911   7.957   2.553
20177WAT     H260774   8.011   7.841   2.496
20178WAT      O60775   6.276   0.562   4.605
20178WAT     H160776   6.290   0.464   4.589
20178WAT     H260777   6.188   0.576   4.650
20179WAT      O60778   4.709   3.412   0.582
20179WAT     H160779   4.723   3.330   0.527
20179WAT     H260780   4.698   3.387   0.678
20180WAT      O60781   4.854   5.214   7.473
20180WAT     H160782   4.893   5.208   7.381
20180WAT     H260783   4.764   5.170   7.475
20181WAT      O60784   0.257   7.237   5.401
20181WAT     H160785   0.232   7.163   5.463
20181WAT     H260786   0.181   7.302   5.395
20182WAT      O60787   5.867   7.201   8.619
20182WAT     H160788   5.810   7.283   8.615
20182WAT     H260789   5.946   7.211   8.558
20183WAT      O60790   5.776   0.015   6.280
20183WAT     H160791   5.820   0.003   6.191
20183WAT     H260792   5.719  -0.065   6.300
20184WAT      O60793   7.691   5.831   4.411
20184WAT     H160794   7.684   5.745   4.361
20184WAT     H260795   7.603   5.880   4.406
20185WAT      O60796   7.212   9.499   6.046
20185WAT     H160797   7.307   9.496   6.015
20185WAT     H260798   7.187   9.593   6.070
20186WAT      O60799   7.858   0.964   8.602
20186WAT     H160800   7.867   0.971   8.502
20186WAT     H260801   7.808   0.881   8.625
20187WAT      O60802   2.297   5.498   2.658
20187WAT     H160803   2.348   5.582   2.674
20187WAT     H260804   2.245   5.506   2.573
20188WAT      O60805   0.155   1.939   0.352
20188WAT     H160806   0.233   1.899   0.304
20188WAT     H260807   0.141   1.893   0.439
20189WAT      O60808   1.726   7.272   9.285
20189WAT     H160809   1.741   7.268   9.186
20189WAT     H260810   1.630   7.253   9.305
20190WAT      O60811   7.422   9.201   1.944
20190WAT     H160812   7.452   9.119   1.895
20190WAT     H260813   7.329   9.225   1.915
20191WAT      O60814   6.880   0.836   3.561
20191WAT     H160815   6.801   0.889   3.533
20191WAT     H260816   6.960   0.896   3.568
20192WAT      O60817   3.450   5.324   5.568
20192WAT     H160818   3.497   5.412   5.581
20192WAT     H260819   3.369   5.322   5.625
20193WAT      O60820   0.738   7.651   1.853
20193WAT     H160821   0.684   7.568   1.841
20193WAT     H260822   0.798   7.663   1.773
20194WAT      O60823   3.711   2.292   8.879
20194WAT     H160824   3.636   2.295   8.946
20194WAT     H260825   3.739   2.197   8.866
20195WAT      O60826   0.117   0.485   1.691
20195WAT     H160827   0.095   0.388   1.685
20195WAT     H260828   0.050   0.531   1.750
20196WAT      O60829   4.321   6.402   6.348
20196WAT     H160830   4.237   6.379   6.397
20196WAT     H260831   4.338   6.335   6.276
20197WAT      O60832   8.693   9.044   9.199
20197WAT     H160833   8.696   9.098   9.283
20197WAT     H260834   8.598   9.028   9.172
20198WAT      O60835   7.629   0.015   7.440
20198WAT     H160836   7.534  -0.008   7.462
20198WAT     H260837   7.636   0.114   7.423
20199WAT      O60838   6.835   2.902   1.921
20199WAT     H160839   6.746   2.863   1.942
20199WAT     H260840   6.823   2.992   1.879
20200WAT      O60841   9.575   0.841   7.188
20200WAT     H160842   9.499   0.893   7.149
20200WAT     H260843   9.542   0.749   7.212
20201WAT      O60844   2.357   4.053   0.024
20201WAT     H160845   2.406   3.976  -0.017
20201WAT     H260846   2.406   4.085   0.105
20202WAT      O60847   9.586   8.416   3.112
20202WAT     H160848   9.616   8.408   3.207
20202WAT     H260849   9.597   8.327   3.066
20203WAT      O60850   9.822   3.888   6.581
20203WAT     H160851   9.891   3.821   6.554
20203WAT     H260852   9.734   3.864   6.538
20204WAT      O60853   2.958   7.966   0.502
20204WAT     H160854   3.009   8.022   0.566
20204WAT     H260855   3.019   7.930   0.432
20205WAT      O60856   4.482   2.323   7.944
20205WAT     H160857   4.559   2.343   7.884
20205WAT     H260858   4.435   2.408   7.968
20206WAT      O60859   0.956   8.875   0.537
20206WAT     H160860   0.999   8.949   0.589
20206WAT     H260861   0.965   8.789   0.589
20207WAT      O60862   0.479   4.991   4.998
20207WAT     H160863   0.531   4.912   5.031
20207WAT     H260864   0.505   5.072   5.049
20208WAT      O60865   6.713   9.261   9.026
20208WAT     H160866   6.662   9.346   9.014
20208WAT     H260867   6.810   9.278   9.009
20209WAT      O60868   8.485   3.469   7.327
20209WAT     H160869   8.524   3.412   7.399
20209WAT     H260870   8.433   3.544   7.369
20210WAT      O60871   5.156   1.234   2.801
20210WAT     H160872   5.229   1.283   2.849
20210WAT     H260873   5.106   1.178   2.866
20211WAT      O60874   7.433   8.277   0.703
20211WAT     H160875   7.370   8.323   0.765
20211WAT     H260876   7.423   8.178   0.713
20212WAT      O60877   3.224   7.094   7.692
20212WAT     H160878   3.149   7.051   7.743
20212WAT     H260879   3.298   7.027   7.680
20213WAT      O60880   6.793   3.512   2.359
20213WAT     H160881   6.732   3.526   2.281
20213WAT     H260882   6.778   3.421   2.397
20214WAT      O60883   2.785   9.604   4.333
20214WAT     H160884   2.848   9.651   4.396
20214WAT     H260885   2.807   9.507   4.331
20215WAT      O60886   0.095   2.478   3.704
20215WAT     H160887   0.173   2.422   3.674
20215WAT     H260888   0.024   2.477   3.634
20216WAT      O60889   5.539   0.990   9.324
20216WAT     H160890   5.591   0.954   9.246
20216WAT     H260891   5.596   1.057   9.372
20217WAT      O60892   2.381   4.547   6.197
20217WAT     H160893   2.366   4.449   6.205
20217WAT     H260894   2.314   4.597   6.251
20218WAT      O60895   7.039   1.629   5.158
20218WAT     H160896   7.121   1.592   5.115
20218WAT     H260897   6.967   1.641   5.090
20219WAT      O60898   3.009   5.000   2.575
20219WAT     H160899   3.053   5.067   2.515
20219WAT     H260900   2.926   4.966   2.531
20220WAT      O60901   0.132   4.393   8.189
20220WAT     H160902   0.115   4.454   8.112
20220WAT     H260903   0.187   4.316   8.159
20221WAT      O60904   8.128   6.602   7.810
20221WAT     H160905   8.111   6.510   7.844
20221WAT     H260906   8.220   6.630   7.834
20222WAT      O60907   6.994   8.520   5.550
20222WAT     H160908   6.899   8.544   5.570
20222WAT     H260909   7.052   8.600   5.563
20223WAT      O60910   3.641   6.195   0.962
20223WAT     H160911   3.665   6.264   0.895
20223WAT     H260912   3.643   6.104   0.919
20224WAT      O60913   2.875   3.327   2.182
20224WAT     H160914   2.973   3.343   2.187
20224WAT     H260915   2.857   3.233   2.153
20225WAT      O60916   8.217   7.371   1.464
20225WAT     H160917   8.253   7.435   1.396
20225WAT     H260918   8.195   7.284   1.419
20226WAT      O60919   6.167   1.629   9.412
20226WAT     H160920   6.252   1.580   9.391
20226WAT     H260921   6.125   1.590   9.494
20227WAT      O60922   9.860   5.559   5.775
20227WAT     H160923   9.905   5.637   5.817
20227WAT     H260924   9.921   5.516   5.708
20228WAT      O60925   9.183   4.908   9.396
20228WAT     H160926   9.177   4.819   9.442
20228WAT     H260927   9.160   4.980   9.461
20229WAT      O60928   1.028   0.442   4.370
20229WAT     H160929   1.067   0.499   4.443
20229WAT     H260930   0.970   0.372   4.411
20230WAT      O60931   4.129   4.528   6.603
20230WAT     H160932   4.073   4.602   6.566
20230WAT     H260933   4.226   4.551   6.592
20231WAT      O60934   5.390   9.448   4.636
20231WAT     H160935   5.471   9.389   4.641
20231WAT     H260936   5.321   9.416   4.701
20232WAT      O60937   5.036   2.953   6.543
20232WAT     H160938   4.951   2.951   6.594
20232WAT     H260939   5.091   2.872   6.565
20233WAT      O60940   4.854   1.975   7.981
20233WAT     H160941   4.787   1.997   8.052
20233WAT     H260942   4.927   2.043   7.982
20234WAT      O60943   0.592   2.869   8.899
20234WAT     H160944   0.599   2.813   8.817
20234WAT     H260945   0.553   2.816   8.973
20235WAT      O60946   4.089   4.780   6.956
20235WAT     H160947   4.027   4.854   6.982
20235WAT     H260948   4.139   4.748   7.036
20236WAT      O60949   4.993   3.872   7.565
20236WAT     H160950   5.070   3.819   7.602
20236WAT     H260951   4.951   3.926   7.638
20237WAT      O60952   1.612   2.027   7.926
20237WAT     H160953   1.702   2.068   7.916
20237WAT     H260954   1.552   2.089   7.977
20238WAT      O60955   0.857   7.439   2.618
20238WAT     H160956   0.894   7.361   2.568
20238WAT     H260957   0.785   7.482   2.564
20239WAT      O60958   6.887   8.377   2.285
20239WAT     H160959   6.843   8.346   2.201
20239WAT     H260960   6.861   8.316   2.360
20240WAT      O60961   6.335   1.737   1.786
20240WAT     H160962   6.291   1.651   1.761
20240WAT     H260963   6.265   1.808   1.800
20241WAT      O60964   3.764   0.906   5.871
20241WAT     H160965   3.800   0.823   5.916
20241WAT     H260966   3.710   0.880   5.791
20242WAT      O60967   0.516   5.108   3.993
20242WAT     H160968   0.445   5.059   3.943
20242WAT     H260969   0.598   5.052   3.999
20243WAT      O60970   2.495   3.635   4.807
20243WAT     H160971   2.470   3.657   4.713
20243WAT     H260972   2.441   3.558   4.839
20244WAT      O60973   8.468   8.026   5.734
20244WAT     H160974   8.558   8.006   5.772
20244WAT     H260975   8.476   8.100   5.667
20245WAT      O60976   4.049   9.643   4.079
20245WAT     H160977   4.037   9.566   4.142
20245WAT     H260978   4.142   9.640   4.041
20246WAT      O60979   7.485   8.979   1.809
20246WAT     H160980   7.424   8.902   1.791
20246WAT     H260981   7.576   8.945   1.833
20247WAT      O60982   3.992   8.658   4.096
20247WAT     H160983   3.928   8.598   4.143
20247WAT     H260984   4.058   8.603   4.045
20248WAT      O60985   4.045   7.548   4.393
20248WAT     H160986   4.143   7.560   4.380
20248WAT     H260987   4.020   7.454   4.370
20249WAT      O60988   7.022   4.385   5.064
20249WAT     H160989   7.059   4.393   4.972
20249WAT     H260990   7.016   4.477   5.105
20250WAT      O60991   1.972   4.422   9.403
20250WAT     H160992   1.992   4.466   9.490
20250WAT     H260993   1.945   4.327   9.418
20251WAT      O60994   7.419   5.220   2.870
20251WAT     H160995   7.352   5.178   2.931
20251WAT     H260996   7.484   5.273   2.923
20252WAT      O60997   6.637   0.472   8.883
20252WAT     H160998   6.665   0.382   8.849
20252WAT     H260999   6.692   0.495   8.963
20253WAT      O61000   2.290   5.708   9.165
20253WAT     H161001   2.305   5.618   9.123
20253WAT     H261002   2.378   5.754   9.176
20254WAT      O61003   7.977   4.158   6.174
20254WAT     H161004   8.072   4.175   6.200
20254WAT     H261005   7.944   4.076   6.222
20255WAT      O61006   5.388   9.204   3.343
20255WAT     H161007   5.312   9.262   3.314
20255WAT     H261008   5.367   9.108   3.321
20256WAT      O61009   1.661   5.157   2.517
20256WAT     H161010   1.667   5.234   2.581
20256WAT     H261011   1.569   5.152   2.479
20257WAT      O61012   8.889   7.815   4.374
20257WAT     H161013   8.808   7.852   4.419
20257WAT     H261014   8.949   7.773   4.442
20258WAT      O61015   0.905   4.978   1.282
20258WAT     H161016   0.887   4.890   1.325
20258WAT     H261017   0.853   4.985   1.197
20259WAT      O61018   8.145   3.967   8.740
20259WAT     H161019   8.053   3.948   8.706
20259WAT     H261020   8.198   3.883   8.741
20260WAT      O61021   8.538   1.260   8.964
20260WAT     H161022   8.462   1.255   8.899
20260WAT     H261023   8.623   1.281   8.914
20261WAT      O61024   7.613   7.520   7.641
20261WAT     H161025   7.576   7.435   7.605
20261WAT     H261026   7.706   7.505   7.673
20262WAT      O61027   4.707   2.076   9.044
20262WAT     H161028   4.684   2.055   9.139
20262WAT     H261029   4.689   2.172   9.025
20263WAT      O61030   6.999   2.784   7.728
20263WAT     H161031   6.932   2.733   7.781
20263WAT     H261032   7.040   2.855   7.786
20264WAT      O61033   6.747   2.724   1.285
20264WAT     H161034   6.757   2.706   1.187
20264WAT     H261035   6.727   2.822   1.298
20265WAT      O61036   6.259   7.740   9.862
20265WAT     H161037   6.221   7.757   9.953
20265WAT     H261038   6.291   7.646   9.856
20266WAT      O61039   5.737   6.827   7.248
20266WAT     H161040   5.658   6.840   7.188
20266WAT     H261041   5.713   6.851   7.341
20267WAT      O61042   9.862   0.405   0.071
20267WAT     H161043   9.955   0.441   0.074
20267WAT     H261044   9.797   0.478   0.092
20268WAT      O61045   7.266   6.912   2.242
20268WAT     H161046   7.284   6.874   2.332
20268WAT     H261047   7.267   7.012   2.247
20269WAT      O61048   5.460   2.737   6.950
20269WAT     H161049   5.529   2.725   6.878
20269WAT     H261050   5.478   2.822   7.000
20270WAT      O61051   7.475   9.527   9.709
20270WAT     H161052   7.456   9.620   9.679
20270WAT     H261053   7.526   9.479   9.638
20271WAT      O61054   5.950   9.283   2.115
20271WAT     H161055   5.958   9.313   2.020
20271WAT     H261056   5.962   9.361   2.176
20272WAT      O61057   3.420   3.580   7.879
20272WAT     H161058   3.395   3.676   7.869
20272WAT     H261059   3.491   3.571   7.949
20273WAT      O61060   6.469   8.699   8.991
20273WAT     H161061   6.505   8.606   8.978
20273WAT     H261062   6.540   8.757   9.032
20274WAT      O61063   4.413   2.266   8.859
20274WAT     H161064   4.379   2.208   8.933
20274WAT     H261065   4.507   2.292   8.877
20275WAT      O61066   0.618   2.416   9.421
20275WAT     H161067   0.700   2.402   9.475
20275WAT     H261068   0.605   2.514   9.402
20276WAT      O61069   9.144   5.590   2.979
20276WAT     H161070   9.163   5.550   2.889
20276WAT     H261071   9.045   5.594   2.993
20277WAT      O61072   8.890   4.541   1.491
20277WAT     H161073   8.881   4.640   1.487
20277WAT     H261074   8.808   4.498   1.452
20278WAT      O61075   2.053   7.495   3.556
20278WAT     H161076   2.038   7.397   3.562
20278WAT     H261077   2.113   7.515   3.479
20279WAT      O61078   4.066   8.864   6.269
20279WAT     H161079   4.035   8.821   6.184
20279WAT     H261080   4.162   8.841   6.285
20280WAT      O61081   6.474   3.113   2.827
20280WAT     H161082   6.410   3.177   2.868
20280WAT     H261083   6.424   3.048   2.770
20281WAT      O61084   2.722   9.769   4.150
20281WAT     H161085   2.626   9.794   4.153
20281WAT     H261086   2.745   9.712   4.229
20282WAT      O61087   9.361   5.493   7.755
20282WAT     H161088   9.367   5.509   7.854
20282WAT     H261089   9.289   5.426   7.737
20283WAT      O61090   4.317   0.135   8.147
20283WAT     H161091   4.332   0.149   8.245
20283WAT     H261092   4.382   0.190   8.095
20284WAT      O61093   7.296   8.164   7.506
20284WAT     H161094   7.324   8.084   7.559
20284WAT     H261095   7.273   8.239   7.568
20285WAT      O61096   8.549   0.555   9.176
20285WAT     H161097   8.486   0.633   9.187
20285WAT     H261098   8.502   0.481   9.128
20286WAT      O61099   0.235   8.218   8.791
20286WAT     H161100   0.252   8.214   8.890
20286WAT     H261101   0.143   8.253   8.775
20287WAT      O61102   6.191   1.460   2.107
20287WAT     H161103   6.173   1.557   2.090
20287WAT     H261104   6.264   1.429   2.048
20288WAT      O61105   5.273   1.506   9.848
20288WAT     H161106   5.258   1.409   9.826
20288WAT     H261107   5.371   1.525   9.851
20289WAT      O61108   9.372   5.382   9.199
20289WAT     H161109   9.373   5.358   9.102
20289WAT     H261110   9.353   5.301   9.254
20290WAT      O61111   7.688   6.896   4.352
20290WAT     H161112   7.611   6.868   4.410
20290WAT     H261113   7.662   6.888   4.256
20291WAT      O61114   8.190   5.152   7.610
20291WAT     H161115   8.150   5.243   7.600
20291WAT     H261116   8.118   5.086   7.632
20292WAT      O61117   8.091   8.267   0.633
20292WAT     H161118   8.029   8.220   0.569
20292WAT     H261119   8.037   8.321   0.697
20293WAT      O61120   4.882   3.476   7.323
20293WAT     H161121   4.797   3.528   7.324
20293WAT     H261122   4.868   3.388   7.278
20294WAT      O61123   8.797   8.268   5.571
20294WAT     H161124   8.759   8.272   5.664
20294WAT     H261125   8.859   8.189   5.564
20295WAT      O61126   8.949   5.933   7.225
20295WAT     H161127   8.874   5.907   7.165
20295WAT     H261128   8.921   5.925   7.320
20296WAT      O61129   5.141   0.582   5.957
20296WAT     H161130   5.076   0.659   5.958
20296WAT     H261131   5.232   0.617   5.937
20297WAT      O61132   6.126   1.089   8.969
20297WAT     H161133   6.087   1.076   8.878
20297WAT     H261134   6.052   1.083   9.037
20298WAT      O61135   3.129   5.141   4.743
20298WAT     H161136   3.040   5.158   4.787
20298WAT     H261137   3.114   5.099   4.654
20299WAT      O61138   8.678   8.462   0.008
20299WAT     H161139   8.698   8.496  -0.084
20299WAT     H261140   8.764   8.445   0.057
20300WAT      O61141   0.252   6.669   7.578
20300WAT     H161142   0.324   6.685   7.645
20300WAT     H261143   0.237   6.570   7.569
20301WAT      O61144   9.302   1.090   4.339
20301WAT     H161145   9.375   1.151   4.370
20301WAT     H261146   9.260   1.127   4.257
20302WAT      O61147   8.127   8.348   2.325
20302WAT     H161148   8.135   8.446   2.342
20302WAT     H261149   8.170   8.326   2.238
20303WAT      O61150   6.765   3.347   0.432
20303WAT     H161151   6.806   3.432   0.399
20303WAT     H261152   6.666   3.350   0.418
20304WAT      O61153   2.205   5.318   8.828
20304WAT     H161154   2.252   5.230   8.838
20304WAT     H261155   2.123   5.306   8.772
20305WAT      O61156   5.600   8.732   1.131
20305WAT     H161157   5.571   8.684   1.214
20305WAT     H261158   5.686   8.694   1.098
20306WAT      O61159   0.458   8.518   0.790
20306WAT     H161160   0.490   8.586   0.856
20306WAT     H261161   0.465   8.556   0.697
20307WAT      O61162   7.790   5.009   6.627
20307WAT     H161163   7.760   4.926   6.581
20307WAT     H261164   7.858   4.985   6.697
20308WAT      O61165   5.819   5.903   3.625
20308WAT     H161166   5.841   5.997   3.653
20308WAT     H261167   5.889   5.870   3.562
20309WAT      O61168   2.324   0.218   4.831
20309WAT     H161169   2.406   0.184   4.878
20309WAT     H261170   2.271   0.274   4.894
20310WAT      O61171   5.871   3.859   8.204
20310WAT     H161172   5.778   3.893   8.207
20310WAT     H261173   5.871   3.764   8.174
20311WAT      O61174   5.809   9.546   8.096
20311WAT     H161175   5.879   9.577   8.161
20311WAT     H261176   5.800   9.446   8.102
20312WAT      O61177   6.751   5.651   0.865
20312WAT     H161178   6.717   5.688   0.778
20312WAT     H261179   6.843   5.613   0.852
20313WAT      O61180   1.563   2.461   5.947
20313WAT     H161181   1.596   2.367   5.938
20313WAT     H261182   1.597   2.516   5.871
20314WAT      O61183   9.134   3.064   7.612
20314WAT     H161184   9.106   3.100   7.523
20314WAT     H261185   9.054   3.025   7.659
20315WAT      O61186   5.974   1.698   3.025
20315WAT     H161187   5.963   1.600   3.011
20315WAT     H261188   6.055   1.730   2.976
20316WAT      O61189   8.733   1.076   4.348
20316WAT     H161190   8.656   1.012   4.341
20316WAT     H261191   8.723   1.131   4.430
20317WAT      O61192   5.104   4.176   2.434
20317WAT     H161193   5.039   4.221   2.495
20317WAT     H261194   5.193   4.170   2.479
20318WAT      O61195   4.353   5.115   0.244
20318WAT     H161196   4.278   5.176   0.221
20318WAT     H261197   4.342   5.082   0.339
20319WAT      O61198   0.422   4.368   7.129
20319WAT     H161199   0.363   4.359   7.208
20319WAT     H261200   0.486   4.444   7.143
20320WAT      O61201   3.944   2.312   5.405
20320WAT     H161202   4.001   2.381   5.450
20320WAT     H261203   3.899   2.256   5.475
20321WAT      O61204   8.524   8.979   7.262
20321WAT     H161205   8.611   8.987   7.311
20321WAT     H261206   8.469   8.907   7.305
20322WAT      O61207   6.767   6.340   8.011
20322WAT     H161208   6.867   6.334   8.005
20322WAT     H261209   6.742   6.429   8.049
20323WAT      O61210   1.511   2.220   5.743
20323WAT     H161211   1.414   2.196   5.737
20323WAT     H261212   1.565   2.150   5.697
20324WAT      O61213   8.851   4.066   3.536
20324WAT     H161214   8.942   4.107   3.540
20324WAT     H261215   8.858   3.967   3.538
20325WAT      O61216   0.375   3.460   6.886
20325WAT     H161217   0.290   3.498   6.921
20325WAT     H261218   0.388   3.367   6.922
20326WAT      O61219   6.919   0.467   2.432
20326WAT     H161220   6.983   0.508   2.497
20326WAT     H261221   6.912   0.369   2.451
20327WAT      O61222   9.497   6.078   4.157
20327WAT     H161223   9.529   6.172   4.169
20327WAT     H261224   9.514   6.049   4.062
20328WAT      O61225   4.243   6.426   0.795
20328WAT     H161226   4.201   6.509   0.830
20328WAT     H261227   4.335   6.416   0.834
20329WAT      O61228   7.915   8.325   5.451
20329WAT     H161229   7.857   8.261   5.501
20329WAT     H261230   7.882   8.335   5.357
20330WAT      O61231   4.979   2.950   3.003
20330WAT     H161232   5.028   2.922   2.920
20330WAT     H261233   4.943   2.869   3.050
20331WAT      O61234   6.818   6.242   8.420
20331WAT     H161235   6.852   6.234   8.514
20331WAT     H261236   6.865   6.175   8.362
20332WAT      O61237   6.864   8.120   4.074
20332WAT     H161238   6.963   8.130   4.088
20332WAT     H261239   6.816   8.172   4.144
20333WAT      O61240   7.429   2.426   9.596
20333WAT     H161241   7.378   2.509   9.623
20333WAT     H261242   7.387   2.388   9.513
20334WAT      O61243   1.605   6.538   6.105
20334WAT     H161244   1.515   6.495   6.120
20334WAT     H261245   1.616   6.614   6.169
20335WAT      O61246   1.427   7.508   6.719
20335WAT     H161247   1.435   7.529   6.817
20335WAT     H261248   1.355   7.563   6.678
20336WAT      O61249   7.548   4.961   6.412
20336WAT     H161250   7.569   4.937   6.317
20336WAT     H261251   7.594   5.046   6.436
20337WAT      O61252   3.328   9.163   1.247
20337WAT     H161253   3.327   9.172   1.147
20337WAT     H261254   3.393   9.092   1.273
20338WAT      O61255   9.402   6.045   2.989
20338WAT     H161256   9.382   6.023   3.084
20338WAT     H261257   9.467   6.122   2.986
20339WAT      O61258   2.533   0.758   6.961
20339WAT     H161259   2.496   0.722   6.875
20339WAT     H261260   2.581   0.685   7.009
20340WAT      O61261   7.554   7.405   0.599
20340WAT     H161262   7.653   7.410   0.602
20340WAT     H261263   7.525   7.312   0.579
20341WAT      O61264   6.679   1.210   1.832
20341WAT     H161265   6.652   1.295   1.787
20341WAT     H261266   6.747   1.163   1.775
20342WAT      O61267   9.693   4.917   4.921
20342WAT     H161268   9.688   4.863   4.837
20342WAT     H261269   9.733   4.862   4.994
20343WAT      O61270   3.446   1.323   6.537
20343WAT     H161271   3.372   1.264   6.506
20343WAT     H261272   3.534   1.279   6.521
20344WAT      O61273   3.864   4.087   6.075
20344WAT     H161274   3.887   4.082   6.172
20344WAT     H261275   3.857   4.182   6.046
20345WAT      O61276   1.897   5.957   8.544
20345WAT     H161277   1.845   6.038   8.569
20345WAT     H261278   1.836   5.878   8.539
20346WAT      O61279   5.903   3.948   8.474
20346WAT     H161280   5.989   3.984   8.510
20346WAT     H261281   5.917   3.917   8.380
20347WAT      O61282   6.426   7.784   2.195
20347WAT     H161283   6.441   7.703   2.251
20347WAT     H261284   6.508   7.842   2.196
20348WAT      O61285   6.765   1.797   7.548
20348WAT     H161286   6.807   1.842   7.469
20348WAT     H261287   6.674   1.836   7.564
20349WAT      O61288   5.084   8.458   7.989
20349WAT     H161289   5.039   8.375   8.022
20349WAT     H261290   5.180   8.457   8.016
20350WAT      O61291   8.701   6.090   9.530
20350WAT     H161292   8.657   6.042   9.605
20350WAT     H261293   8.795   6.112   9.555
20351WAT      O61294   8.015   7.102   8.124
20351WAT     H161295   7.920   7.080   8.101
20351WAT     H261296   8.031   7.082   8.221
20352WAT      O61297   5.987   3.725   2.019
20352WAT     H161298   5.967   3.722   1.921
20352WAT     H261299   5.919   3.782   2.064
20353WAT      O61300   6.065   2.901   5.024
20353WAT     H161301   6.138   2.923   5.089
20353WAT     H261302   6.070   2.803   5.002
20354WAT      O61303   1.229   2.549   0.869
20354WAT     H161304   1.327   2.554   0.887
20354WAT     H261305   1.183   2.503   0.945
20355WAT      O61306   5.631   7.308   0.829
20355WAT     H161307   5.653   7.377   0.897
20355WAT     H261308   5.658   7.218   0.863
20356WAT      O61309   0.315   7.733   6.076
20356WAT     H161310   0.312   7.736   6.176
20356WAT     H261311   0.224   7.755   6.039
20357WAT      O61312   2.203   8.702   2.816
20357WAT     H161313   2.222   8.623   2.758
20357WAT     H261314   2.193   8.784   2.759
20358WAT      O61315   4.560   3.624   0.534
20358WAT     H161316   4.479   3.583   0.494
20358WAT     H261317   4.625   3.552   0.560
20359WAT      O61318   4.380   9.735   5.791
20359WAT     H161319   4.293   9.721   5.744
20359WAT     H261320   4.364   9.741   5.890
20360WAT      O61321   7.852   4.307   5.262
20360WAT     H161322   7.798   4.360   5.196
20360WAT     H261323   7.844   4.348   5.353
20361WAT      O61324   6.221   0.411   1.717
20361WAT     H161325   6.305   0.428   1.768
20361WAT     H261326   6.232   0.443   1.623
20362WAT      O61327   7.830   4.082   6.506
20362WAT     H161328   7.769   4.034   6.569
20362WAT     H261329   7.812   4.180   6.511
20363WAT      O61330   4.949   1.344   0.703
20363WAT     H161331   4.864   1.391   0.723
20363WAT     H261332   4.941   1.248   0.727
20364WAT      O61333   3.787   9.388   6.758
20364WAT     H161334   3.879   9.384   6.799
20364WAT     H261335   3.742   9.472   6.787
20365WAT      O61336   0.197   7.384   7.014
20365WAT     H161337   0.133   7.332   6.958
20365WAT     H261338   0.175   7.370   7.111
20366WAT      O61339   9.285   4.119   0.194
20366WAT     H161340   9.348   4.173   0.249
20366WAT     H261341   9.293   4.147   0.098
20367WAT      O61342   1.479   8.893   3.277
20367WAT     H161343   1.481   8.847   3.366
20367WAT     H261344   1.551   8.856   3.219
20368WAT      O61345   1.044   3.724   1.255
20368WAT     H161346   1.101   3.725   1.173
20368WAT     H261347   0.983   3.803   1.254
20369WAT      O61348   5.897   2.331   1.028
20369WAT     H161349   5.967   2.305   0.962
20369WAT     H261350   5.939   2.355   1.115
20370WAT      O61351   1.148   4.022   8.219
20370WAT     H161352   1.110   3.948   8.275
20370WAT     H261353   1.081   4.048   8.149
20371WAT      O61354   3.085   1.843   1.007
20371WAT     H161355   3.075   1.745   1.028
20371WAT     H261356   3.179   1.862   0.982
20372WAT      O61357   0.836   5.669   3.940
20372WAT     H161358   0.881   5.751   3.975
20372WAT     H261359   0.854   5.660   3.842
20373WAT      O61360   3.359   5.622   5.909
20373WAT     H161361   3.305   5.596   5.829
20373WAT     H261362   3.408   5.542   5.944
20374WAT      O61363   4.372   1.224   1.412
20374WAT     H161364   4.372   1.158   1.487
20374WAT     H261365   4.443   1.200   1.346
20375WAT      O61366   2.761   2.884   7.246
20375WAT     H161367   2.711   2.967   7.273
20375WAT     H261368   2.857   2.894   7.269
20376WAT      O61369   0.734   4.062   9.336
20376WAT     H161370   0.773   3.972   9.355
20376WAT     H261371   0.685   4.059   9.249
20377WAT      O61372   4.014   9.571   8.828
20377WAT     H161373   3.915   9.559   8.812
20377WAT     H261374   4.032   9.665   8.855
20378WAT      O61375   0.041   8.208   4.753
20378WAT     H161376   0.046   8.250   4.844
20378WAT     H261377   0.002   8.116   4.760
20379WAT      O61378   3.267   3.884   2.346
20379WAT     H161379   3.318   3.881   2.260
20379WAT     H261380   3.286   3.970   2.393
20380WAT      O61381   3.600   5.553   4.506
20380WAT     H161382   3.552   5.623   4.558
20380WAT     H261383   3.686   5.591   4.470
20381WAT      O61384   5.016   6.940   3.606
20381WAT     H161385   5.022   6.849   3.565
20381WAT     H261386   5.105   6.965   3.646
20382WAT      O61387   5.569   8.127   9.863
20382WAT     H161388   5.558   8.217   9.820
20382WAT     H261389   5.666   8.103   9.864
20383WAT      O61390   2.717   9.823   8.617
20383WAT     H161391   2.723   9.755   8.544
20383WAT     H261392   2.731   9.915   8.579
20384WAT      O61393   4.554   3.509   0.893
20384WAT     H161394   4.535   3.411   0.900
20384WAT     H261395   4.473   3.557   0.859
20385WAT      O61396   6.183   0.882   2.754
20385WAT     H161397   6.251   0.811   2.734
20385WAT     H261398   6.226   0.972   2.747
20386WAT      O61399   2.280   8.805   9.640
20386WAT     H161400   2.229   8.856   9.571
20386WAT     H261401   2.216   8.749   9.694
20387WAT      O61402   1.992   4.453   0.117
20387WAT     H161403   2.052   4.373   0.131
20387WAT     H261404   2.047   4.529   0.082
20388WAT      O61405   4.602   1.291   9.079
20388WAT     H161406   4.663   1.252   9.010
20388WAT     H261407   4.508   1.265   9.059
20389WAT      O61408   3.144   4.377   8.679
20389WAT     H161409   3.143   4.282   8.647
20389WAT     H261410   3.071   4.428   8.634
20390WAT      O61411   1.317   9.345   4.627
20390WAT     H161412   1.314   9.265   4.688
20390WAT     H261413   1.270   9.323   4.541
20391WAT      O61414   2.685   7.695   7.052
20391WAT     H161415   2.660   7.651   6.966
20391WAT     H261416   2.668   7.633   7.128
20392WAT      O61417   4.308   5.883   6.921
20392WAT     H161418   4.268   5.871   7.011
20392WAT     H261419   4.245   5.847   6.852
20393WAT      O61420   2.003   1.084   1.404
20393WAT     H161421   1.965   0.996   1.377
20393WAT     H261422   1.983   1.101   1.501
20394WAT      O61423   8.713   1.334   2.530
20394WAT     H161424   8.778   1.277   2.480
20394WAT     H261425   8.684   1.287   2.613
20395WAT      O61426   0.187   5.217   8.483
20395WAT     H161427   0.224   5.158   8.411
20395WAT     H261428   0.252   5.222   8.559
20396WAT      O61429   9.393   5.141   6.557
20396WAT     H161430   9.483   5.158   6.597
20396WAT     H261431   9.323   5.188   6.611
20397WAT      O61432   7.588   6.319   7.770
20397WAT     H161433   7.588   6.230   7.816
20397WAT     H261434   7.563   6.390   7.836
20398WAT      O61435   2.967   8.210   4.618
20398WAT     H161436   2.972   8.129   4.559
20398WAT     H261437   3.020   8.193   4.702
20399WAT      O61438   7.333   0.794   4.497
20399WAT     H161439   7.427   0.811   4.527
20399WAT     H261440   7.321   0.827   4.403
20400WAT      O61441   8.876   5.691   8.424
20400WAT     H161442   8.942   5.715   8.495
20400WAT     H261443   8.788   5.670   8.467
20401WAT      O61444   7.615   1.133   6.616
20401WAT     H161445   7.689   1.113   6.681
20401WAT     H261446   7.621   1.228   6.588
20402WAT      O61447   7.436   7.364   8.561
20402WAT     H161448   7.437   7.293   8.490
20402WAT     H261449   7.521   7.416   8.557
20403WAT      O61450   5.302   3.521   3.327
20403WAT     H161451   5.265   3.565   3.245
20403WAT     H261452   5.228   3.503   3.391
20404WAT      O61453   5.544   1.266   8.934
20404WAT     H161454   5.570   1.287   9.028
20404WAT     H261455   5.529   1.351   8.883
20405WAT      O61456   7.404   0.093   8.760
20405WAT     H161457   7.369   0.000   8.748
20405WAT     H261458   7.370   0.151   8.685
20406WAT      O61459   7.557   9.582   0.078
20406WAT     H161460   7.512   9.586  -0.011
20406WAT     H261461   7.655   9.598   0.066
20407WAT      O61462   2.865   4.912   4.628
20407WAT     H161463   2.810   4.885   4.549
20407WAT     H261464   2.958   4.934   4.598
20408WAT      O61465   9.247   4.912   6.556
20408WAT     H161466   9.293   5.000   6.543
20408WAT     H261467   9.169   4.906   6.493
20409WAT      O61468   8.179   8.820   0.832
20409WAT     H161469   8.092   8.831   0.880
20409WAT     H261470   8.168   8.755   0.757
20410WAT      O61471   5.391   1.378   8.104
20410WAT     H161472   5.473   1.330   8.136
20410WAT     H261473   5.397   1.475   8.130
20411WAT      O61474   7.176   9.236   6.182
20411WAT     H161475   7.210   9.325   6.152
20411WAT     H261476   7.082   9.223   6.150
20412WAT      O61477   7.470   3.930   5.601
20412WAT     H161478   7.430   4.021   5.589
20412WAT     H261479   7.556   3.925   5.551
20413WAT      O61480   7.191   3.926   0.020
20413WAT     H161481   7.125   4.001   0.016
20413WAT     H261482   7.145   3.840  -0.001
20414WAT      O61483   8.211   8.923   5.042
20414WAT     H161484   8.216   8.840   5.098
20414WAT     H261485   8.120   8.963   5.049
20415WAT      O61486   6.532   6.548   8.078
20415WAT     H161487   6.534   6.624   8.013
20415WAT     H261488   6.530   6.584   8.172
20416WAT      O61489   1.328   2.650   4.581
20416WAT     H161490   1.349   2.568   4.528
20416WAT     H261491   1.229   2.664   4.585
20417WAT      O61492   1.176   1.031   6.239
20417WAT     H161493   1.246   1.101   6.221
20417WAT     H261494   1.108   1.069   6.302
20418WAT      O61495   9.772   7.957   4.953
20418WAT     H161496   9.681   7.979   4.919
20418WAT     H261497   9.776   7.860   4.976
20419WAT      O61498   9.198   9.249   0.127
20419WAT     H161499   9.162   9.246   0.220
20419WAT     H261500   9.133   9.296   0.067
20420WAT      O61501   8.374   2.474   0.241
20420WAT     H161502   8.403   2.413   0.314
20420WAT     H261503   8.381   2.569   0.272
20421WAT      O61504   9.065   2.194   8.183
20421WAT     H161505   9.147   2.250   8.171
20421WAT     H261506   9.024   2.214   8.272
20422WAT      O61507   3.815   5.448   3.940
20422WAT     H161508   3.882   5.377   3.963
20422WAT     H261509   3.729   5.404   3.914
20423WAT      O61510   2.484   1.702   1.618
20423WAT     H161511   2.432   1.692   1.533
20423WAT     H261512   2.580   1.717   1.596
20424WAT      O61513   4.619   3.908   1.082
20424WAT     H161514   4.674   3.919   0.999
20424WAT     H261515   4.528   3.947   1.067
20425WAT      O61516   0.321   3.017   1.296
20425WAT     H161517   0.368   3.060   1.373
20425WAT     H261518   0.239   3.069   1.273
20426WAT      O61519   2.256   2.959   7.046
20426WAT     H161520   2.304   2.951   7.134
20426WAT     H261521   2.322   2.954   6.971
20427WAT      O61522   8.226   8.626   8.140
20427WAT     H161523   8.180   8.621   8.051
20427WAT     H261524   8.159   8.615   8.213
20428WAT      O61525   1.081   6.576   7.809
20428WAT     H161526   1.160   6.514   7.813
20428WAT     H261527   1.109   6.663   7.768
20429WAT      O61528   7.062   3.725   9.756
20429WAT     H161529   7.132   3.666   9.717
20429WAT     H261530   6.977   3.714   9.705
20430WAT      O61531   1.546   0.909   5.343
20430WAT     H161532   1.563   0.825   5.395
20430WAT     H261533   1.555   0.988   5.404
20431WAT      O61534   6.650   8.245   9.579
20431WAT     H161535   6.736   8.222   9.625
20431WAT     H261536   6.645   8.345   9.567
20432WAT      O61537   6.535   7.576   9.420
20432WAT     H161538   6.519   7.674   9.428
20432WAT     H261539   6.607   7.559   9.353
20433WAT      O61540   4.828   1.502   6.979
20433WAT     H161541   4.854   1.434   7.047
20433WAT     H261542   4.910   1.536   6.933
20434WAT      O61543   9.158   7.798   7.343
20434WAT     H161544   9.114   7.821   7.256
20434WAT     H261545   9.256   7.785   7.329
20435WAT      O61546   4.845   9.841   8.286
20435WAT     H161547   4.842   9.802   8.378
20435WAT     H261548   4.767   9.903   8.274
20436WAT      O61549   5.753   0.198   5.720
20436WAT     H161550   5.825   0.131   5.739
20436WAT     H261551   5.683   0.192   5.792
20437WAT      O61552   9.658   3.867   1.008
20437WAT     H161553   9.690   3.878   1.102
20437WAT     H261554   9.672   3.772   0.980
20438WAT      O61555   9.199   1.791   3.738
20438WAT     H161556   9.219   1.720   3.806
20438WAT     H261557   9.116   1.767   3.688
20439WAT      O61558   1.263   3.670   3.873
20439WAT     H161559   1.292   3.666   3.969
20439WAT     H261560   1.259   3.765   3.844
20440WAT      O61561   1.299   7.859   1.022
20440WAT     H161562   1.229   7.790   1.007
20440WAT     H261563   1.336   7.850   1.114
20441WAT      O61564   5.190   7.476   6.978
20441WAT     H161565   5.269   7.416   6.989
20441WAT     H261566   5.177   7.498   6.882
20442WAT      O61567   7.605   3.214   1.210
20442WAT     H161568   7.614   3.114   1.200
20442WAT     H261569   7.582   3.254   1.122
20443WAT      O61570   6.602   2.971   1.304
20443WAT     H161571   6.542   2.970   1.384
20443WAT     H261572   6.546   2.985   1.221
20444WAT      O61573   5.920   5.684   8.445
20444WAT     H161574   5.897   5.606   8.504
20444WAT     H261575   5.839   5.712   8.393
20445WAT      O61576   0.194   7.851   7.538
20445WAT     H161577   0.284   7.894   7.532
20445WAT     H261578   0.202   7.754   7.515
20446WAT      O61579   6.071   4.351   9.194
20446WAT     H161580   6.039   4.444   9.176
20446WAT     H261581   6.089   4.339   9.291
20447WAT      O61582   5.019   1.790   1.285
20447WAT     H161583   5.051   1.857   1.218
20447WAT     H261584   4.920   1.798   1.295
20448WAT      O61585   3.032   4.718   6.926
20448WAT     H161586   2.973   4.761   6.995
20448WAT     H261587   3.123   4.761   6.928
20449WAT      O61588   4.791   4.178   9.765
20449WAT     H161589   4.813   4.202   9.671
20449WAT     H261590   4.828   4.087   9.785
20450WAT      O61591   2.792   4.849   2.457
20450WAT     H161592   2.763   4.833   2.362
20450WAT     H261593   2.711   4.864   2.514
20451WAT      O61594   8.743   3.077   6.857
20451WAT     H161595   8.652   3.058   6.895
20451WAT     H261596   8.740   3.066   6.757
20452WAT      O61597   3.071   4.706   0.274
20452WAT     H161598   3.145   4.736   0.215
20452WAT     H261599   3.007   4.650   0.222
20453WAT      O61600   6.212   0.364   2.414
20453WAT     H161601   6.179   0.292   2.353
20453WAT     H261602   6.201   0.453   2.369
20454WAT      O61603   4.517   2.149   1.019
20454WAT     H161604   4.488   2.066   1.066
20454WAT     H261605   4.524   2.132   0.920
20455WAT      O61606   4.085   2.514   2.332
20455WAT     H161607   4.096   2.534   2.430
20455WAT     H261608   4.174   2.493   2.292
20456WAT      O61609   5.098   4.585   9.582
20456WAT     H161610   5.190   4.609   9.613
20456WAT     H261611   5.039   4.568   9.661
20457WAT      O61612   2.156   2.215   2.679
20457WAT     H161613   2.225   2.170   2.736
20457WAT     H261614   2.106   2.282   2.734
20458WAT      O61615   4.706   4.031   8.611
20458WAT     H161616   4.717   4.108   8.673
20458WAT     H261617   4.622   3.982   8.633
20459WAT      O61618   2.006   3.636   8.534
20459WAT     H161619   1.940   3.696   8.580
20459WAT     H261620   2.038   3.679   8.450
20460WAT      O61621   3.387   2.487   1.971
20460WAT     H161622   3.320   2.439   2.029
20460WAT     H261623   3.437   2.553   2.026
20461WAT      O61624   3.491   8.368   6.613
20461WAT     H161625   3.544   8.443   6.654
20461WAT     H261626   3.503   8.369   6.514
20462WAT      O61627   6.996   8.106   3.383
20462WAT     H161628   6.965   8.110   3.478
20462WAT     H261629   7.026   8.013   3.362
20463WAT      O61630   8.523   5.735   6.181
20463WAT     H161631   8.450   5.799   6.207
20463WAT     H261632   8.484   5.645   6.165
20464WAT      O61633   6.240   3.694   1.686
20464WAT     H161634   6.145   3.670   1.662
20464WAT     H261635   6.240   3.776   1.744
20465WAT      O61636   6.549   7.299   7.424
20465WAT     H161637   6.508   7.236   7.358
20465WAT     H261638   6.551   7.391   7.386
20466WAT      O61639   2.200   4.697   6.333
20466WAT     H161640   2.113   4.659   6.365
20466WAT     H261641   2.184   4.755   6.254
20467WAT      O61642   6.773   9.345   2.059
20467WAT     H161643   6.772   9.343   2.159
20467WAT     H261644   6.865   9.324   2.026
20468WAT      O61645   8.582   3.074   7.790
20468WAT     H161646   8.648   3.119   7.729
20468WAT     H261647   8.630   3.036   7.869
20469WAT      O61648   9.443   1.500   9.713
20469WAT     H161649   9.501   1.418   9.722
20469WAT     H261650   9.383   1.490   9.633
20470WAT      O61651   3.979   8.413   3.273
20470WAT     H161652   4.037   8.342   3.232
20470WAT     H261653   4.003   8.424   3.370
20471WAT      O61654   5.935   8.156   2.379
20471WAT     H161655   5.994   8.236   2.395
20471WAT     H261656   5.928   8.139   2.281
20472WAT      O61657   5.037   6.868   9.696
20472WAT     H161658   5.043   6.780   9.743
20472WAT     H261659   4.948   6.875   9.650
20473WAT      O61660   5.113   9.301   1.817
20473WAT     H161661   5.020   9.327   1.790
20473WAT     H261662   5.177   9.323   1.744
20474WAT      O61663   6.806   2.528   4.215
20474WAT     H161664   6.784   2.431   4.225
20474WAT     H261665   6.726   2.578   4.182
20475WAT      O61666   2.769   9.201   8.225
20475WAT     H161667   2.833   9.270   8.191
20475WAT     H261668   2.680   9.244   8.240
20476WAT      O61669   2.207   8.174   5.761
20476WAT     H161670   2.254   8.259   5.782
20476WAT     H261671   2.129   8.192   5.702
20477WAT      O61672   7.203   7.244   0.644
20477WAT     H161673   7.123   7.252   0.703
20477WAT     H261674   7.216   7.330   0.594
20478WAT      O61675   1.446   5.867   7.698
20478WAT     H161676   1.494   5.800   7.755
20478WAT     H261677   1.507   5.899   7.626
20479WAT      O61678   5.699   7.188   9.757
20479WAT     H161679   5.617   7.134   9.778
20479WAT     H261680   5.674   7.264   9.697
20480WAT      O61681   7.874   1.016   5.970
20480WAT     H161682   7.937   1.076   6.020
20480WAT     H261683   7.791   1.066   5.947
20481WAT      O61684   9.203   4.827   3.054
20481WAT     H161685   9.114   4.863   3.081
20481WAT     H261686   9.233   4.874   2.970
20482WAT      O61687   1.479   2.115   2.847
20482WAT     H161688   1.495   2.138   2.751
20482WAT     H261689   1.499   2.195   2.904
20483WAT      O61690   2.421   6.604   1.908
20483WAT     H161691   2.380   6.568   1.824
20483WAT     H261692   2.460   6.530   1.962
20484WAT      O61693   0.612   8.944   2.063
20484WAT     H161694   0.593   8.916   1.968
20484WAT     H261695   0.670   8.876   2.107
20485WAT      O61696   8.717   5.260   1.857
20485WAT     H161697   8.643   5.197   1.882
20485WAT     H261698   8.802   5.228   1.898
20486WAT      O61699   3.581   3.052   2.148
20486WAT     H161700   3.526   3.078   2.227
20486WAT     H261701   3.523   3.049   2.066
20487WAT      O61702   4.705   0.173   3.791
20487WAT     H161703   4.766   0.175   3.712
20487WAT     H261704   4.756   0.138   3.870
20488WAT      O61705   7.088   5.613   5.122
20488WAT     H161706   7.165   5.669   5.153
20488WAT     H261707   7.006   5.671   5.112
20489WAT      O61708   8.973   3.258   8.326
20489WAT     H161709   9.023   3.190   8.272
20489WAT     H261710   8.897   3.213   8.374
20490WAT      O61711   4.838   4.557   5.951
20490WAT     H161712   4.846   4.604   6.039
20490WAT     H261713   4.772   4.482   5.959
20491WAT      O61714   8.243   2.370   5.860
20491WAT     H161715   8.173   2.432   5.824
20491WAT     H261716   8.248   2.379   5.959
20492WAT      O61717   7.189   4.600   0.107
20492WAT     H161718   7.229   4.555   0.187
20492WAT     H261719   7.196   4.700   0.118
20493WAT      O61720   3.626   5.066   8.318
20493WAT     H161721   3.581   5.015   8.393
20493WAT     H261722   3.611   5.164   8.332
20494WAT      O61723   8.382   0.921   6.295
20494WAT     H161724   8.402   0.936   6.392
20494WAT     H261725   8.387   1.008   6.246
20495WAT      O61726   2.963   8.725   1.394
20495WAT     H161727   2.997   8.691   1.481
20495WAT     H261728   2.921   8.650   1.342
20496WAT      O61729   3.800   1.531   1.730
20496WAT     H161730   3.895   1.557   1.745
20496WAT     H261731   3.791   1.488   1.640
20497WAT      O61732   2.538   1.897   7.891
20497WAT     H161733   2.555   1.991   7.863
20497WAT     H261734   2.619   1.841   7.871
20498WAT      O61735   2.145   3.925   8.418
20498WAT     H161736   2.158   3.918   8.319
20498WAT     H261737   2.218   3.875   8.464
20499WAT      O61738   9.020   4.298   9.421
20499WAT     H161739   9.041   4.373   9.358
20499WAT     H261740   8.924   4.272   9.409
20500WAT      O61741   9.296   0.880   1.384
20500WAT     H161742   9.231   0.907   1.314
20500WAT     H261743   9.346   0.960   1.417
20501WAT      O61744   9.850   6.224   5.260
20501WAT     H161745   9.810   6.288   5.194
20501WAT     H261746   9.853   6.267   5.350
20502WAT      O61747   0.473   4.939   2.845
20502WAT     H161748   0.378   4.907   2.836
20502WAT     H261749   0.492   5.005   2.772
20503WAT      O61750   4.415   8.125   0.799
20503WAT     H161751   4.397   8.061   0.725
20503WAT     H261752   4.510   8.116   0.830
20504WAT      O61753   1.766   0.872   4.439
20504WAT     H161754   1.672   0.844   4.458
20504WAT     H261755   1.765   0.948   4.374
20505WAT      O61756   9.503   5.227   4.008
20505WAT     H161757   9.551   5.166   3.946
20505WAT     H261758   9.439   5.284   3.955
20506WAT      O61759   5.528   0.279   4.785
20506WAT     H161760   5.610   0.223   4.787
20506WAT     H261761   5.477   0.267   4.870
20507WAT      O61762   8.366   4.158   8.177
20507WAT     H161763   8.368   4.254   8.202
20507WAT     H261764   8.276   4.135   8.140
20508WAT      O61765   6.982   3.781   2.920
20508WAT     H161766   6.932   3.733   2.848
20508WAT     H261767   6.991   3.722   3.000
20509WAT      O61768   3.634   5.269   9.500
20509WAT     H161769   3.622   5.267   9.401
20509WAT     H261770   3.708   5.207   9.526
20510WAT      O61771   1.316   7.983   2.362
20510WAT     H161772   1.307   7.921   2.284
20510WAT     H261773   1.260   7.949   2.438
20511WAT      O61774   2.794   5.792   0.098
20511WAT     H161775   2.763   5.737   0.021
20511WAT     H261776   2.716   5.814   0.157
20512WAT      O61777   6.461   9.540   0.771
20512WAT     H161778   6.385   9.513   0.711
20512WAT     H261779   6.450   9.497   0.860
20513WAT      O61780   0.663   7.673   6.066
20513WAT     H161781   0.716   7.613   6.127
20513WAT     H261782   0.725   7.729   6.012
20514WAT      O61783   9.723   0.975   9.552
20514WAT     H161784   9.666   0.913   9.605
20514WAT     H261785   9.818   0.941   9.553
20515WAT      O61786   0.599   6.669   1.339
20515WAT     H161787   0.573   6.642   1.246
20515WAT     H261788   0.699   6.661   1.348
20516WAT      O61789   8.463   5.187   6.785
20516WAT     H161790   8.482   5.226   6.875
20516WAT     H261791   8.549   5.171   6.737
20517WAT      O61792   5.882   7.228   5.883
20517WAT     H161793   5.963   7.250   5.829
20517WAT     H261794   5.801   7.269   5.841
20518WAT      O61795   3.263   7.803   9.286
20518WAT     H161796   3.325   7.804   9.207
20518WAT     H261797   3.186   7.744   9.267
20519WAT      O61798   0.555   8.636   7.718
20519WAT     H161799   0.455   8.637   7.727
20519WAT     H261800   0.585   8.721   7.674
20520WAT      O61801   0.933   1.325   6.039
20520WAT     H161802   0.978   1.410   6.065
20520WAT     H261803   1.001   1.256   6.016
20521WAT      O61804   9.798   7.471   8.472
20521WAT     H161805   9.763   7.430   8.556
20521WAT     H261806   9.843   7.558   8.494
20522WAT      O61807   3.197   7.706   3.148
20522WAT     H161808   3.256   7.785   3.133
20522WAT     H261809   3.101   7.736   3.149
20523WAT      O61810   4.375   0.787   9.151
20523WAT     H161811   4.278   0.807   9.143
20523WAT     H261812   4.401   0.722   9.080
20524WAT      O61813   7.497   1.381   9.185
20524WAT     H161814   7.431   1.309   9.206
20524WAT     H261815   7.572   1.343   9.131
20525WAT      O61816   2.472   6.922   2.900
20525WAT     H161817   2.446   6.959   2.811
20525WAT     H261818   2.417   6.841   2.920
20526WAT      O61819   2.963   0.279   6.950
20526WAT     H161820   2.885   0.277   6.887
20526WAT     H261821   3.027   0.351   6.922
20527WAT      O61822   7.744   3.719   4.307
20527WAT     H161823   7.800   3.673   4.375
20527WAT     H261824   7.672   3.772   4.353
20528WAT      O61825   1.197   0.879   1.584
20528WAT     H161826   1.162   0.814   1.652
20528WAT     H261827   1.184   0.841   1.492
20529WAT      O61828   2.756   2.016   1.209
20529WAT     H161829   2.718   1.970   1.129
20529WAT     H261830   2.854   2.029   1.196
20530WAT      O61831   5.690   5.710   6.446
20530WAT     H161832   5.787   5.705   6.424
20530WAT     H261833   5.649   5.619   6.434
20531WAT      O61834   6.131   6.463   6.981
20531WAT     H161835   6.120   6.509   7.069
20531WAT     H261836   6.118   6.529   6.907
20532WAT      O61837   8.390   3.835   2.466
20532WAT     H161838   8.404   3.933   2.454
20532WAT     H261839   8.361   3.817   2.560
20533WAT      O61840   0.506   5.140   4.761
20533WAT     H161841   0.491   5.062   4.821
20533WAT     H261842   0.539   5.107   4.672
20534WAT      O61843   5.323   6.842   4.167
20534WAT     H161844   5.224   6.828   4.158
20534WAT     H261845   5.369   6.754   4.169
20535WAT      O61846   2.495   0.515   7.591
20535WAT     H161847   2.534   0.607   7.597
20535WAT     H261848   2.522   0.474   7.504
20536WAT      O61849   6.819   0.492   6.116
20536WAT     H161850   6.850   0.507   6.023
20536WAT     H261851   6.730   0.446   6.115
20537WAT      O61852   3.660   0.971   4.677
20537WAT     H161853   3.697   1.018   4.758
20537WAT     H261854   3.731   0.964   4.607
20538WAT      O61855   8.397   9.009   6.944
20538WAT     H161856   8.474   9.069   6.967
20538WAT     H261857   8.395   8.995   6.845
20539WAT      O61858   9.191   0.190   9.013
20539WAT     H161859   9.279   0.184   8.966
20539WAT     H261860   9.126   0.241   8.956
20540WAT      O61861   3.716   7.784   4.960
20540WAT     H161862   3.664   7.783   5.045
20540WAT     H261863   3.762   7.872   4.949
20541WAT      O61864   5.008   3.138   1.458
20541WAT     H161865   4.964   3.228   1.453
20541WAT     H261866   4.963   3.083   1.528
20542WAT      O61867   0.162   4.430   3.069
20542WAT     H161868   0.207   4.519   3.067
20542WAT     H261869   0.063   4.443   3.068
20543WAT      O61870   5.824   3.048   5.623
20543WAT     H161871   5.736   3.094   5.637
20543WAT     H261872   5.850   3.000   5.707
20544WAT      O61873   3.077   8.446   2.280
20544WAT     H161874   3.126   8.359   2.286
20544WAT     H261875   3.122   8.513   2.338
20545WAT      O61876   9.684   6.973   9.657
20545WAT     H161877   9.668   7.004   9.750
20545WAT     H261878   9.754   7.031   9.614
20546WAT      O61879   6.576   1.671   4.410
20546WAT     H161880   6.661   1.621   4.390
20546WAT     H261881   6.584   1.765   4.375
20547WAT      O61882   4.910   3.777   3.234
20547WAT     H161883   4.855   3.697   3.209
20547WAT     H261884   4.856   3.837   3.293
20548WAT      O61885   2.312   2.841   4.138
20548WAT     H161886   2.324   2.881   4.048
20548WAT     H261887   2.271   2.908   4.200
20549WAT      O61888   7.719   1.405   7.105
20549WAT     H161889   7.788   1.333   7.101
20549WAT     H261890   7.725   1.461   7.022
20550WAT      O61891   6.546   7.081   5.484
20550WAT     H161892   6.543   7.042   5.392
20550WAT     H261893   6.609   7.028   5.541
20551WAT      O61894   9.883   3.504   6.127
20551WAT     H161895   9.889   3.587   6.072
20551WAT     H261896   9.881   3.528   6.224
20552WAT      O61897   5.011   2.108   8.518
20552WAT     H161898   5.014   2.026   8.460
20552WAT     H261899   5.090   2.166   8.497
20553WAT      O61900   0.689   7.616   2.469
20553WAT     H161901   0.675   7.651   2.562
20553WAT     H261902   0.618   7.549   2.447
20554WAT      O61903   7.078   0.147   3.691
20554WAT     H161904   7.133   0.214   3.641
20554WAT     H261905   7.134   0.068   3.715
20555WAT      O61906   8.123   6.466   4.805
20555WAT     H161907   8.129   6.557   4.844
20555WAT     H261908   8.027   6.440   4.795
20556WAT      O61909   6.257   4.247   8.415
20556WAT     H161910   6.231   4.209   8.326
20556WAT     H261911   6.339   4.303   8.404
20557WAT      O61912   1.201   2.076   6.656
20557WAT     H161913   1.195   1.991   6.709
20557WAT     H261914   1.112   2.096   6.615
20558WAT      O61915   8.884   9.565   8.447
20558WAT     H161916   8.895   9.596   8.542
20558WAT     H261917   8.843   9.474   8.446
20559WAT      O61918   0.618   2.637   6.921
20559WAT     H161919   0.614   2.735   6.904
20559WAT     H261920   0.649   2.620   7.015
20560WAT      O61921   3.384   5.158   7.302
20560WAT     H161922   3.334   5.210   7.232
20560WAT     H261923   3.367   5.060   7.289
20561WAT      O61924   3.461   2.591   6.995
20561WAT     H161925   3.462   2.572   7.093
20561WAT     H261926   3.482   2.687   6.979
20562WAT      O61927   6.321   8.283   4.377
20562WAT     H161928   6.306   8.379   4.355
20562WAT     H261929   6.395   8.275   4.444
20563WAT      O61930   6.995   2.858   0.567
20563WAT     H161931   6.927   2.926   0.595
20563WAT     H261932   7.029   2.809   0.647
20564WAT      O61933   3.674   4.268   7.886
20564WAT     H161934   3.635   4.317   7.808
20564WAT     H261935   3.616   4.189   7.908
20565WAT      O61936   6.158   7.300   3.924
20565WAT     H161937   6.134   7.229   3.990
20565WAT     H261938   6.197   7.379   3.971
20566WAT      O61939   7.185   2.440   7.019
20566WAT     H161940   7.186   2.508   6.946
20566WAT     H261941   7.274   2.437   7.064
20567WAT      O61942   6.059   9.389   1.378
20567WAT     H161943   6.135   9.435   1.330
20567WAT     H261944   6.011   9.329   1.314
20568WAT      O61945   3.974   0.135   6.811
20568WAT     H161946   3.965   0.203   6.739
20568WAT     H261947   3.887   0.087   6.823
20569WAT      O61948   2.128   4.874   3.930
20569WAT     H161949   2.079   4.816   3.865
20569WAT     H261950   2.082   4.872   4.019
20570WAT      O61951   2.123   3.306   0.073
20570WAT     H161952   2.178   3.269  -0.001
20570WAT     H261953   2.037   3.342   0.037
20571WAT      O61954   3.909   8.423   8.000
20571WAT     H161955   3.992   8.399   7.951
20571WAT     H261956   3.858   8.492   7.948
20572WAT      O61957   4.327   4.030   4.964
20572WAT     H161958   4.380   4.111   4.937
20572WAT     H261959   4.288   3.988   4.882
20573WAT      O61960   7.522   8.661   3.273
20573WAT     H161961   7.510   8.651   3.175
20573WAT     H261962   7.540   8.757   3.295
20574WAT      O61963   6.366   8.324   6.814
20574WAT     H161964   6.451   8.274   6.798
20574WAT     H261965   6.295   8.286   6.755
20575WAT      O61966   6.119   1.774   4.726
20575WAT     H161967   6.107   1.847   4.659
20575WAT     H261968   6.087   1.805   4.816
20576WAT      O61969   2.050   0.891   8.334
20576WAT     H161970   2.057   0.989   8.354
20576WAT     H261971   2.072   0.838   8.416
20577WAT      O61972   3.078   6.278   8.190
20577WAT     H161973   3.013   6.231   8.250
20577WAT     H261974   3.128   6.347   8.242
20578WAT      O61975   3.021   4.893   9.781
20578WAT     H161976   3.109   4.851   9.759
20578WAT     H261977   2.996   4.958   9.710
20579WAT      O61978   5.680   2.465   7.986
20579WAT     H161979   5.720   2.523   8.057
20579WAT     H261980   5.581   2.475   7.986
20580WAT      O61981   2.093   7.772   6.434
20580WAT     H161982   2.047   7.768   6.346
20580WAT     H261983   2.092   7.681   6.476
20581WAT      O61984   5.281   4.107   4.910
20581WAT     H161985   5.197   4.159   4.895
20581WAT     H261986   5.334   4.148   4.984
20582WAT      O61987   2.443   6.165   9.775
20582WAT     H161988   2.368   6.104   9.796
20582WAT     H261989   2.518   6.149   9.839
20583WAT      O61990   9.873   4.495   9.132
20583WAT     H161991   9.872   4.424   9.061
20583WAT     H261992   9.800   4.561   9.116
20584WAT      O61993   5.758   0.099   3.636
20584WAT     H161994   5.780   0.035   3.709
20584WAT     H261995   5.803   0.187   3.653
20585WAT      O61996   9.785   3.606   9.261
20585WAT     H161997   9.740   3.530   9.214
20585WAT     H261998   9.723   3.644   9.329
20586WAT      O61999   3.827   6.391   8.783
20586WAT     H162000   3.904   6.454   8.770
20586WAT     H262001   3.828   6.356   8.877
20587WAT      O62002   7.660   6.241   6.723
20587WAT     H162003   7.696   6.333   6.737
20587WAT     H262004   7.731   6.183   6.684
20588WAT      O62005   5.910   3.876   9.720
20588WAT     H162006   5.928   3.819   9.640
20588WAT     H262007   5.813   3.868   9.745
20589WAT      O62008   1.099   3.231   5.557
20589WAT     H162009   1.190   3.207   5.591
20589WAT     H262010   1.030   3.180   5.608
20590WAT      O62011   5.427   0.543   1.539
20590WAT     H162012   5.397   0.476   1.606
20590WAT     H262013   5.352   0.563   1.476
20591WAT      O62014   6.688   0.924   8.291
20591WAT     H162015   6.602   0.873   8.290
20591WAT     H262016   6.671   1.015   8.330
20592WAT      O62017   8.215   8.076   2.073
20592WAT     H162018   8.239   7.988   2.114
20592WAT     H262019   8.131   8.066   2.020
20593WAT      O62020   7.735   8.163   5.606
20593WAT     H162021   7.757   8.067   5.592
20593WAT     H262022   7.759   8.190   5.699
20594WAT      O62023   7.395   1.240   8.826
20594WAT     H162024   7.398   1.340   8.819
20594WAT     H262025   7.446   1.200   8.751
20595WAT      O62026   6.239   6.190   9.431
20595WAT     H162027   6.214   6.258   9.362
20595WAT     H262028   6.261   6.236   9.517
20596WAT      O62029   1.825   8.876   9.256
20596WAT     H162030   1.853   8.918   9.169
20596WAT     H262031   1.836   8.942   9.330
20597WAT      O62032   3.053   5.624   9.317
20597WAT     H162033   3.030   5.720   9.336
20597WAT     H262034   3.007   5.565   9.383
20598WAT      O62035   9.292   7.353   5.138
20598WAT     H162036   9.362   7.398   5.194
20598WAT     H262037   9.274   7.261   5.174
20599WAT      O62038   5.905   0.877   2.687
20599WAT     H162039   6.005   0.880   2.696
20599WAT     H262040   5.863   0.891   2.776
20600WAT      O62041   3.776   8.749   3.959
20600WAT     H162042   3.749   8.829   4.011
20600WAT     H262043   3.865   8.716   3.992
20601WAT      O62044   8.489   6.337   0.352
20601WAT     H162045   8.585   6.337   0.327
20601WAT     H262046   8.465   6.426   0.391
20602WAT      O62047   8.533   7.854   7.401
20602WAT     H162048   8.434   7.868   7.397
20602WAT     H262049   8.572   7.910   7.474
20603WAT      O62050   0.972   7.810   7.808
20603WAT     H162051   0.881   7.770   7.798
20603WAT     H262052   0.993   7.823   7.905
20604WAT      O62053   6.909   8.075   1.000
20604WAT     H162054   6.999   8.084   0.959
20604WAT     H262055   6.847   8.144   0.963
20605WAT      O62056   9.018   3.414   0.665
20605WAT     H162057   9.055   3.327   0.634
20605WAT     H262058   8.980   3.403   0.757
20606WAT      O62059   2.579   9.392   0.841
20606WAT     H162060   2.566   9.375   0.743
20606WAT     H262061   2.596   9.490   0.855
20607WAT      O62062   4.182   3.205   4.632
20607WAT     H162063   4.176   3.221   4.533
20607WAT     H262064   4.128   3.125   4.656
20608WAT      O62065   8.932   0.884   7.037
20608WAT     H162066   8.992   0.965   7.044
20608WAT     H262067   8.890   0.882   6.947
20609WAT      O62068   5.940   5.577   2.888
20609WAT     H162069   5.843   5.601   2.891
20609WAT     H262070   5.952   5.480   2.908
20610WAT      O62071   9.218   8.672   8.406
20610WAT     H162072   9.170   8.598   8.358
20610WAT     H262073   9.219   8.754   8.349
20611WAT      O62074   8.935   3.791   5.718
20611WAT     H162075   8.900   3.857   5.785
20611WAT     H262076   8.865   3.722   5.701
20612WAT      O62077   9.295   7.406   1.931
20612WAT     H162078   9.240   7.459   1.867
20612WAT     H262079   9.237   7.368   2.003
20613WAT      O62080   7.595   6.260   7.290
20613WAT     H162081   7.681   6.295   7.328
20613WAT     H262082   7.613   6.219   7.201
20614WAT      O62083   9.182   5.229   9.822
20614WAT     H162084   9.127   5.246   9.904
20614WAT     H262085   9.279   5.225   9.848
20615WAT      O62086   7.741   3.646   7.327
20615WAT     H162087   7.813   3.671   7.392
20615WAT     H262088   7.749   3.704   7.246
20616WAT      O62089   1.937   8.871   1.499
20616WAT     H162090   1.870   8.803   1.530
20616WAT     H262091   1.918   8.895   1.404
20617WAT      O62092   7.200   0.396   7.809
20617WAT     H162093   7.231   0.489   7.831
20617WAT     H262094   7.129   0.369   7.875
20618WAT      O62095   8.930   2.174   4.627
20618WAT     H162096   9.025   2.143   4.625
20618WAT     H262097   8.894   2.175   4.534
20619WAT      O62098   5.619   1.319   0.574
20619WAT     H162099   5.561   1.325   0.655
20619WAT     H262100   5.563   1.304   0.493
20620WAT      O62101   0.005   9.025   7.601
20620WAT     H162102   0.074   9.072   7.657
20620WAT     H262103   0.048   8.993   7.517
20621WAT      O62104   2.108   6.650   3.266
20621WAT     H162105   2.056   6.735   3.273
20621WAT     H262106   2.077   6.598   3.187
20622WAT      O62107   4.842   9.595   4.959
20622WAT     H162108   4.831   9.505   4.918
20622WAT     H262109   4.939   9.619   4.963
20623WAT      O62110   0.056   7.161   9.279
20623WAT     H162111  -0.040   7.154   9.251
20623WAT     H262112   0.103   7.227   9.221
20624WAT      O62113   8.003   5.492   5.984
20624WAT     H162114   8.101   5.485   5.967
20624WAT     H262115   7.986   5.564   6.051
20625WAT      O62116   1.750   1.610   2.262
20625WAT     H162117   1.750   1.587   2.360
20625WAT     H262118   1.677   1.559   2.216
20626WAT      O62119   8.031   4.901   3.452
20626WAT     H162120   8.019   4.967   3.377
20626WAT     H262121   8.070   4.816   3.416
20627WAT      O62122   7.160   8.255   8.021
20627WAT     H162123   7.221   8.272   8.099
20627WAT     H262124   7.214   8.254   7.937
20628WAT      O62125   0.207   9.504   1.228
20628WAT     H162126   0.217   9.503   1.327
20628WAT     H262127   0.297   9.517   1.185
20629WAT      O62128   4.269   0.249   2.240
20629WAT     H162129   4.237   0.180   2.175
20629WAT     H262130   4.355   0.287   2.207
20630WAT      O62131   3.335   8.087   9.334
20630WAT     H162132   3.299   8.146   9.262
20630WAT     H262133   3.274   8.009   9.348
20631WAT      O62134   4.502   3.013   7.852
20631WAT     H162135   4.523   3.098   7.804
20631WAT     H262136   4.583   2.954   7.851
20632WAT      O62137   6.009   2.559   6.388
20632WAT     H162138   6.036   2.480   6.333
20632WAT     H262139   6.029   2.541   6.484
20633WAT      O62140   9.598   8.428   7.951
20633WAT     H162141   9.525   8.456   7.889
20633WAT     H262142   9.558   8.384   8.032
20634WAT      O62143   7.763   1.589   6.349
20634WAT     H162144   7.743   1.687   6.348
20634WAT     H262145   7.690   1.539   6.302
20635WAT      O62146   6.955   2.005   2.959
20635WAT     H162147   6.970   1.996   2.860
20635WAT     H262148   6.992   2.092   2.990
20636WAT      O62149   5.078   2.675   8.215
20636WAT     H162150   4.998   2.731   8.235
20636WAT     H262151   5.161   2.729   8.227
20637WAT      O62152   7.083   0.128   4.924
20637WAT     H162153   7.164   0.184   4.944
20637WAT     H262154   7.104   0.064   4.850
20638WAT      O62155   6.115   5.288   6.461
20638WAT     H162156   6.159   5.375   6.439
20638WAT     H262157   6.021   5.289   6.427
20639WAT      O62158   9.777   3.855   8.260
20639WAT     H162159   9.802   3.772   8.211
20639WAT     H262160   9.847   3.925   8.246
20640WAT      O62161   9.611   7.380   2.768
20640WAT     H162162   9.564   7.335   2.693
20640WAT     H262163   9.684   7.438   2.732
20641WAT      O62164   3.530   8.302   8.130
20641WAT     H162165   3.528   8.359   8.211
20641WAT     H262166   3.607   8.238   8.136
20642WAT      O62167   5.338   1.259   7.825
20642WAT     H162168   5.364   1.270   7.921
20642WAT     H262169   5.389   1.183   7.785
20643WAT      O62170   0.063   5.410   2.355
20643WAT     H162171  -0.007   5.479   2.339
20643WAT     H262172   0.151   5.455   2.371
20644WAT      O62173   4.740   2.691   8.027
20644WAT     H162174   4.794   2.611   8.000
20644WAT     H262175   4.644   2.664   8.036
20645WAT      O62176   6.801   9.070   7.977
20645WAT     H162177   6.761   9.019   8.052
20645WAT     H262178   6.832   9.007   7.906
20646WAT      O62179   3.802   4.729   8.715
20646WAT     H162180   3.778   4.679   8.632
20646WAT     H262181   3.751   4.815   8.718
20647WAT      O62182   2.845   7.561   9.423
20647WAT     H162183   2.798   7.487   9.374
20647WAT     H262184   2.779   7.633   9.443
20648WAT      O62185   1.256   7.561   8.853
20648WAT     H162186   1.323   7.559   8.927
20648WAT     H262187   1.201   7.477   8.855
20649WAT      O62188   8.978   7.089   5.294
20649WAT     H162189   8.945   7.025   5.363
20649WAT     H262190   8.907   7.157   5.274
20650WAT      O62191   7.624   8.235   0.918
20650WAT     H162192   7.694   8.170   0.889
20650WAT     H262193   7.572   8.266   0.838
20651WAT      O62194   5.439   0.336   8.470
20651WAT     H162195   5.399   0.384   8.548
20651WAT     H262196   5.537   0.322   8.487
20652WAT      O62197   4.093   1.794   8.824
20652WAT     H162198   4.007   1.746   8.841
20652WAT     H262199   4.110   1.858   8.899
20653WAT      O62200   4.039   6.974   1.812
20653WAT     H162201   4.129   6.931   1.820
20653WAT     H262202   4.036   7.030   1.729
20654WAT      O62203   6.106   2.758   2.944
20654WAT     H162204   6.033   2.767   3.012
20654WAT     H262205   6.190   2.799   2.980
20655WAT      O62206   9.399   9.144   3.260
20655WAT     H162207   9.441   9.219   3.311
20655WAT     H262208   9.439   9.139   3.169
20656WAT      O62209   6.430   9.030   0.740
20656WAT     H162210   6.359   9.051   0.673
20656WAT     H262211   6.518   9.022   0.694
20657WAT      O62212   0.975   3.802   0.454
20657WAT     H162213   0.886   3.838   0.424
20657WAT     H262214   1.008   3.737   0.386
20658WAT      O62215   4.773   7.806   3.217
20658WAT     H162216   4.868   7.825   3.240
20658WAT     H262217   4.736   7.740   3.282
20659WAT      O62218   2.048   7.461   1.193
20659WAT     H162219   2.024   7.399   1.118
20659WAT     H262220   2.137   7.504   1.174
20660WAT      O62221   0.188   9.662   4.241
20660WAT     H162222   0.174   9.761   4.240
20660WAT     H262223   0.122   9.618   4.180
20661WAT      O62224   7.402   6.591   6.786
20661WAT     H162225   7.336   6.635   6.847
20661WAT     H262226   7.392   6.492   6.792
20662WAT      O62227   7.494   3.777   7.430
20662WAT     H162228   7.502   3.854   7.367
20662WAT     H262229   7.580   3.726   7.430
20663WAT      O62230   0.008   4.925   5.660
20663WAT     H162231   0.042   4.864   5.588
20663WAT     H262232   0.070   4.921   5.739
20664WAT      O62233   6.099   9.765   4.235
20664WAT     H162234   6.141   9.698   4.296
20664WAT     H262235   5.999   9.754   4.238
20665WAT      O62236   1.756   8.904   7.825
20665WAT     H162237   1.664   8.900   7.785
20665WAT     H262238   1.817   8.953   7.763
20666WAT      O62239   1.811   2.830   4.850
20666WAT     H162240   1.729   2.882   4.874
20666WAT     H262241   1.806   2.739   4.892
20667WAT      O62242   8.655   1.029   5.793
20667WAT     H162243   8.635   1.095   5.865
20667WAT     H262244   8.609   0.943   5.813
20668WAT      O62245   8.343   0.588   8.913
20668WAT     H162246   8.305   0.502   8.948
20668WAT     H262247   8.293   0.665   8.954
20669WAT      O62248   4.917   8.333   6.259
20669WAT     H162249   4.899   8.421   6.303
20669WAT     H262250   4.878   8.259   6.314
20670WAT      O62251   8.726   6.484   0.886
20670WAT     H162252   8.740   6.396   0.931
20670WAT     H262253   8.628   6.504   0.882
20671WAT      O62254   5.730   4.440   9.059
20671WAT     H162255   5.775   4.431   8.970
20671WAT     H262256   5.719   4.349   9.100
20672WAT      O62257   4.189   0.606   7.271
20672WAT     H162258   4.239   0.676   7.323
20672WAT     H262259   4.248   0.527   7.256
20673WAT      O62260   7.208   6.071   1.153
20673WAT     H162261   7.230   5.978   1.182
20673WAT     H262262   7.212   6.132   1.232
20674WAT      O62263   1.630   6.000   3.380
20674WAT     H162264   1.729   6.007   3.374
20674WAT     H262265   1.601   5.907   3.357
20675WAT      O62266   1.134   2.072   3.272
20675WAT     H162267   1.132   2.172   3.274
20675WAT     H262268   1.091   2.036   3.354
20676WAT      O62269   3.825   7.526   7.310
20676WAT     H162270   3.919   7.542   7.342
20676WAT     H262271   3.820   7.546   7.212
20677WAT      O62272   8.496   5.396   5.060
20677WAT     H162273   8.512   5.459   5.136
20677WAT     H262274   8.471   5.306   5.095
20678WAT      O62275   7.978   7.061   4.152
20678WAT     H162276   7.986   7.041   4.054
20678WAT     H262277   7.976   6.976   4.204
20679WAT      O62278   1.355   6.187   4.555
20679WAT     H162279   1.286   6.116   4.540
20679WAT     H262280   1.317   6.261   4.610
20680WAT      O62281   5.966   5.543   8.135
20680WAT     H162282   5.970   5.571   8.039
20680WAT     H262283   5.916   5.612   8.188
20681WAT      O62284   1.454   3.855   5.136
20681WAT     H162285   1.365   3.819   5.165
20681WAT     H262286   1.523   3.832   5.205
20682WAT      O62287   8.857   8.743   8.129
20682WAT     H162288   8.914   8.676   8.080
20682WAT     H262289   8.810   8.697   8.204
20683WAT      O62290   0.651   5.928   9.087
20683WAT     H162291   0.710   5.919   9.168
20683WAT     H262292   0.656   5.844   9.033
20684WAT      O62293   6.308   0.452   0.211
20684WAT     H162294   6.403   0.483   0.210
20684WAT     H262295   6.270   0.463   0.303
20685WAT      O62296   2.413   8.698   5.924
20685WAT     H162297   2.468   8.615   5.939
20685WAT     H262298   2.340   8.703   5.992
20686WAT      O62299   6.898   7.098   8.947
20686WAT     H162300   6.831   7.070   8.878
20686WAT     H262301   6.989   7.067   8.920
20687WAT      O62302   0.640   5.245   6.397
20687WAT     H162303   0.581   5.172   6.430
20687WAT     H262304   0.661   5.230   6.300
20688WAT      O62305   5.418   8.780   3.163
20688WAT     H162306   5.344   8.808   3.102
20688WAT     H262307   5.506   8.797   3.118
20689WAT      O62308   2.170   8.824   3.089
20689WAT     H162309   2.165   8.778   3.000
20689WAT     H262310   2.202   8.759   3.158
20690WAT      O62311   0.221   3.120   2.060
20690WAT     H162312   0.249   3.175   2.139
20690WAT     H262313   0.161   3.174   2.001
20691WAT      O62314   5.753   5.394   3.978
20691WAT     H162315   5.664   5.405   3.935
20691WAT     H262316   5.750   5.428   4.072
20692WAT      O62317   5.263   6.155   6.753
20692WAT     H162318   5.298   6.118   6.840
20692WAT     H262319   5.163   6.149   6.753
20693WAT      O62320   6.470   6.381   4.712
20693WAT     H162321   6.538   6.418   4.648
20693WAT     H262322   6.413   6.456   4.746
20694WAT      O62323   4.289   6.261   7.532
20694WAT     H162324   4.280   6.168   7.568
20694WAT     H262325   4.362   6.309   7.582
20695WAT      O62326   6.469   8.977   2.497
20695WAT     H162327   6.437   8.891   2.538
20695WAT     H262328   6.479   9.046   2.569
20696WAT      O62329   6.619   0.856   8.631
20696WAT     H162330   6.528   0.816   8.643
20696WAT     H262331   6.633   0.928   8.698
20697WAT      O62332   8.575   0.162   9.515
20697WAT     H162333   8.643   0.165   9.441
20697WAT     H262334   8.619   0.127   9.598
20698WAT      O62335   1.554   3.881   8.600
20698WAT     H162336   1.554   3.831   8.513
20698WAT     H262337   1.549   3.979   8.582
20699WAT      O62338   1.161   6.893   5.225
20699WAT     H162339   1.157   6.902   5.126
20699WAT     H262340   1.185   6.982   5.265
20700WAT      O62341   0.283   3.443   0.593
20700WAT     H162342   0.219   3.441   0.516
20700WAT     H262343   0.326   3.354   0.604
20701WAT      O62344   4.672   4.345   5.960
20701WAT     H162345   4.610   4.367   6.036
20701WAT     H262346   4.723   4.262   5.982
20702WAT      O62347   2.699   0.846   0.766
20702WAT     H162348   2.759   0.813   0.693
20702WAT     H262349   2.604   0.837   0.737
20703WAT      O62350   9.435   3.422   2.306
20703WAT     H162351   9.483   3.506   2.331
20703WAT     H262352   9.473   3.345   2.358
20704WAT      O62353   1.202   0.085   9.216
20704WAT     H162354   1.232   0.003   9.265
20704WAT     H262355   1.105   0.077   9.193
20705WAT      O62356   8.516   5.107   9.821
20705WAT     H162357   8.604   5.156   9.828
20705WAT     H262358   8.496   5.089   9.725
20706WAT      O62359   2.119   3.308   3.751
20706WAT     H162360   2.215   3.326   3.771
20706WAT     H262361   2.062   3.373   3.801
20707WAT      O62362   6.246   2.789   9.357
20707WAT     H162363   6.170   2.798   9.421
20707WAT     H262364   6.211   2.797   9.263
20708WAT      O62365   8.219   3.922   5.071
20708WAT     H162366   8.223   4.009   5.120
20708WAT     H262367   8.152   3.862   5.114
20709WAT      O62368   5.533   9.013   6.065
20709WAT     H162369   5.494   9.077   6.131
20709WAT     H262370   5.497   9.033   5.974
20710WAT      O62371   4.089   2.232   0.841
20710WAT     H162372   4.080   2.326   0.805
20710WAT     H262373   4.082   2.234   0.940
20711WAT      O62374   7.592   0.069   3.606
20711WAT     H162375   7.513   0.130   3.599
20711WAT     H262376   7.568  -0.021   3.568
20712WAT      O62377   7.632   7.440   9.703
20712WAT     H162378   7.676   7.364   9.655
20712WAT     H262379   7.542   7.412   9.736
20713WAT      O62380   4.232   0.346   5.984
20713WAT     H162381   4.212   0.293   6.066
20713WAT     H262382   4.171   0.426   5.979
20714WAT      O62383   9.810   5.599   5.328
20714WAT     H162384   9.816   5.503   5.300
20714WAT     H262385   9.743   5.608   5.401
20715WAT      O62386   9.724   9.363   8.066
20715WAT     H162387   9.812   9.377   8.021
20715WAT     H262388   9.738   9.319   8.155
20716WAT      O62389   2.656   1.515   3.674
20716WAT     H162390   2.611   1.527   3.763
20716WAT     H262391   2.593   1.543   3.601
20717WAT      O62392   2.645   6.526   1.524
20717WAT     H162393   2.563   6.515   1.468
20717WAT     H262394   2.646   6.455   1.595
20718WAT      O62395   9.264   5.540   7.498
20718WAT     H162396   9.316   5.537   7.583
20718WAT     H262397   9.234   5.634   7.481
20719WAT      O62398   0.338   4.057   6.431
20719WAT     H162399   0.274   3.991   6.391
20719WAT     H262400   0.401   4.089   6.361
20720WAT      O62401   3.946   0.080   2.057
20720WAT     H162402   3.846   0.073   2.050
20720WAT     H262403   3.976   0.048   2.146
20721WAT      O62404   5.732   8.361   2.075
20721WAT     H162405   5.689   8.286   2.126
20721WAT     H262406   5.669   8.395   2.006
20722WAT      O62407   1.704   7.531   4.737
20722WAT     H162408   1.680   7.435   4.722
20722WAT     H262409   1.621   7.587   4.737
20723WAT      O62410   4.413   1.709   3.119
20723WAT     H162411   4.373   1.646   3.053
20723WAT     H262412   4.423   1.800   3.078
20724WAT      O62413   9.225   7.837   9.174
20724WAT     H162414   9.175   7.845   9.087
20724WAT     H262415   9.206   7.917   9.230
20725WAT      O62416   8.167   9.095   1.497
20725WAT     H162417   8.210   9.031   1.560
20725WAT     H262418   8.124   9.044   1.422
20726WAT      O62419   2.127   3.430   4.850
20726WAT     H162420   2.034   3.414   4.884
20726WAT     H262421   2.140   3.527   4.831
20727WAT      O62422   5.839   7.447   0.232
20727WAT     H162423   5.780   7.377   0.194
20727WAT     H262424   5.783   7.522   0.268
20728WAT      O62425   2.734   4.979   3.847
20728WAT     H162426   2.764   4.889   3.815
20728WAT     H262427   2.763   4.993   3.941
20729WAT      O62428   3.407   6.399   4.391
20729WAT     H162429   3.440   6.309   4.361
20729WAT     H262430   3.307   6.401   4.389
20730WAT      O62431   1.962   9.055   1.889
20730WAT     H162432   2.045   8.998   1.885
20730WAT     H262433   1.889   9.005   1.935
20731WAT      O62434   0.800   8.111   5.270
20731WAT     H162435   0.705   8.080   5.266
20731WAT     H262436   0.853   8.051   5.329
20732WAT      O62437   2.567   9.804   2.608
20732WAT     H162438   2.532   9.783   2.700
20732WAT     H262439   2.490   9.815   2.545
20733WAT      O62440   6.756   3.661   9.769
20733WAT     H162441   6.789   3.575   9.809
20733WAT     H262442   6.719   3.719   9.842
20734WAT      O62443   6.403   7.839   6.388
20734WAT     H162444   6.317   7.890   6.388
20734WAT     H262445   6.451   7.854   6.475
20735WAT      O62446   5.925   5.515   5.249
20735WAT     H162447   5.887   5.546   5.162
20735WAT     H262448   5.937   5.594   5.310
20736WAT      O62449   7.386   3.895   6.318
20736WAT     H162450   7.330   3.843   6.383
20736WAT     H262451   7.483   3.882   6.340
20737WAT      O62452   8.273   3.707   8.731
20737WAT     H162453   8.369   3.726   8.751
20737WAT     H262454   8.264   3.672   8.638
20738WAT      O62455   3.224   4.905   1.010
20738WAT     H162456   3.203   4.835   1.079
20738WAT     H262457   3.142   4.923   0.956
20739WAT      O62458   1.583   0.641   9.506
20739WAT     H162459   1.673   0.683   9.506
20739WAT     H262460   1.546   0.641   9.599
20740WAT      O62461   4.375   3.021   3.053
20740WAT     H162462   4.416   2.959   2.986
20740WAT     H262463   4.359   3.110   3.010
20741WAT      O62464   1.176   5.032   8.938
20741WAT     H162465   1.090   4.988   8.964
20741WAT     H262466   1.157   5.118   8.890
20742WAT      O62467   8.216   6.299   0.372
20742WAT     H162468   8.142   6.360   0.343
20742WAT     H262469   8.304   6.345   0.361
20743WAT      O62470   8.052   0.173   1.520
20743WAT     H162471   8.127   0.194   1.456
20743WAT     H262472   8.021   0.258   1.562
20744WAT      O62473   2.386   1.386   3.093
20744WAT     H162474   2.351   1.418   3.005
20744WAT     H262475   2.315   1.332   3.140
20745WAT      O62476   4.127   5.880   4.572
20745WAT     H162477   4.084   5.790   4.574
20745WAT     H262478   4.068   5.947   4.618
20746WAT      O62479   6.855   5.266   0.088
20746WAT     H162480   6.822   5.281   0.181
20746WAT     H262481   6.948   5.228   0.092
20747WAT      O62482   0.412   1.017   5.269
20747WAT     H162483   0.430   0.926   5.305
20747WAT     H262484   0.475   1.037   5.195
20748WAT      O62485   8.772   5.071   6.959
20748WAT     H162486   8.737   5.041   6.870
20748WAT     H262487   8.706   5.133   7.001
20749WAT      O62488   8.666   7.477   9.153
20749WAT     H162489   8.591   7.538   9.179
20749WAT     H262490   8.716   7.517   9.077
20750WAT      O62491   2.254   4.403   3.871
20750WAT     H162492   2.179   4.338   3.878
20750WAT     H262493   2.282   4.431   3.963
20751WAT      O62494   3.630   8.691   8.438
20751WAT     H162495   3.620   8.788   8.419
20751WAT     H262496   3.664   8.645   8.356
20752WAT      O62497   8.944   7.601   5.783
20752WAT     H162498   8.857   7.639   5.751
20752WAT     H262499   8.936   7.501   5.789
20753WAT      O62500   1.535   4.083   7.020
20753WAT     H162501   1.574   4.016   7.084
20753WAT     H262502   1.435   4.077   7.024
20754WAT      O62503   8.278   3.235   7.524
20754WAT     H162504   8.255   3.138   7.533
20754WAT     H262505   8.366   3.252   7.570
20755WAT      O62506   6.022   2.821   0.017
20755WAT     H162507   6.110   2.820   0.064
20755WAT     H262508   5.954   2.866   0.074
20756WAT      O62509   4.939   0.179   4.752
20756WAT     H162510   4.897   0.184   4.843
20756WAT     H262511   4.880   0.226   4.686
20757WAT      O62512   4.877   0.085   4.039
20757WAT     H162513   4.882   0.173   4.086
20757WAT     H262514   4.969   0.057   4.013
20758WAT      O62515   0.174   2.455   6.917
20758WAT     H162516   0.230   2.498   6.845
20758WAT     H262517   0.078   2.457   6.890
20759WAT      O62518   3.833   0.262   8.124
20759WAT     H162519   3.932   0.280   8.117
20759WAT     H262520   3.783   0.327   8.067
20760WAT      O62521   1.858   7.095   6.159
20760WAT     H162522   1.816   7.122   6.072
20760WAT     H262523   1.942   7.045   6.141
20761WAT      O62524   2.011   0.770   6.159
20761WAT     H162525   2.071   0.829   6.214
20761WAT     H262526   2.038   0.675   6.173
20762WAT      O62527   8.071   6.705   5.699
20762WAT     H162528   8.012   6.777   5.735
20762WAT     H262529   8.088   6.637   5.771
20763WAT      O62530   0.026   7.236   6.847
20763WAT     H162531   0.010   7.162   6.913
20763WAT     H262532  -0.033   7.223   6.767
20764WAT      O62533   3.694   5.529   1.304
20764WAT     H162534   3.619   5.531   1.238
20764WAT     H262535   3.771   5.478   1.265
20765WAT      O62536   0.256   6.423   3.354
20765WAT     H162537   0.216   6.341   3.313
20765WAT     H262538   0.220   6.435   3.446
20766WAT      O62539   8.913   8.555   7.716
20766WAT     H162540   8.885   8.611   7.794
20766WAT     H262541   8.989   8.496   7.743
20767WAT      O62542   1.763   7.298   4.045
20767WAT     H162543   1.677   7.348   4.035
20767WAT     H262544   1.823   7.348   4.107
20768WAT      O62545   5.253   0.008   5.076
20768WAT     H162546   5.184  -0.061   5.052
20768WAT     H262547   5.257   0.017   5.175
20769WAT      O62548   8.531   7.025   9.573
20769WAT     H162549   8.532   6.938   9.524
20769WAT     H262550   8.555   7.099   9.509
20770WAT      O62551   9.355   2.744   0.334
20770WAT     H162552   9.307   2.808   0.274
20770WAT     H262553   9.288   2.686   0.380
20771WAT      O62554   4.910   1.260   1.727
20771WAT     H162555   4.973   1.249   1.651
20771WAT     H262556   4.919   1.184   1.790
20772WAT      O62557   2.083   1.975   1.692
20772WAT     H162558   2.004   2.037   1.698
20772WAT     H262559   2.166   2.026   1.714
20773WAT      O62560   3.529   2.005   5.789
20773WAT     H162561   3.559   1.928   5.732
20773WAT     H262562   3.558   2.091   5.746
20774WAT      O62563   2.527   7.623   4.366
20774WAT     H162564   2.567   7.558   4.430
20774WAT     H262565   2.519   7.712   4.410
20775WAT      O62566   1.057   1.162   3.319
20775WAT     H162567   0.992   1.153   3.394
20775WAT     H262568   1.034   1.097   3.247
20776WAT      O62569   1.382   0.521   5.816
20776WAT     H162570   1.340   0.432   5.801
20776WAT     H262571   1.410   0.560   5.728
20777WAT      O62572   2.827   9.477   6.943
20777WAT     H162573   2.839   9.483   7.043
20777WAT     H262574   2.888   9.406   6.907
20778WAT      O62575   2.502   1.142   3.038
20778WAT     H162576   2.594   1.120   3.003
20778WAT     H262577   2.497   1.241   3.056
20779WAT      O62578   8.085   9.403   7.617
20779WAT     H162579   8.102   9.321   7.671
20779WAT     H262580   8.028   9.467   7.669
20780WAT      O62581   4.925   7.493   6.072
20780WAT     H162582   4.900   7.400   6.043
20780WAT     H262583   5.024   7.499   6.081
20781WAT      O62584   8.819   0.970   4.781
20781WAT     H162585   8.746   1.037   4.787
20781WAT     H262586   8.877   0.976   4.863
20782WAT      O62587   3.181   3.839   7.041
20782WAT     H162588   3.198   3.803   7.133
20782WAT     H262589   3.200   3.937   7.040
20783WAT      O62590   8.573   6.710   1.671
20783WAT     H162591   8.564   6.698   1.770
20783WAT     H262592   8.609   6.801   1.652
20784WAT      O62593   7.576   9.790   2.214
20784WAT     H162594   7.572   9.879   2.259
20784WAT     H262595   7.487   9.768   2.174
20785WAT      O62596   9.802   3.360   7.058
20785WAT     H162597   9.820   3.328   7.151
20785WAT     H262598   9.872   3.325   6.996
20786WAT      O62599   2.319   5.839   1.479
20786WAT     H162600   2.277   5.908   1.420
20786WAT     H262601   2.379   5.781   1.425
20787WAT      O62602   5.870   9.801   8.004
20787WAT     H162603   5.819   9.716   8.016
20787WAT     H262604   5.816   9.866   7.951
20788WAT      O62605   2.287   0.882   9.392
20788WAT     H162606   2.211   0.831   9.352
20788WAT     H262607   2.274   0.980   9.377
20789WAT      O62608   3.761   1.077   0.018
20789WAT     H162609   3.813   1.136   0.079
20789WAT     H262610   3.764   0.983   0.052
20790WAT      O62611   8.685   5.232   8.220
20790WAT     H162612   8.711   5.288   8.141
20790WAT     H262613   8.749   5.247   8.295
20791WAT      O62614   7.593   7.600   2.814
20791WAT     H162615   7.674   7.573   2.867
20791WAT     H262616   7.514   7.607   2.875
20792WAT      O62617   0.784   0.064   1.619
20792WAT     H162618   0.825   0.135   1.677
20792WAT     H262619   0.770  -0.019   1.673
20793WAT      O62620   7.030   9.286   3.378
20793WAT     H162621   6.989   9.353   3.440
20793WAT     H262622   7.017   9.315   3.284
20794WAT      O62623   0.594   4.423   0.439
20794WAT     H162624   0.616   4.478   0.358
20794WAT     H262625   0.595   4.482   0.520
20795WAT      O62626   0.790   9.720   3.893
20795WAT     H162627   0.875   9.708   3.842
20795WAT     H262628   0.804   9.786   3.966
20796WAT      O62629   0.961   3.446   9.721
20796WAT     H162630   1.008   3.448   9.809
20796WAT     H262631   0.973   3.357   9.678
20797WAT      O62632   5.729   6.941   2.260
20797WAT     H162633   5.661   6.994   2.311
20797WAT     H262634   5.783   7.003   2.203
20798WAT      O62635   0.549   8.241   7.768
20798WAT     H162636   0.604   8.175   7.819
20798WAT     H262637   0.578   8.243   7.672
20799WAT      O62638   8.020   6.952   3.903
20799WAT     H162639   8.086   6.877   3.916
20799WAT     H262640   7.966   6.935   3.821
20800WAT      O62641   6.339   1.913   2.160
20800WAT     H162642   6.420   1.902   2.103
20800WAT     H262643   6.295   2.001   2.139
20801WAT      O62644   9.040   4.439   1.182
20801WAT     H162645   9.094   4.512   1.141
20801WAT     H262646   9.074   4.420   1.274
20802WAT      O62647   6.587   7.609   7.807
20802WAT     H162648   6.622   7.515   7.803
20802WAT     H262649   6.504   7.612   7.863
20803WAT      O62650   4.471   5.937   8.693
20803WAT     H162651   4.497   5.942   8.790
20803WAT     H262652   4.372   5.942   8.685
20804WAT      O62653   4.134   3.030   2.283
20804WAT     H162654   4.168   3.048   2.375
20804WAT     H262655   4.193   2.964   2.237
20805WAT      O62656   1.689   2.124   5.210
20805WAT     H162657   1.665   2.120   5.113
20805WAT     H262658   1.750   2.202   5.226
20806WAT      O62659   3.007   4.307   6.439
20806WAT     H162660   2.914   4.271   6.450
20806WAT     H262661   3.047   4.271   6.355
20807WAT      O62662   4.029   3.523   8.848
20807WAT     H162663   4.129   3.529   8.838
20807WAT     H262664   3.986   3.594   8.793
20808WAT      O62665   2.179   7.145   4.361
20808WAT     H162666   2.276   7.131   4.382
20808WAT     H262667   2.166   7.238   4.327
20809WAT      O62668   0.583   8.413   0.442
20809WAT     H162669   0.562   8.326   0.398
20809WAT     H262670   0.671   8.447   0.409
20810WAT      O62671   2.663   7.270   1.077
20810WAT     H162672   2.699   7.363   1.090
20810WAT     H262673   2.600   7.270   1.000
20811WAT      O62674   6.043   6.153   7.096
20811WAT     H162675   6.005   6.241   7.123
20811WAT     H262676   6.126   6.135   7.148
20812WAT      O62677   9.468   7.667   7.795
20812WAT     H162678   9.538   7.730   7.762
20812WAT     H262679   9.504   7.615   7.872
20813WAT      O62680   3.803   6.758   0.732
20813WAT     H162681   3.820   6.782   0.827
20813WAT     H262682   3.780   6.840   0.680
20814WAT      O62683   4.522   9.487   7.486
20814WAT     H162684   4.593   9.473   7.554
20814WAT     H262685   4.499   9.400   7.442
20815WAT      O62686   0.133   0.744   8.599
20815WAT     H162687   0.224   0.713   8.573
20815WAT     H262688   0.087   0.782   8.518
20816WAT      O62689   8.000   5.998   9.783
20816WAT     H162690   8.052   6.078   9.813
20816WAT     H262691   8.060   5.918   9.782
20817WAT      O62692   7.911   4.653   8.607
20817WAT     H162693   7.901   4.581   8.675
20817WAT     H262694   7.821   4.680   8.572
20818WAT      O62695   1.472   1.005   7.817
20818WAT     H162696   1.565   1.041   7.820
20818WAT     H262697   1.448   0.984   7.722
20819WAT      O62698   4.394   4.309   7.470
20819WAT     H162699   4.322   4.240   7.475
20819WAT     H262700   4.483   4.265   7.468
20820WAT      O62701   1.728   6.038   1.356
20820WAT     H162702   1.745   5.940   1.364
20820WAT     H262703   1.631   6.053   1.335
20821WAT      O62704   1.915   5.159   3.436
20821WAT     H162705   1.958   5.153   3.527
20821WAT     H262706   1.837   5.096   3.433
20822WAT      O62707   3.048   6.596   0.665
20822WAT     H162708   3.039   6.506   0.708
20822WAT     H262709   3.126   6.644   0.704
20823WAT      O62710   8.301   6.836   9.766
20823WAT     H162711   8.376   6.898   9.743
20823WAT     H262712   8.315   6.749   9.720
20824WAT      O62713   1.369   4.071   1.751
20824WAT     H162714   1.337   4.018   1.829
20824WAT     H262715   1.290   4.110   1.703
20825WAT      O62716   3.043   5.692   5.295
20825WAT     H162717   3.019   5.596   5.309
20825WAT     H262718   3.021   5.744   5.377
20826WAT      O62719   2.255   0.273   0.201
20826WAT     H162720   2.304   0.346   0.249
20826WAT     H262721   2.196   0.225   0.266
20827WAT      O62722   2.849   0.177   1.336
20827WAT     H162723   2.763   0.163   1.386
20827WAT     H262724   2.833   0.165   1.238
20828WAT      O62725   4.992   1.810   4.870
20828WAT     H162726   4.995   1.908   4.855
20828WAT     H262727   4.968   1.764   4.785
20829WAT      O62728   0.519   6.059   5.929
20829WAT     H162729   0.519   6.082   6.026
20829WAT     H262730   0.499   5.961   5.918
20830WAT      O62731   7.996   0.250   7.592
20830WAT     H162732   7.975   0.250   7.494
20830WAT     H262733   7.941   0.321   7.637
20831WAT      O62734   5.173   7.077   0.780
20831WAT     H162735   5.102   7.066   0.849
20831WAT     H262736   5.143   7.034   0.695
20832WAT      O62737   1.068   5.938   5.688
20832WAT     H162738   1.050   6.019   5.632
20832WAT     H262739   1.036   5.856   5.639
20833WAT      O62740   1.069   1.270   2.220
20833WAT     H162741   0.976   1.286   2.186
20833WAT     H262742   1.066   1.204   2.295
20834WAT      O62743   4.608   2.703   8.426
20834WAT     H162744   4.562   2.651   8.354
20834WAT     H262745   4.701   2.669   8.437
20835WAT      O62746   1.673   2.642   5.728
20835WAT     H162747   1.741   2.704   5.768
20835WAT     H262748   1.593   2.694   5.699
20836WAT      O62749   4.634   0.218   8.490
20836WAT     H162750   4.642   0.186   8.585
20836WAT     H262751   4.689   0.301   8.478
20837WAT      O62752   5.694   4.206   6.949
20837WAT     H162753   5.632   4.129   6.957
20837WAT     H262754   5.774   4.192   7.008
20838WAT      O62755   2.083   2.484   8.985
20838WAT     H162756   2.028   2.498   9.067
20838WAT     H262757   2.045   2.538   8.910
20839WAT      O62758   0.341   7.101   4.149
20839WAT     H162759   0.374   7.007   4.159
20839WAT     H262760   0.243   7.101   4.128
20840WAT      O62761   1.409   6.777   5.894
20840WAT     H162762   1.475   6.706   5.868
20840WAT     H262763   1.360   6.749   5.976
20841WAT      O62764   5.409   4.059   0.130
20841WAT     H162765   5.476   4.022   0.065
20841WAT     H262766   5.456   4.081   0.216
20842WAT      O62767   9.476   2.878   7.791
20842WAT     H162768   9.514   2.884   7.699
20842WAT     H262769   9.520   2.804   7.841
20843WAT      O62770   5.120   4.691   6.848
20843WAT     H162771   5.150   4.596   6.856
20843WAT     H262772   5.072   4.718   6.932
20844WAT      O62773   3.704   1.927   3.399
20844WAT     H162774   3.699   1.879   3.311
20844WAT     H262775   3.689   2.025   3.384
20845WAT      O62776   7.746   9.827   5.474
20845WAT     H162777   7.718   9.821   5.379
20845WAT     H262778   7.702   9.755   5.527
20846WAT      O62779   7.783   2.096   8.137
20846WAT     H162780   7.875   2.058   8.148
20846WAT     H262781   7.729   2.075   8.218
20847WAT      O62782   4.069   8.002   7.960
20847WAT     H162783   4.083   8.031   8.055
20847WAT     H262784   3.975   8.023   7.933
20848WAT      O62785   3.283   5.810   9.298
20848WAT     H162786   3.321   5.867   9.226
20848WAT     H262787   3.241   5.729   9.258
20849WAT      O62788   2.976   7.147   1.602
20849WAT     H162789   2.886   7.186   1.623
20849WAT     H262790   3.031   7.143   1.685
20850WAT      O62791   9.236   6.705   3.016
20850WAT     H162792   9.221   6.655   2.930
20850WAT     H262793   9.167   6.777   3.025
20851WAT      O62794   5.193   8.056   6.163
20851WAT     H162795   5.132   8.002   6.221
20851WAT     H262796   5.166   8.047   6.067
20852WAT      O62797   2.495   1.435   7.793
20852WAT     H162798   2.455   1.350   7.828
20852WAT     H262799   2.482   1.439   7.694
20853WAT      O62800   0.047   0.026   8.834
20853WAT     H162801   0.064   0.122   8.858
20853WAT     H262802   0.122  -0.030   8.870
20854WAT      O62803   2.276   1.381   8.427
20854WAT     H162804   2.202   1.435   8.468
20854WAT     H262805   2.360   1.395   8.479
20855WAT      O62806   4.778   7.692   6.228
20855WAT     H162807   4.843   7.628   6.188
20855WAT     H262808   4.712   7.642   6.284
20856WAT      O62809   1.930   3.304   1.398
20856WAT     H162810   1.882   3.381   1.441
20856WAT     H262811   1.901   3.218   1.441
20857WAT      O62812   1.890   6.662   1.536
20857WAT     H162813   1.875   6.695   1.629
20857WAT     H262814   1.988   6.666   1.514
20858WAT      O62815   4.853   2.919   1.056
20858WAT     H162816   4.769   2.908   1.109
20858WAT     H262817   4.932   2.919   1.118
20859WAT      O62818   3.520   4.413   2.486
20859WAT     H162819   3.568   4.459   2.411
20859WAT     H262820   3.451   4.474   2.524
20860WAT      O62821   8.246   6.561   1.425
20860WAT     H162822   8.231   6.653   1.462
20860WAT     H262823   8.259   6.567   1.326
20861WAT      O62824   7.434   7.129   5.234
20861WAT     H162825   7.472   7.055   5.290
20861WAT     H262826   7.336   7.114   5.221
20862WAT      O62827   7.191   9.413   3.915
20862WAT     H162828   7.221   9.416   3.820
20862WAT     H262829   7.092   9.427   3.919
20863WAT      O62830   2.162   3.951   1.732
20863WAT     H162831   2.130   3.868   1.778
20863WAT     H262832   2.241   3.929   1.674
20864WAT      O62833   9.517   9.807   4.674
20864WAT     H162834   9.512   9.863   4.757
20864WAT     H262835   9.549   9.716   4.697
20865WAT      O62836   6.753   2.555   1.960
20865WAT     H162837   6.696   2.628   1.999
20865WAT     H262838   6.750   2.475   2.021
20866WAT      O62839   2.688   3.346   9.752
20866WAT     H162840   2.662   3.250   9.759
20866WAT     H262841   2.618   3.396   9.701
20867WAT      O62842   4.727   0.332   4.211
20867WAT     H162843   4.810   0.387   4.205
20867WAT     H262844   4.702   0.319   4.307
20868WAT      O62845   7.264   3.643   1.648
20868WAT     H162846   7.275   3.544   1.636
20868WAT     H262847   7.281   3.667   1.744
20869WAT      O62848   7.738   6.606   5.109
20869WAT     H162849   7.670   6.679   5.120
20869WAT     H262850   7.828   6.648   5.096
20870WAT      O62851   7.782   9.301   8.820
20870WAT     H162852   7.851   9.258   8.879
20870WAT     H262853   7.736   9.374   8.871
20871WAT      O62854   9.774   6.542   1.729
20871WAT     H162855   9.861   6.523   1.776
20871WAT     H262856   9.793   6.593   1.645
20872WAT      O62857   7.489   1.774   0.682
20872WAT     H162858   7.494   1.813   0.774
20872WAT     H262859   7.516   1.842   0.615
20873WAT      O62860   2.570   2.147   3.368
20873WAT     H162861   2.618   2.073   3.416
20873WAT     H262862   2.479   2.116   3.341
20874WAT      O62863   5.487   6.609   3.023
20874WAT     H162864   5.426   6.677   3.064
20874WAT     H262865   5.551   6.577   3.092
20875WAT      O62866   3.777   5.496   0.994
20875WAT     H162867   3.771   5.551   0.910
20875WAT     H262868   3.781   5.399   0.969
20876WAT      O62869   5.516   2.702   8.552
20876WAT     H162870   5.578   2.773   8.585
20876WAT     H262871   5.552   2.612   8.576
20877WAT      O62872   4.345   3.638   1.670
20877WAT     H162873   4.293   3.585   1.602
20877WAT     H262874   4.420   3.686   1.625
20878WAT      O62875   2.946   5.326   0.933
20878WAT     H162876   2.949   5.286   1.025
20878WAT     H262877   3.038   5.351   0.904
20879WAT      O62878   4.252   0.840   9.706
20879WAT     H162879   4.267   0.895   9.787
20879WAT     H262880   4.294   0.885   9.627
20880WAT      O62881   7.193   6.766   8.209
20880WAT     H162882   7.110   6.821   8.201
20880WAT     H262883   7.257   6.811   8.272
20881WAT      O62884   5.982   9.452   7.797
20881WAT     H162885   6.006   9.548   7.813
20881WAT     H262886   5.953   9.440   7.702
20882WAT      O62887   6.655   0.160   8.608
20882WAT     H162888   6.701   0.171   8.695
20882WAT     H262889   6.556   0.158   8.622
20883WAT      O62890   6.879   6.559   5.079
20883WAT     H162891   6.929   6.612   5.148
20883WAT     H262892   6.935   6.548   4.998
20884WAT      O62893   9.835   4.937   7.798
20884WAT     H162894   9.854   4.987   7.714
20884WAT     H262895   9.814   4.842   7.777
20885WAT      O62896   4.160   0.167   1.224
20885WAT     H162897   4.160   0.254   1.272
20885WAT     H262898   4.136   0.094   1.288
20886WAT      O62899   3.002   6.982   0.789
20886WAT     H162900   2.925   7.019   0.841
20886WAT     H262901   2.987   6.997   0.691
20887WAT      O62902   5.609   3.074   3.770
20887WAT     H162903   5.632   2.994   3.715
20887WAT     H262904   5.510   3.090   3.765
20888WAT      O62905   4.279   9.266   0.483
20888WAT     H162906   4.377   9.276   0.501
20888WAT     H262907   4.238   9.357   0.473
20889WAT      O62908   1.661   3.512   4.204
20889WAT     H162909   1.731   3.446   4.232
20889WAT     H262910   1.665   3.525   4.105
20890WAT      O62911   2.881   2.132   3.609
20890WAT     H162912   2.880   2.192   3.528
20890WAT     H262913   2.920   2.043   3.584
20891WAT      O62914   4.390   4.362   8.492
20891WAT     H162915   4.442   4.294   8.441
20891WAT     H262916   4.351   4.429   8.430
20892WAT      O62917   4.166   0.857   6.595
20892WAT     H162918   4.228   0.849   6.672
20892WAT     H262919   4.218   0.854   6.509
20893WAT      O62920   2.722   5.301   9.635
20893WAT     H162921   2.736   5.219   9.690
20893WAT     H262922   2.650   5.283   9.567
20894WAT      O62923   8.695   8.798   6.509
20894WAT     H162924   8.694   8.797   6.410
20894WAT     H262925   8.788   8.784   6.542
20895WAT      O62926   4.266   2.654   2.039
20895WAT     H162927   4.168   2.644   2.022
20895WAT     H262928   4.317   2.600   1.972
20896WAT      O62929   3.327   6.003   4.330
20896WAT     H162930   3.338   5.903   4.334
20896WAT     H262931   3.240   6.028   4.373
20897WAT      O62932   1.252   7.788   8.024
20897WAT     H162933   1.276   7.764   8.118
20897WAT     H262934   1.334   7.818   7.976
20898WAT      O62935   0.982   7.296   8.590
20898WAT     H162936   1.067   7.288   8.538
20898WAT     H262937   0.931   7.376   8.558
20899WAT      O62938   0.212   2.528   9.604
20899WAT     H162939   0.181   2.554   9.695
20899WAT     H262940   0.249   2.435   9.607
20900WAT      O62941   4.218   7.357   6.791
20900WAT     H162942   4.184   7.263   6.796
20900WAT     H262943   4.298   7.367   6.850
20901WAT      O62944   1.015   5.796   6.281
20901WAT     H162945   0.923   5.785   6.244
20901WAT     H262946   1.033   5.892   6.298
20902WAT      O62947   7.163   7.625   5.573
20902WAT     H162948   7.108   7.571   5.509
20902WAT     H262949   7.112   7.708   5.597
20903WAT      O62950   1.703   4.545   9.641
20903WAT     H162951   1.803   4.544   9.645
20903WAT     H262952   1.674   4.537   9.546
20904WAT      O62953   4.904   0.318   3.362
20904WAT     H162954   4.857   0.320   3.274
20904WAT     H262955   4.873   0.239   3.414
20905WAT      O62956   5.124   8.094   9.822
20905WAT     H162957   5.204   8.060   9.773
20905WAT     H262958   5.151   8.122   9.914
20906WAT      O62959   2.136   1.337   7.715
20906WAT     H162960   2.121   1.419   7.770
20906WAT     H262961   2.048   1.303   7.680
20907WAT      O62962   2.234   9.244   2.112
20907WAT     H162963   2.313   9.183   2.118
20907WAT     H262964   2.158   9.205   2.163
20908WAT      O62965   5.695   0.291   9.469
20908WAT     H162966   5.764   0.353   9.504
20908WAT     H262967   5.639   0.338   9.401
20909WAT      O62968   0.724   5.282   7.617
20909WAT     H162969   0.650   5.274   7.551
20909WAT     H262970   0.687   5.270   7.710
20910WAT      O62971   1.476   4.896   4.618
20910WAT     H162972   1.471   4.841   4.701
20910WAT     H262973   1.565   4.882   4.574
20911WAT      O62974   9.263   6.107   9.696
20911WAT     H162975   9.217   6.030   9.740
20911WAT     H262976   9.305   6.077   9.610
20912WAT      O62977   4.150   9.339   7.503
20912WAT     H162978   4.204   9.260   7.474
20912WAT     H262979   4.078   9.357   7.436
20913WAT      O62980   6.434   6.009   9.339
20913WAT     H162981   6.459   6.054   9.253
20913WAT     H262982   6.377   6.071   9.393
20914WAT      O62983   5.818   6.730   3.157
20914WAT     H162984   5.871   6.809   3.187
20914WAT     H262985   5.815   6.728   3.057
20915WAT      O62986   8.549   5.712   2.282
20915WAT     H162987   8.455   5.699   2.251
20915WAT     H262988   8.554   5.790   2.344
20916WAT      O62989   7.782   5.781   6.569
20916WAT     H162990   7.693   5.784   6.523
20916WAT     H262991   7.846   5.727   6.515
20917WAT      O62992   8.989   3.614   3.006
20917WAT     H162993   8.973   3.576   3.097
20917WAT     H262994   8.902   3.641   2.965
20918WAT      O62995   4.852   5.650   3.924
20918WAT     H162996   4.887   5.718   3.989
20918WAT     H262997   4.883   5.673   3.832
20919WAT      O62998   9.660   9.410   0.516
20919WAT     H162999   9.666   9.345   0.592
20919WAT     H263000   9.568   9.449   0.514
20920WAT      O63001   0.373   5.880   0.440
20920WAT     H163002   0.374   5.850   0.344
20920WAT     H263003   0.293   5.842   0.486
20921WAT      O63004   1.050   9.542   7.236
20921WAT     H163005   1.024   9.491   7.154
20921WAT     H263006   1.040   9.483   7.317
20922WAT      O63007   8.993   6.130   5.932
20922WAT     H163008   8.981   6.073   5.851
20922WAT     H263009   8.929   6.207   5.928
20923WAT      O63010   7.356   2.944   1.748
20923WAT     H163011   7.440   2.893   1.763
20923WAT     H263012   7.356   2.982   1.655
20924WAT      O63013   7.318   6.012   7.655
20924WAT     H163014   7.400   6.061   7.627
20924WAT     H263015   7.241   6.076   7.660
20925WAT      O63016   5.483   6.652   6.361
20925WAT     H163017   5.514   6.682   6.271
20925WAT     H263018   5.545   6.582   6.396
20926WAT      O63019   5.067   1.606   6.878
20926WAT     H163020   5.122   1.559   6.947
20926WAT     H263021   5.126   1.642   6.806
20927WAT      O63022   9.380   1.055   1.750
20927WAT     H163023   9.322   1.135   1.731
20927WAT     H263024   9.435   1.034   1.669
20928WAT      O63025   4.762   0.494   5.665
20928WAT     H163026   4.822   0.498   5.745
20928WAT     H263027   4.813   0.521   5.584
20929WAT      O63028   4.041   9.830   2.272
20929WAT     H163029   4.127   9.808   2.225
20929WAT     H263030   4.050   9.808   2.369
20930WAT      O63031   7.085   3.886   6.343
20930WAT     H163032   7.135   3.881   6.257
20930WAT     H263033   7.098   3.977   6.383
20931WAT      O63034   2.570   5.700   1.828
20931WAT     H163035   2.555   5.623   1.890
20931WAT     H263036   2.492   5.762   1.832
20932WAT      O63037   1.830   4.924   5.531
20932WAT     H163038   1.902   4.985   5.564
20932WAT     H263039   1.865   4.870   5.454
20933WAT      O63040   0.409   6.534   3.157
20933WAT     H163041   0.434   6.628   3.182
20933WAT     H263042   0.344   6.498   3.224
20934WAT      O63043   7.917   3.836   1.609
20934WAT     H163044   7.948   3.753   1.564
20934WAT     H263045   7.817   3.839   1.608
20935WAT      O63046   8.059   9.599   2.170
20935WAT     H163047   7.990   9.530   2.188
20935WAT     H263048   8.048   9.635   2.078
20936WAT      O63049   9.345   7.194   1.777
20936WAT     H163050   9.334   7.281   1.826
20936WAT     H263051   9.267   7.135   1.795
20937WAT      O63052   4.268   4.597   7.843
20937WAT     H163053   4.218   4.524   7.890
20937WAT     H263054   4.278   4.573   7.746
20938WAT      O63055   7.534   5.955   6.780
20938WAT     H163056   7.576   6.043   6.760
20938WAT     H263057   7.601   5.895   6.823
20939WAT      O63058   7.834   0.612   6.439
20939WAT     H163059   7.798   0.706   6.440
20939WAT     H263060   7.805   0.566   6.355
20940WAT      O63061   1.593   1.672   4.762
20940WAT     H163062   1.606   1.615   4.681
20940WAT     H263063   1.596   1.769   4.736
20941WAT      O63064   8.014   4.795   7.200
20941WAT     H163065   8.077   4.846   7.142
20941WAT     H263066   7.959   4.859   7.254
20942WAT      O63067   8.352   6.513   5.063
20942WAT     H163068   8.344   6.444   4.991
20942WAT     H263069   8.398   6.594   5.027
20943WAT      O63070   0.808   7.373   5.488
20943WAT     H163071   0.792   7.471   5.495
20943WAT     H263072   0.808   7.333   5.579
20944WAT      O63073   6.387   4.049   1.258
20944WAT     H163074   6.465   4.016   1.312
20944WAT     H263075   6.421   4.105   1.182
20945WAT      O63076   5.513   9.708   5.509
20945WAT     H163077   5.542   9.624   5.554
20945WAT     H263078   5.419   9.730   5.535
20946WAT      O63079   8.492   4.537   1.335
20946WAT     H163080   8.571   4.475   1.330
20946WAT     H263081   8.425   4.510   1.266
20947WAT      O63082   6.660   7.198   6.385
20947WAT     H163083   6.728   7.250   6.436
20947WAT     H263084   6.602   7.147   6.448
20948WAT      O63085   1.504   4.258   3.043
20948WAT     H163086   1.576   4.191   3.059
20948WAT     H263087   1.531   4.318   2.968
20949WAT      O63088   3.972   1.766   3.452
20949WAT     H163089   3.895   1.799   3.397
20949WAT     H263090   4.054   1.820   3.432
20950WAT      O63091   2.534   1.785   6.168
20950WAT     H163092   2.533   1.879   6.202
20950WAT     H263093   2.488   1.725   6.232
20951WAT      O63094   8.171   4.172   8.981
20951WAT     H163095   8.140   4.149   8.889
20951WAT     H263096   8.269   4.156   8.988
20952WAT      O63097   0.941   7.980   2.373
20952WAT     H163098   1.009   8.052   2.387
20952WAT     H263099   0.858   8.020   2.333
20953WAT      O63100   7.055   5.288   4.534
20953WAT     H163101   7.132   5.255   4.481
20953WAT     H263102   6.970   5.254   4.494
20954WAT      O63103   0.933   6.580   6.666
20954WAT     H163104   0.897   6.487   6.658
20954WAT     H263105   0.882   6.640   6.604
20955WAT      O63106   0.232   3.787   7.201
20955WAT     H163107   0.215   3.803   7.298
20955WAT     H263108   0.328   3.763   7.187
20956WAT      O63109   7.886   3.781   8.707
20956WAT     H163110   7.890   3.763   8.608
20956WAT     H263111   7.887   3.694   8.756
20957WAT      O63112   7.544   2.033   9.176
20957WAT     H163113   7.458   2.082   9.191
20957WAT     H263114   7.606   2.091   9.124
20958WAT      O63115   5.063   2.362   7.701
20958WAT     H163116   5.046   2.347   7.604
20958WAT     H263117   5.080   2.274   7.746
20959WAT      O63118   7.253   8.463   8.228
20959WAT     H163119   7.153   8.455   8.232
20959WAT     H263120   7.294   8.373   8.243
20960WAT      O63121   3.403   8.058   6.355
20960WAT     H163122   3.398   8.067   6.255
20960WAT     H263123   3.469   7.987   6.378
20961WAT      O63124   0.645   8.538   9.648
20961WAT     H163125   0.641   8.447   9.691
20961WAT     H263126   0.681   8.604   9.714
20962WAT      O63127   9.284   4.830   5.607
20962WAT     H163128   9.231   4.749   5.582
20962WAT     H263129   9.334   4.812   5.692
20963WAT      O63130   6.626   4.939   3.869
20963WAT     H163131   6.556   4.984   3.814
20963WAT     H263132   6.582   4.882   3.939
20964WAT      O63133   4.271   8.198   1.345
20964WAT     H163134   4.177   8.195   1.379
20964WAT     H263135   4.275   8.160   1.253
20965WAT      O63136   3.766   1.290   3.364
20965WAT     H163137   3.843   1.324   3.419
20965WAT     H263138   3.761   1.191   3.372
20966WAT      O63139   7.359   2.475   5.767
20966WAT     H163140   7.342   2.572   5.752
20966WAT     H263141   7.434   2.444   5.708
20967WAT      O63142   6.063   3.254   1.916
20967WAT     H163143   6.066   3.156   1.901
20967WAT     H263144   6.112   3.277   2.001
20968WAT      O63145   7.447   1.916   8.370
20968WAT     H163146   7.377   1.931   8.440
20968WAT     H263147   7.412   1.946   8.281
20969WAT      O63148   4.090   0.536   2.459
20969WAT     H163149   4.047   0.569   2.544
20969WAT     H263150   4.119   0.614   2.404
20970WAT      O63151   5.009   6.599   9.272
20970WAT     H163152   5.074   6.548   9.328
20970WAT     H263153   5.034   6.590   9.176
20971WAT      O63154   7.342   6.803   5.918
20971WAT     H163155   7.259   6.825   5.971
20971WAT     H263156   7.417   6.784   5.981
20972WAT      O63157   7.696   6.006   8.618
20972WAT     H163158   7.699   6.048   8.527
20972WAT     H263159   7.631   6.057   8.675
20973WAT      O63160   6.250   9.760   5.370
20973WAT     H163161   6.230   9.736   5.275
20973WAT     H263162   6.174   9.812   5.409
20974WAT      O63163   3.672   6.100   9.179
20974WAT     H163164   3.715   6.141   9.098
20974WAT     H263165   3.741   6.051   9.232
20975WAT      O63166   9.604   8.992   9.446
20975WAT     H163167   9.563   8.913   9.491
20975WAT     H263168   9.673   9.032   9.507
20976WAT      O63169   7.583   7.650   5.878
20976WAT     H163170   7.550   7.729   5.827
20976WAT     H263171   7.541   7.567   5.840
20977WAT      O63172   4.354   1.972   5.107
20977WAT     H163173   4.427   1.994   5.041
20977WAT     H263174   4.287   2.046   5.108
20978WAT      O63175   0.219   1.516   0.761
20978WAT     H163176   0.144   1.464   0.803
20978WAT     H263177   0.206   1.613   0.779
20979WAT      O63178   2.760   0.645   6.197
20979WAT     H163179   2.718   0.726   6.238
20979WAT     H263180   2.828   0.673   6.130
20980WAT      O63181   3.404   1.544   9.651
20980WAT     H163182   3.456   1.506   9.575
20980WAT     H263183   3.445   1.631   9.679
20981WAT      O63184   0.862   8.306   9.888
20981WAT     H163185   0.941   8.274   9.836
20981WAT     H263186   0.778   8.287   9.837
20982WAT      O63187   2.044   2.498   7.771
20982WAT     H163188   2.028   2.539   7.681
20982WAT     H263189   2.115   2.428   7.764
20983WAT      O63190   6.487   4.337   6.298
20983WAT     H163191   6.406   4.381   6.336
20983WAT     H263192   6.466   4.242   6.274
20984WAT      O63193   9.197   3.788   3.022
20984WAT     H163194   9.170   3.874   2.977
20984WAT     H263195   9.125   3.720   3.007
20985WAT      O63196   2.572   8.412   8.780
20985WAT     H163197   2.593   8.330   8.727
20985WAT     H263198   2.476   8.411   8.808
20986WAT      O63199   5.507   9.428   5.888
20986WAT     H163200   5.583   9.381   5.933
20986WAT     H263201   5.421   9.386   5.917
20987WAT      O63202   2.606   4.720   8.712
20987WAT     H163203   2.654   4.806   8.695
20987WAT     H263204   2.521   4.739   8.762
20988WAT      O63205   2.491   8.153   6.642
20988WAT     H163206   2.452   8.071   6.683
20988WAT     H263207   2.447   8.170   6.554
20989WAT      O63208   7.916   8.984   9.834
20989WAT     H163209   7.887   8.915   9.900
20989WAT     H263210   7.835   9.027   9.794
20990WAT      O63211   2.112   4.165   5.683
20990WAT     H163212   2.070   4.233   5.744
20990WAT     H263213   2.072   4.172   5.592
20991WAT      O63214   7.812   4.371   3.862
20991WAT     H163215   7.811   4.372   3.962
20991WAT     H263216   7.804   4.464   3.827
20992WAT      O63217   8.289   5.205   4.377
20992WAT     H163218   8.305   5.302   4.358
20992WAT     H263219   8.192   5.184   4.367
20993WAT      O63220   4.691   7.014   3.486
20993WAT     H163221   4.781   7.056   3.471
20993WAT     H263222   4.689   6.925   3.441
20994WAT      O63223   0.637   5.584   2.469
20994WAT     H163224   0.592   5.523   2.403
20994WAT     H263225   0.621   5.679   2.443
20995WAT      O63226   9.434   7.978   3.027
20995WAT     H163227   9.347   7.935   3.051
20995WAT     H263228   9.485   7.997   3.111
20996WAT      O63229   3.610   4.465   1.544
20996WAT     H163230   3.612   4.377   1.497
20996WAT     H263231   3.688   4.472   1.606
20997WAT      O63232   2.190   1.707   9.445
20997WAT     H163233   2.100   1.745   9.466
20997WAT     H263234   2.242   1.775   9.393
20998WAT      O63235   3.135   4.352   8.950
20998WAT     H163236   3.093   4.441   8.968
20998WAT     H263237   3.141   4.337   8.851
20999WAT      O63238   7.692   3.308   7.945
20999WAT     H163239   7.595   3.285   7.949
20999WAT     H263240   7.705   3.404   7.969
21000WAT      O63241   2.832   4.204   6.072
21000WAT     H163242   2.809   4.143   6.148
21000WAT     H263243   2.777   4.287   6.078
21001WAT      O63244   3.465   3.791   5.469
21001WAT     H163245   3.430   3.883   5.481
21001WAT     H263246   3.462   3.767   5.372
21002WAT      O63247   3.630   7.568   9.121
21002WAT     H163248   3.707   7.622   9.088
21002WAT     H263249   3.545   7.617   9.106
21003WAT      O63250   6.076   8.738   8.444
21003WAT     H163251   6.103   8.725   8.539
21003WAT     H263252   6.135   8.682   8.385
21004WAT      O63253   1.116   1.083   5.140
21004WAT     H163254   1.156   1.122   5.223
21004WAT     H263255   1.040   1.140   5.110
21005WAT      O63256   2.743   8.728   0.207
21005WAT     H163257   2.803   8.800   0.243
21005WAT     H263258   2.777   8.698   0.118
21006WAT      O63259   3.145   2.021   5.613
21006WAT     H163260   3.130   2.042   5.710
21006WAT     H263261   3.154   2.106   5.561
21007WAT      O63262   5.517   3.158   1.176
21007WAT     H163263   5.563   3.114   1.252
21007WAT     H263264   5.439   3.103   1.147
21008WAT      O63265   3.816   9.832   3.291
21008WAT     H163266   3.764   9.835   3.376
21008WAT     H263267   3.912   9.814   3.311
21009WAT      O63268   7.977   0.130   1.205
21009WAT     H163269   8.052   0.106   1.268
21009WAT     H263270   7.961   0.054   1.142
21010WAT      O63271   1.274   0.868   7.279
21010WAT     H163272   1.176   0.882   7.291
21010WAT     H263273   1.291   0.771   7.260
21011WAT      O63274   4.909   5.182   2.339
21011WAT     H163275   4.878   5.256   2.280
21011WAT     H263276   4.918   5.216   2.433
21012WAT      O63277   2.751   2.027   8.644
21012WAT     H163278   2.695   2.033   8.562
21012WAT     H263279   2.755   2.117   8.688
21013WAT      O63280   9.438   5.708   0.325
21013WAT     H163281   9.473   5.631   0.378
21013WAT     H263282   9.375   5.761   0.381
21014WAT      O63283   8.209   8.622   3.204
21014WAT     H163284   8.257   8.544   3.243
21014WAT     H263285   8.242   8.640   3.112
21015WAT      O63286   4.090   1.877   1.147
21015WAT     H163287   4.072   1.866   1.245
21015WAT     H263288   4.053   1.964   1.116
21016WAT      O63289   8.066   7.339   4.585
21016WAT     H163290   8.088   7.336   4.488
21016WAT     H263291   8.014   7.258   4.610
21017WAT      O63292   0.964   9.213   7.620
21017WAT     H163293   0.874   9.222   7.577
21017WAT     H263294   0.954   9.202   7.719
21018WAT      O63295   4.511   1.969   6.777
21018WAT     H163296   4.430   1.967   6.719
21018WAT     H263297   4.547   2.062   6.781
21019WAT      O63298   8.115   2.771   3.512
21019WAT     H163299   8.211   2.742   3.521
21019WAT     H263300   8.056   2.702   3.555
21020WAT      O63301   7.289   5.167   7.214
21020WAT     H163302   7.349   5.211   7.282
21020WAT     H263303   7.195   5.167   7.249
21021WAT      O63304   1.333   1.528   2.644
21021WAT     H163305   1.245   1.574   2.630
21021WAT     H263306   1.328   1.436   2.606
21022WAT      O63307   9.362   4.061   2.248
21022WAT     H163308   9.395   3.968   2.228
21022WAT     H263309   9.272   4.055   2.292
21023WAT      O63310   9.191   0.315   7.586
21023WAT     H163311   9.265   0.299   7.652
21023WAT     H263312   9.164   0.411   7.588
21024WAT      O63313   4.920   8.736   5.299
21024WAT     H163314   4.916   8.641   5.268
21024WAT     H263315   4.827   8.771   5.312
21025WAT      O63316   8.133   6.779   9.384
21025WAT     H163317   8.052   6.752   9.436
21025WAT     H263318   8.168   6.866   9.419
21026WAT      O63319   6.142   2.721   6.997
21026WAT     H163320   6.096   2.635   7.020
21026WAT     H263321   6.220   2.701   6.938
21027WAT      O63322   9.452   3.005   0.970
21027WAT     H163323   9.404   3.090   0.992
21027WAT     H263324   9.536   3.026   0.921
21028WAT      O63325   8.818   6.569   2.281
21028WAT     H163326   8.766   6.489   2.312
21028WAT     H263327   8.821   6.636   2.354
21029WAT      O63328   4.358   4.281   0.477
21029WAT     H163329   4.382   4.242   0.566
21029WAT     H263330   4.263   4.256   0.455
21030WAT      O63331   0.960   7.366   0.094
21030WAT     H163332   0.897   7.326   0.161
21030WAT     H263333   0.985   7.297   0.026
21031WAT      O63334   0.992   4.132   6.772
21031WAT     H163335   1.001   4.032   6.773
21031WAT     H263336   1.079   4.174   6.796
21032WAT      O63337   6.066   1.856   9.815
21032WAT     H163338   6.072   1.854   9.915
21032WAT     H263339   6.007   1.781   9.784
21033WAT      O63340   9.505   0.224   9.384
21033WAT     H163341   9.585   0.186   9.429
21033WAT     H263342   9.435   0.152   9.375
21034WAT      O63343   5.347   9.305   0.981
21034WAT     H163344   5.303   9.282   0.894
21034WAT     H263345   5.405   9.385   0.969
21035WAT      O63346   7.244   1.964   8.566
21035WAT     H163347   7.246   1.875   8.612
21035WAT     H263348   7.166   2.017   8.598
21036WAT      O63349   9.781   0.446   8.317
21036WAT     H163350   9.750   0.504   8.393
21036WAT     H263351   9.819   0.504   8.245
21037WAT      O63352   5.603   3.925   8.298
21037WAT     H163353   5.511   3.889   8.286
21037WAT     H263354   5.607   3.978   8.383
21038WAT      O63355   8.740   0.788   9.366
21038WAT     H163356   8.752   0.823   9.273
21038WAT     H263357   8.789   0.847   9.431
21039WAT      O63358   4.228   6.666   6.859
21039WAT     H163359   4.320   6.644   6.892
21039WAT     H263360   4.168   6.681   6.938
21040WAT      O63361   5.591   2.279   5.424
21040WAT     H163362   5.503   2.270   5.379
21040WAT     H263363   5.654   2.211   5.387
21041WAT      O63364   4.046   2.657   4.784
21041WAT     H163365   4.133   2.660   4.835
21041WAT     H263366   4.063   2.679   4.688
21042WAT      O63367   5.696   3.623   3.295
21042WAT     H163368   5.789   3.585   3.295
21042WAT     H263369   5.643   3.581   3.221
21043WAT      O63370   4.774   1.494   1.024
21043WAT     H163371   4.739   1.464   0.935
21043WAT     H263372   4.738   1.585   1.045
21044WAT      O63373   5.968   5.430   7.802
21044WAT     H163374   6.000   5.347   7.847
21044WAT     H263375   6.034   5.504   7.816
21045WAT      O63376   2.022   8.468   8.461
21045WAT     H163377   2.024   8.528   8.382
21045WAT     H263378   1.968   8.386   8.440
21046WAT      O63379   4.101   2.273   7.896
21046WAT     H163380   4.172   2.330   7.937
21046WAT     H263381   4.033   2.331   7.851
21047WAT      O63382   6.381   4.341   1.414
21047WAT     H163383   6.303   4.278   1.412
21047WAT     H263384   6.361   4.417   1.476
21048WAT      O63385   6.597   7.219   0.411
21048WAT     H163386   6.684   7.237   0.457
21048WAT     H263387   6.524   7.271   0.455
21049WAT      O63388   2.908   3.566   5.476
21049WAT     H163389   2.896   3.664   5.461
21049WAT     H263390   2.991   3.535   5.431
21050WAT      O63391   0.667   1.245   3.379
21050WAT     H163392   0.690   1.165   3.434
21050WAT     H263393   0.585   1.225   3.325
21051WAT      O63394   7.945   2.838   9.110
21051WAT     H163395   7.900   2.867   9.195
21051WAT     H263396   8.008   2.763   9.130
21052WAT      O63397   8.736   6.306   6.576
21052WAT     H163398   8.682   6.331   6.656
21052WAT     H263399   8.675   6.267   6.506
21053WAT      O63400   8.957   7.097   9.128
21053WAT     H163401   8.878   7.155   9.148
21053WAT     H263402   9.035   7.155   9.104
21054WAT      O63403   6.036   2.379   6.177
21054WAT     H163404   5.961   2.387   6.112
21054WAT     H263405   6.086   2.295   6.160
21055WAT      O63406   3.410   4.419   6.353
21055WAT     H163407   3.361   4.445   6.436
21055WAT     H263408   3.481   4.352   6.375
21056WAT      O63409   0.852   9.242   3.513
21056WAT     H163410   0.841   9.307   3.438
21056WAT     H263411   0.815   9.280   3.597
21057WAT      O63412   8.415   2.598   7.096
21057WAT     H163413   8.403   2.503   7.123
21057WAT     H263414   8.326   2.643   7.087
21058WAT      O63415   0.835   8.995   4.491
21058WAT     H163416   0.925   9.032   4.468
21058WAT     H263417   0.765   9.065   4.474
21059WAT      O63418   0.289   8.764   2.684
21059WAT     H163419   0.300   8.763   2.783
21059WAT     H263420   0.350   8.696   2.643
21060WAT      O63421   9.097   5.862   5.563
21060WAT     H163422   9.057   5.827   5.478
21060WAT     H263423   9.181   5.910   5.543
21061WAT      O63424   5.391   8.490   5.859
21061WAT     H163425   5.462   8.554   5.829
21061WAT     H263426   5.399   8.475   5.958
21062WAT      O63427   1.989   3.964   3.235
21062WAT     H163428   2.007   3.866   3.222
21062WAT     H263429   1.957   3.979   3.329
21063WAT      O63430   8.321   1.382   5.360
21063WAT     H163431   8.373   1.426   5.434
21063WAT     H263432   8.346   1.286   5.354
21064WAT      O63433   2.589   8.284   3.501
21064WAT     H163434   2.592   8.195   3.456
21064WAT     H263435   2.509   8.289   3.561
21065WAT      O63436   6.928   1.429   2.224
21065WAT     H163437   6.906   1.519   2.187
21065WAT     H263438   6.907   1.359   2.156
21066WAT      O63439   7.712   6.649   0.844
21066WAT     H163440   7.651   6.618   0.916
21066WAT     H263441   7.732   6.574   0.781
21067WAT      O63442   7.121   0.055   6.716
21067WAT     H163443   7.146   0.075   6.811
21067WAT     H263444   7.084  -0.038   6.711
21068WAT      O63445   5.109   1.886   1.866
21068WAT     H163446   5.201   1.923   1.877
21068WAT     H263447   5.042   1.950   1.902
21069WAT      O63448   3.245   3.826   3.193
21069WAT     H163449   3.153   3.839   3.230
21069WAT     H263450   3.245   3.849   3.096
21070WAT      O63451   3.855   1.573   3.587
21070WAT     H163452   3.904   1.631   3.522
21070WAT     H263453   3.884   1.478   3.575
21071WAT      O63454   9.461   8.468   0.596
21071WAT     H163455   9.550   8.424   0.606
21071WAT     H263456   9.393   8.419   0.651
21072WAT      O63457   9.496   7.165   6.233
21072WAT     H163458   9.420   7.209   6.185
21072WAT     H263459   9.460   7.107   6.306
21073WAT      O63460   2.033   5.102   6.641
21073WAT     H163461   2.073   5.167   6.705
21073WAT     H263462   1.977   5.036   6.691
21074WAT      O63463   5.273   7.907   8.033
21074WAT     H163464   5.194   7.904   7.973
21074WAT     H263465   5.308   8.001   8.037
21075WAT      O63466   9.867   4.918   1.969
21075WAT     H163467   9.813   4.897   1.886
21075WAT     H263468   9.828   4.998   2.014
21076WAT      O63469   1.398   1.593   4.918
21076WAT     H163470   1.474   1.632   4.867
21076WAT     H263471   1.411   1.609   5.016
21077WAT      O63472   2.397   2.994   3.498
21077WAT     H163473   2.438   3.071   3.547
21077WAT     H263474   2.401   3.010   3.400
21078WAT      O63475   8.170   8.829   5.989
21078WAT     H163476   8.180   8.920   6.030
21078WAT     H263477   8.214   8.829   5.899
21079WAT      O63478   8.027   6.605   5.441
21079WAT     H163479   8.080   6.520   5.436
21079WAT     H263480   8.023   6.637   5.535
21080WAT      O63481   7.786   9.317   8.392
21080WAT     H163482   7.761   9.412   8.412
21080WAT     H263483   7.758   9.294   8.298
21081WAT      O63484   0.918   1.716   6.295
21081WAT     H163485   0.980   1.794   6.293
21081WAT     H263486   0.829   1.745   6.330
21082WAT      O63487   4.717   6.619   2.671
21082WAT     H163488   4.664   6.534   2.679
21082WAT     H263489   4.654   6.697   2.667
21083WAT      O63490   1.147   4.481   5.972
21083WAT     H163491   1.183   4.413   6.037
21083WAT     H263492   1.103   4.555   6.023
21084WAT      O63493   4.931   4.671   1.616
21084WAT     H163494   4.953   4.707   1.707
21084WAT     H263495   4.883   4.584   1.626
21085WAT      O63496   8.329   2.273   4.881
21085WAT     H163497   8.268   2.266   4.802
21085WAT     H263498   8.372   2.363   4.882
21086WAT      O63499   5.603   8.260   3.135
21086WAT     H163500   5.664   8.299   3.203
21086WAT     H263501   5.629   8.165   3.117
21087WAT      O63502   1.889   0.400   7.102
21087WAT     H163503   1.849   0.335   7.038
21087WAT     H263504   1.930   0.352   7.179
21088WAT      O63505   4.866   6.160   0.535
21088WAT     H163506   4.914   6.142   0.621
21088WAT     H263507   4.924   6.135   0.458
21089WAT      O63508   5.662   8.612   9.727
21089WAT     H163509   5.600   8.605   9.650
21089WAT     H263510   5.743   8.666   9.700
21090WAT      O63511   9.198   1.513   0.403
21090WAT     H163512   9.245   1.524   0.491
21090WAT     H263513   9.100   1.521   0.416
21091WAT      O63514   5.342   2.940   1.756
21091WAT     H163515   5.307   3.016   1.809
21091WAT     H263516   5.441   2.933   1.767
21092WAT      O63517   8.978   6.342   0.122
21092WAT     H163518   9.069   6.311   0.093
21092WAT     H263519   8.959   6.432   0.082
21093WAT      O63520   1.328   2.896   5.283
21093WAT     H163521   1.318   2.814   5.339
21093WAT     H263522   1.422   2.930   5.289
21094WAT      O63523   8.101   3.462   8.278
21094WAT     H163524   8.062   3.375   8.248
21094WAT     H263525   8.065   3.486   8.368
21095WAT      O63526   6.514   5.415   3.157
21095WAT     H163527   6.457   5.339   3.188
21095WAT     H263528   6.546   5.467   3.237
21096WAT      O63529   6.188   5.795   7.736
21096WAT     H163530   6.243   5.835   7.809
21096WAT     H263531   6.222   5.704   7.715
21097WAT      O63532   1.410   7.458   2.238
21097WAT     H163533   1.436   7.501   2.324
21097WAT     H263534   1.395   7.360   2.253
21098WAT      O63535   6.662   7.538   2.123
21098WAT     H163536   6.638   7.602   2.050
21098WAT     H263537   6.625   7.571   2.209
21099WAT      O63538   6.674   0.901   3.835
21099WAT     H163539   6.631   0.901   3.746
21099WAT     H263540   6.606   0.919   3.906
21100WAT      O63541   6.116   6.294   0.542
21100WAT     H163542   6.186   6.313   0.473
21100WAT     H263543   6.151   6.227   0.608
21101WAT      O63544   6.060   1.295   0.165
21101WAT     H163545   6.143   1.259   0.206
21101WAT     H263546   6.057   1.395   0.177
21102WAT      O63547   6.553   9.116   8.234
21102WAT     H163548   6.514   9.032   8.271
21102WAT     H263549   6.634   9.142   8.286
21103WAT      O63550   2.783   9.108   2.589
21103WAT     H163551   2.821   9.023   2.625
21103WAT     H263552   2.826   9.186   2.635
21104WAT      O63553   9.163   5.614   2.508
21104WAT     H163554   9.166   5.670   2.591
21104WAT     H263555   9.244   5.633   2.452
21105WAT      O63556   7.493   2.005   5.972
21105WAT     H163557   7.565   1.937   5.981
21105WAT     H263558   7.523   2.078   5.911
21106WAT      O63559   8.823   1.436   7.204
21106WAT     H163560   8.907   1.440   7.258
21106WAT     H263561   8.776   1.350   7.222
21107WAT      O63562   8.406   0.191   1.745
21107WAT     H163563   8.430   0.189   1.843
21107WAT     H263564   8.383   0.284   1.718
21108WAT      O63565   7.824   4.011   4.024
21108WAT     H163566   7.812   4.046   3.931
21108WAT     H263567   7.890   4.069   4.072
21109WAT      O63568   9.887   2.322   4.594
21109WAT     H163569   9.946   2.325   4.675
21109WAT     H263570   9.804   2.374   4.612
21110WAT      O63571   9.466   2.285   1.979
21110WAT     H163572   9.560   2.256   1.962
21110WAT     H263573   9.418   2.297   1.891
21111WAT      O63574   3.540   6.992   7.660
21111WAT     H163575   3.472   6.951   7.599
21111WAT     H263576   3.584   6.919   7.713
21112WAT      O63577   5.308   7.211   1.484
21112WAT     H163578   5.380   7.273   1.516
21112WAT     H263579   5.346   7.149   1.415
21113WAT      O63580   0.571   3.489   2.657
21113WAT     H163581   0.618   3.567   2.699
21113WAT     H263582   0.553   3.420   2.727
21114WAT      O63583   6.729   4.323   5.378
21114WAT     H163584   6.728   4.236   5.427
21114WAT     H263585   6.806   4.378   5.410
21115WAT      O63586   7.592   4.000   5.990
21115WAT     H163587   7.543   4.087   5.989
21115WAT     H263588   7.531   3.928   5.956
21116WAT      O63589   3.050   5.768   1.414
21116WAT     H163590   2.987   5.734   1.344
21116WAT     H263591   3.094   5.691   1.460
21117WAT      O63592   2.851   0.081   7.570
21117WAT     H163593   2.893   0.001   7.527
21117WAT     H263594   2.794   0.052   7.647
21118WAT      O63595   4.332   0.033   0.132
21118WAT     H163596   4.427   0.009   0.113
21118WAT     H263597   4.275  -0.048   0.121
21119WAT      O63598   4.969   7.772   7.658
21119WAT     H163599   4.961   7.672   7.658
21119WAT     H263600   4.880   7.812   7.635
21120WAT      O63601   9.846   9.601   1.188
21120WAT     H163602   9.922   9.544   1.221
21120WAT     H263603   9.859   9.694   1.221
21121WAT      O63604   8.659   9.046   4.242
21121WAT     H163605   8.576   8.990   4.231
21121WAT     H263606   8.693   9.072   4.151
21122WAT      O63607   2.285   3.562   8.468
21122WAT     H163608   2.296   3.604   8.558
21122WAT     H263609   2.218   3.488   8.473
21123WAT      O63610   4.943   9.337   8.248
21123WAT     H163611   4.881   9.371   8.319
21123WAT     H263612   4.985   9.415   8.201
21124WAT      O63613   5.131   2.026   6.369
21124WAT     H163614   5.064   1.967   6.323
21124WAT     H263615   5.084   2.086   6.434
21125WAT      O63616   8.826   1.097   3.866
21125WAT     H163617   8.875   1.176   3.829
21125WAT     H263618   8.727   1.111   3.854
21126WAT      O63619   7.942   0.870   0.851
21126WAT     H163620   8.042   0.877   0.862
21126WAT     H263621   7.903   0.961   0.844
21127WAT      O63622   6.818   6.433   7.085
21127WAT     H163623   6.730   6.481   7.090
21127WAT     H263624   6.836   6.389   7.173
21128WAT      O63625   3.470   0.077   7.820
21128WAT     H163626   3.566   0.075   7.848
21128WAT     H263627   3.465   0.096   7.722
21129WAT      O63628   1.474   1.557   3.247
21129WAT     H163629   1.568   1.582   3.272
21129WAT     H263630   1.437   1.496   3.317
21130WAT      O63631   7.990   5.819   4.649
21130WAT     H163632   8.016   5.914   4.635
21130WAT     H263633   7.891   5.812   4.656
21131WAT      O63634   1.223   2.179   9.365
21131WAT     H163635   1.285   2.253   9.337
21131WAT     H263636   1.163   2.213   9.437
21132WAT      O63637   2.020   3.690   0.769
21132WAT     H163638   1.955   3.761   0.743
21132WAT     H263639   2.112   3.717   0.741
21133WAT      O63640   0.956   0.864   4.133
21133WAT     H163641   1.006   0.936   4.085
21133WAT     H263642   1.014   0.828   4.206
21134WAT      O63643   5.239   8.030   6.650
21134WAT     H163644   5.307   8.000   6.583
21134WAT     H263645   5.179   7.953   6.673
21135WAT      O63646   2.763   6.832   1.381
21135WAT     H163647   2.723   6.885   1.306
21135WAT     H263648   2.708   6.846   1.464
21136WAT      O63649   9.614   2.186   8.500
21136WAT     H163650   9.666   2.216   8.420
21136WAT     H263651   9.676   2.145   8.567
21137WAT      O63652   9.817   3.413   5.152
21137WAT     H163653   9.905   3.402   5.199
21137WAT     H263654   9.790   3.326   5.111
21138WAT      O63655   2.626   0.313   7.752
21138WAT     H163656   2.615   0.214   7.758
21138WAT     H263657   2.546   0.353   7.707
21139WAT      O63658   2.448   2.674   5.377
21139WAT     H163659   2.522   2.676   5.310
21139WAT     H263660   2.430   2.767   5.410
21140WAT      O63661   9.169   2.821   1.644
21140WAT     H163662   9.107   2.881   1.593
21140WAT     H263663   9.150   2.828   1.742
21141WAT      O63664   8.960   2.357   7.852
21141WAT     H163665   9.012   2.442   7.844
21141WAT     H263666   8.865   2.378   7.876
21142WAT      O63667   5.807   9.374   8.829
21142WAT     H163668   5.839   9.464   8.799
21142WAT     H263669   5.881   9.308   8.822
21143WAT      O63670   6.620   1.612   8.700
21143WAT     H163671   6.576   1.571   8.620
21143WAT     H263672   6.556   1.674   8.745
21144WAT      O63673   4.819   2.067   7.555
21144WAT     H163674   4.911   2.038   7.529
21144WAT     H263675   4.752   2.015   7.503
21145WAT      O63676   3.203   8.195   7.509
21145WAT     H163677   3.203   8.244   7.596
21145WAT     H263678   3.240   8.103   7.522
21146WAT      O63679   2.036   7.033   1.695
21146WAT     H163680   2.133   7.031   1.718
21146WAT     H263681   1.988   6.961   1.746
21147WAT      O63682   7.260   8.865   1.442
21147WAT     H163683   7.281   8.846   1.346
21147WAT     H263684   7.294   8.956   1.465
21148WAT      O63685   5.370   3.306   8.094
21148WAT     H163686   5.275   3.298   8.124
21148WAT     H263687   5.405   3.397   8.119
21149WAT      O63688   6.243   5.193   0.345
21149WAT     H163689   6.335   5.170   0.315
21149WAT     H263690   6.248   5.257   0.422
21150WAT      O63691   2.569   5.470   6.788
21150WAT     H163692   2.574   5.536   6.713
21150WAT     H263693   2.553   5.518   6.874
21151WAT      O63694   8.316   1.191   6.203
21151WAT     H163695   8.323   1.242   6.117
21151WAT     H263696   8.230   1.214   6.249
21152WAT      O63697   1.005   0.273   7.816
21152WAT     H163698   0.952   0.294   7.733
21152WAT     H263699   1.038   0.357   7.857
21153WAT      O63700   1.738   9.761   6.683
21153WAT     H163701   1.670   9.694   6.652
21153WAT     H263702   1.695   9.850   6.694
21154WAT      O63703   5.029   8.960   6.771
21154WAT     H163704   5.092   8.925   6.840
21154WAT     H263705   5.012   8.889   6.702
21155WAT      O63706   4.652   3.869   4.224
21155WAT     H163707   4.690   3.942   4.168
21155WAT     H263708   4.577   3.905   4.280
21156WAT      O63709   7.437   1.936   2.110
21156WAT     H163710   7.485   2.017   2.145
21156WAT     H263711   7.501   1.878   2.059
21157WAT      O63712   3.501   2.464   5.574
21157WAT     H163713   3.447   2.427   5.650
21157WAT     H263714   3.546   2.388   5.526
21158WAT      O63715   0.548   2.152   1.541
21158WAT     H163716   0.567   2.212   1.619
21158WAT     H263717   0.515   2.207   1.464
21159WAT      O63718   5.063   1.614   6.413
21159WAT     H163719   5.056   1.711   6.437
21159WAT     H263720   4.981   1.586   6.363
21160WAT      O63721   5.952   8.330   7.116
21160WAT     H163722   5.960   8.242   7.070
21160WAT     H263723   6.042   8.358   7.150
21161WAT      O63724   9.308   4.844   9.161
21161WAT     H163725   9.400   4.815   9.188
21161WAT     H263726   9.254   4.862   9.243
21162WAT      O63727   3.457   7.573   4.891
21162WAT     H163728   3.531   7.565   4.957
21162WAT     H263729   3.438   7.483   4.851
21163WAT      O63730   0.695   1.053   0.474
21163WAT     H163731   0.613   0.998   0.492
21163WAT     H263732   0.668   1.144   0.442
21164WAT      O63733   1.017   6.600   8.679
21164WAT     H163734   1.024   6.696   8.654
21164WAT     H263735   1.061   6.544   8.609
21165WAT      O63736   5.870   2.046   3.818
21165WAT     H163737   5.934   2.115   3.783
21165WAT     H263738   5.776   2.080   3.809
21166WAT      O63739   8.373   9.800   5.580
21166WAT     H163740   8.284   9.762   5.606
21166WAT     H263741   8.373   9.818   5.481
21167WAT      O63742   0.890   2.238   5.691
21167WAT     H163743   0.988   2.259   5.685
21167WAT     H263744   0.874   2.173   5.766
21168WAT      O63745   1.299   6.806   9.685
21168WAT     H163746   1.359   6.851   9.751
21168WAT     H263747   1.325   6.709   9.677
21169WAT      O63748   0.166   2.148   7.991
21169WAT     H163749   0.133   2.106   8.076
21169WAT     H263750   0.233   2.087   7.948
21170WAT      O63751   0.412   8.086   8.502
21170WAT     H163752   0.340   8.038   8.553
21170WAT     H263753   0.433   8.172   8.548
21171WAT      O63754   8.002   2.909   2.216
21171WAT     H163755   8.073   2.897   2.147
21171WAT     H263756   8.024   2.989   2.273
21172WAT      O63757   5.320   3.062   9.315
21172WAT     H163758   5.298   3.154   9.348
21172WAT     H263759   5.303   2.995   9.387
21173WAT      O63760   5.605   8.154   2.208
21173WAT     H163761   5.591   8.178   2.304
21173WAT     H263762   5.527   8.102   2.174
21174WAT      O63763   4.770   8.890   0.262
21174WAT     H163764   4.739   8.797   0.243
21174WAT     H263765   4.866   8.899   0.236
21175WAT      O63766   0.232   6.651   8.898
21175WAT     H163767   0.210   6.570   8.953
21175WAT     H263768   0.328   6.675   8.912
21176WAT      O63769   2.718   7.038   6.163
21176WAT     H163770   2.804   7.086   6.146
21176WAT     H263771   2.692   7.049   6.259
21177WAT      O63772   9.762   5.564   2.260
21177WAT     H163773   9.743   5.660   2.278
21177WAT     H263774   9.689   5.507   2.298
21178WAT      O63775   8.783   1.655   0.814
21178WAT     H163776   8.869   1.662   0.763
21178WAT     H263777   8.799   1.606   0.899
21179WAT      O63778   0.722   4.841   2.285
21179WAT     H163779   0.776   4.779   2.341
21179WAT     H263780   0.634   4.859   2.331
21180WAT      O63781  -0.003   8.649   2.330
21180WAT     H163782  -0.001   8.549   2.321
21180WAT     H263783   0.059   8.689   2.262
21181WAT      O63784   2.030   1.465   6.188
21181WAT     H163785   2.102   1.403   6.157
21181WAT     H263786   2.071   1.550   6.223
21182WAT      O63787   6.052   6.187   2.742
21182WAT     H163788   6.084   6.278   2.718
21182WAT     H263789   6.059   6.173   2.840
21183WAT      O63790   9.084   9.676   4.665
21183WAT     H163791   9.028   9.743   4.616
21183WAT     H263792   9.128   9.721   4.743
21184WAT      O63793   7.573   4.744   4.286
21184WAT     H163794   7.602   4.838   4.264
21184WAT     H263795   7.479   4.746   4.320
21185WAT      O63796   1.915   9.194   4.437
21185WAT     H163797   1.854   9.166   4.364
21185WAT     H263798   1.927   9.294   4.435
21186WAT      O63799   0.005   5.558   0.857
21186WAT     H163800  -0.075   5.520   0.811
21186WAT     H263801   0.027   5.647   0.818
21187WAT      O63802   3.573   8.864   5.423
21187WAT     H163803   3.653   8.807   5.400
21187WAT     H263804   3.506   8.808   5.472
21188WAT      O63805   9.819   8.935   5.155
21188WAT     H163806   9.724   8.904   5.161
21188WAT     H263807   9.823   9.024   5.109
21189WAT      O63808   3.015   8.019   6.319
21189WAT     H163809   2.928   7.971   6.311
21189WAT     H263810   3.087   7.966   6.273
21190WAT      O63811   3.439   1.460   6.777
21190WAT     H163812   3.424   1.417   6.688
21190WAT     H263813   3.524   1.426   6.817
21191WAT      O63814   1.553   1.874   9.614
21191WAT     H163815   1.458   1.901   9.606
21191WAT     H263816   1.574   1.853   9.710
21192WAT      O63817   5.351   6.219   5.429
21192WAT     H163818   5.312   6.130   5.452
21192WAT     H263819   5.297   6.261   5.356
21193WAT      O63820   3.483   2.877   6.968
21193WAT     H163821   3.426   2.844   6.893
21193WAT     H263822   3.429   2.881   7.052
21194WAT      O63823   1.812   1.532   5.578
21194WAT     H163824   1.859   1.619   5.595
21194WAT     H263825   1.825   1.472   5.657
21195WAT      O63826   4.546   9.168   3.927
21195WAT     H163827   4.628   9.155   3.873
21195WAT     H263828   4.499   9.081   3.940
21196WAT      O63829   2.000   6.324   3.697
21196WAT     H163830   2.081   6.288   3.650
21196WAT     H263831   1.928   6.255   3.696
21197WAT      O63832   8.789   9.838   2.984
21197WAT     H163833   8.777   9.935   3.002
21197WAT     H263834   8.862   9.825   2.917
21198WAT      O63835   7.908   5.956   2.808
21198WAT     H163836   7.897   5.873   2.753
21198WAT     H263837   7.818   5.996   2.826
21199WAT      O63838   2.269   3.391   5.770
21199WAT     H163839   2.176   3.368   5.744
21199WAT     H263840   2.279   3.388   5.869
21200WAT      O63841   9.160   8.472   4.839
21200WAT     H163842   9.200   8.452   4.749
21200WAT     H263843   9.232   8.493   4.904
21201WAT      O63844   4.293   5.450   9.882
21201WAT     H163845   4.316   5.542   9.914
21201WAT     H263846   4.376   5.399   9.863
21202WAT      O63847   6.921   7.343   7.242
21202WAT     H163848   6.980   7.383   7.172
21202WAT     H263849   6.826   7.345   7.212
21203WAT      O63850   3.264   2.738   2.018
21203WAT     H163851   3.349   2.762   2.064
21203WAT     H263852   3.284   2.677   1.941
21204WAT      O63853   8.451   5.134   5.158
21204WAT     H163854   8.393   5.094   5.087
21204WAT     H263855   8.432   5.090   5.245
21205WAT      O63856   8.847   2.090   9.520
21205WAT     H163857   8.854   1.992   9.504
21205WAT     H263858   8.919   2.138   9.471
21206WAT      O63859   2.133   7.437   3.973
21206WAT     H163860   2.231   7.430   3.956
21206WAT     H263861   2.090   7.348   3.962
21207WAT      O63862   4.035   4.287   1.388
21207WAT     H163863   4.000   4.203   1.429
21207WAT     H263864   4.016   4.287   1.290
21208WAT      O63865   5.520   0.046   2.843
21208WAT     H163866   5.606   0.094   2.829
21208WAT     H263867   5.454   0.074   2.774
21209WAT      O63868   1.469   1.002   3.433
21209WAT     H163869   1.379   1.020   3.473
21209WAT     H263870   1.487   0.904   3.433
21210WAT      O63871   7.859   2.843   6.383
21210WAT     H163872   7.818   2.822   6.471
21210WAT     H263873   7.810   2.797   6.310
21211WAT      O63874   9.069   2.417   6.711
21211WAT     H163875   9.148   2.475   6.692
21211WAT     H263876   9.066   2.342   6.645
21212WAT      O63877   6.828   1.535   9.359
21212WAT     H163878   6.893   1.611   9.361
21212WAT     H263879   6.764   1.546   9.283
21213WAT      O63880   4.391   6.721   2.136
21213WAT     H163881   4.393   6.671   2.223
21213WAT     H263882   4.470   6.782   2.132
21214WAT      O63883   5.657   5.182   5.600
21214WAT     H163884   5.614   5.136   5.523
21214WAT     H263885   5.742   5.135   5.625
21215WAT      O63886   2.529   4.509   5.251
21215WAT     H163887   2.590   4.447   5.201
21215WAT     H263888   2.444   4.522   5.200
21216WAT      O63889   1.333   8.296   7.661
21216WAT     H163890   1.299   8.246   7.741
21216WAT     H263891   1.256   8.338   7.613
21217WAT      O63892   3.673   4.026   9.096
21217WAT     H163893   3.712   4.059   9.182
21217WAT     H263894   3.574   4.038   9.096
21218WAT      O63895   5.994   7.345   2.399
21218WAT     H163896   5.898   7.341   2.372
21218WAT     H263897   6.050   7.362   2.318
21219WAT      O63898   6.566   6.471   1.450
21219WAT     H163899   6.659   6.503   1.465
21219WAT     H263900   6.508   6.546   1.419
21220WAT      O63901   1.672   5.980   8.785
21220WAT     H163902   1.652   5.885   8.761
21220WAT     H263903   1.599   6.017   8.841
21221WAT      O63904   0.647   2.603   5.977
21221WAT     H163905   0.624   2.633   6.070
21221WAT     H263906   0.572   2.548   5.941
21222WAT      O63907   6.543   3.561   9.620
21222WAT     H163908   6.588   3.627   9.681
21222WAT     H263909   6.504   3.610   9.542
21223WAT      O63910   8.704   6.328   4.783
21223WAT     H163911   8.726   6.256   4.716
21223WAT     H263912   8.647   6.290   4.855
21224WAT      O63913   3.935   1.306   9.534
21224WAT     H163914   3.855   1.357   9.566
21224WAT     H263915   4.018   1.349   9.571
21225WAT      O63916   8.625   3.966   5.769
21225WAT     H163917   8.723   3.964   5.791
21225WAT     H263918   8.596   4.061   5.758
21226WAT      O63919   7.675   9.144   8.168
21226WAT     H163920   7.676   9.077   8.243
21226WAT     H263921   7.738   9.114   8.096
21227WAT      O63922   1.937   9.509   8.400
21227WAT     H163923   2.032   9.479   8.407
21227WAT     H263924   1.886   9.446   8.342
21228WAT      O63925   8.556   1.323   9.383
21228WAT     H163926   8.517   1.306   9.474
21228WAT     H263927   8.500   1.278   9.314
21229WAT      O63928   3.406   6.466   6.972
21229WAT     H163929   3.495   6.435   6.940
21229WAT     H263930   3.416   6.513   7.060
21230WAT      O63931   2.274   6.390   0.143
21230WAT     H163932   2.200   6.407   0.079
21230WAT     H263933   2.293   6.291   0.146
21231WAT      O63934   5.645   6.458   1.480
21231WAT     H163935   5.599   6.437   1.566
21231WAT     H263936   5.580   6.452   1.404
21232WAT      O63937   2.434   9.551   0.102
21232WAT     H163938   2.476   9.512   0.020
21232WAT     H263939   2.501   9.550   0.177
21233WAT      O63940   2.545   5.313   5.261
21233WAT     H163941   2.553   5.215   5.282
21233WAT     H263942   2.467   5.351   5.311
21234WAT      O63943   6.416   1.827   7.358
21234WAT     H163944   6.453   1.842   7.450
21234WAT     H263945   6.372   1.737   7.355
21235WAT      O63946   9.005   1.573   4.052
21235WAT     H163947   9.102   1.591   4.037
21235WAT     H263948   8.951   1.631   3.991
21236WAT      O63949   1.943   4.129   0.459
21236WAT     H163950   1.862   4.117   0.402
21236WAT     H263951   2.015   4.068   0.427
21237WAT      O63952   8.608   8.055   9.409
21237WAT     H163953   8.640   8.148   9.425
21237WAT     H263954   8.660   8.014   9.334
21238WAT      O63955   8.151   0.276   9.453
21238WAT     H163956   8.191   0.186   9.468
21238WAT     H263957   8.223   0.345   9.451
21239WAT      O63958   0.333   4.620   0.010
21239WAT     H163959   0.324   4.647   0.106
21239WAT     H263960   0.425   4.643  -0.023
21240WAT      O63961   5.112   6.859   1.166
21240WAT     H163962   5.027   6.807   1.171
21240WAT     H263963   5.092   6.957   1.158
21241WAT      O63964   5.465   9.090   1.288
21241WAT     H163965   5.448   9.014   1.351
21241WAT     H263966   5.467   9.056   1.194
21242WAT      O63967   3.196   5.784   7.713
21242WAT     H163968   3.148   5.794   7.626
21242WAT     H263969   3.165   5.700   7.759
21243WAT      O63970   0.304   8.959   3.278
21243WAT     H163971   0.366   8.955   3.199
21243WAT     H263972   0.352   8.998   3.356
21244WAT      O63973   3.382   2.596   4.159
21244WAT     H163974   3.355   2.530   4.089
21244WAT     H263975   3.410   2.548   4.242
21245WAT      O63976   2.824   4.553   9.659
21245WAT     H163977   2.861   4.536   9.750
21245WAT     H263978   2.776   4.471   9.627
21246WAT      O63979   9.778   7.707   5.580
21246WAT     H163980   9.851   7.656   5.625
21246WAT     H263981   9.815   7.792   5.542
21247WAT      O63982   5.792   1.421   7.466
21247WAT     H163983   5.786   1.332   7.512
21247WAT     H263984   5.865   1.418   7.397
21248WAT      O63985   1.303   5.206   1.163
21248WAT     H163986   1.238   5.155   1.220
21248WAT     H263987   1.261   5.290   1.131
21249WAT      O63988   8.448   1.827   2.143
21249WAT     H163989   8.380   1.817   2.215
21249WAT     H263990   8.530   1.776   2.168
21250WAT      O63991   6.846   3.852   3.681
21250WAT     H163992   6.897   3.807   3.608
21250WAT     H263993   6.909   3.898   3.743
21251WAT      O63994   8.643   2.649   0.869
21251WAT     H163995   8.663   2.555   0.897
21251WAT     H263996   8.728   2.693   0.838
21252WAT      O63997   4.222   9.018   3.607
21252WAT     H163998   4.290   9.081   3.644
21252WAT     H263999   4.201   9.043   3.513
21253WAT      O64000   3.598   5.961   6.440
21253WAT     H164001   3.503   5.967   6.412
21253WAT     H264002   3.637   6.053   6.446
21254WAT      O64003   8.915   0.249   6.947
21254WAT     H164004   8.940   0.152   6.942
21254WAT     H264005   8.998   0.304   6.954
21255WAT      O64006   7.708   3.633   8.019
21255WAT     H164007   7.775   3.633   7.945
21255WAT     H264008   7.755   3.643   8.106
21256WAT      O64009   9.175   6.322   5.490
21256WAT     H164010   9.242   6.322   5.415
21256WAT     H264011   9.141   6.414   5.505
21257WAT      O64012   2.730   4.359   5.160
21257WAT     H164013   2.718   4.284   5.224
21257WAT     H264014   2.720   4.324   5.066
21258WAT      O64015   0.600   2.967   1.840
21258WAT     H164016   0.663   2.913   1.896
21258WAT     H264017   0.509   2.967   1.883
21259WAT      O64018   4.039   8.423   1.242
21259WAT     H164019   4.008   8.502   1.294
21259WAT     H264020   4.090   8.362   1.302
21260WAT      O64021   2.252   6.085   0.994
21260WAT     H164022   2.284   6.060   0.903
21260WAT     H264023   2.228   6.003   1.045
21261WAT      O64024   0.564   0.900   8.853
21261WAT     H164025   0.622   0.922   8.932
21261WAT     H264026   0.525   0.985   8.816
21262WAT      O64027   2.922   7.176   8.108
21262WAT     H164028   2.887   7.082   8.117
21262WAT     H264029   3.016   7.172   8.072
21263WAT      O64030   7.666   0.566   5.869
21263WAT     H164031   7.741   0.632   5.874
21263WAT     H264032   7.700   0.474   5.888
21264WAT      O64033   1.886   0.160   7.631
21264WAT     H164034   1.787   0.159   7.642
21264WAT     H264035   1.921   0.066   7.637
21265WAT      O64036   6.415   9.834   1.998
21265WAT     H164037   6.503   9.788   2.007
21265WAT     H264038   6.414   9.890   1.915
21266WAT      O64039   0.147   8.520   7.573
21266WAT     H164040   0.099   8.532   7.660
21266WAT     H264041   0.115   8.587   7.507
21267WAT      O64042   9.279   3.475   1.878
21267WAT     H164043   9.225   3.556   1.902
21267WAT     H264044   9.312   3.431   1.961
21268WAT      O64045   0.298   1.647   9.856
21268WAT     H164046   0.282   1.638   9.954
21268WAT     H264047   0.294   1.744   9.830
21269WAT      O64048   2.338   1.581   4.022
21269WAT     H164049   2.261   1.536   4.066
21269WAT     H264050   2.404   1.610   4.091
21270WAT      O64051   4.185   0.900   0.508
21270WAT     H164052   4.156   0.984   0.552
21270WAT     H264053   4.143   0.893   0.418
21271WAT      O64054   7.658   0.086   8.824
21271WAT     H164055   7.567   0.112   8.791
21271WAT     H264056   7.718   0.167   8.824
21272WAT      O64057   5.956   4.086   2.062
21272WAT     H164058   5.888   4.013   2.054
21272WAT     H264059   5.935   4.141   2.142
21273WAT      O64060   6.848   7.457   4.592
21273WAT     H164061   6.905   7.376   4.582
21273WAT     H264062   6.874   7.508   4.674
21274WAT      O64063   5.570   7.924   1.221
21274WAT     H164064   5.576   7.994   1.151
21274WAT     H264065   5.654   7.869   1.221
21275WAT      O64066   2.269   3.737   0.720
21275WAT     H164067   2.337   3.683   0.768
21275WAT     H264068   2.303   3.830   0.706
21276WAT      O64069   5.664   6.984   6.131
21276WAT     H164070   5.743   6.959   6.075
21276WAT     H264071   5.649   7.083   6.124
21277WAT      O64072   4.719   8.138   4.082
21277WAT     H164073   4.787   8.174   4.147
21277WAT     H264074   4.684   8.051   4.116
21278WAT      O64075   6.835   0.521   7.731
21278WAT     H164076   6.745   0.527   7.687
21278WAT     H264077   6.836   0.578   7.813
21279WAT      O64078   1.531   1.868   6.363
21279WAT     H164079   1.470   1.817   6.424
21279WAT     H264080   1.528   1.828   6.272
21280WAT      O64081   1.915   8.480   3.942
21280WAT     H164082   1.816   8.494   3.935
21280WAT     H264083   1.952   8.542   4.012
21281WAT      O64084   8.316   5.545   9.156
21281WAT     H164085   8.377   5.612   9.113
21281WAT     H264086   8.247   5.592   9.211
21282WAT      O64087   5.052   0.448   0.470
21282WAT     H164088   5.064   0.403   0.558
21282WAT     H264089   5.012   0.539   0.485
21283WAT      O64090   1.917   4.081   2.898
21283WAT     H164091   1.890   4.064   2.803
21283WAT     H264092   1.906   4.178   2.919
21284WAT      O64093   4.434   8.166   7.715
21284WAT     H164094   4.420   8.067   7.720
21284WAT     H264095   4.517   8.191   7.766
21285WAT      O64096   7.105   4.061   6.048
21285WAT     H164097   7.158   4.052   5.964
21285WAT     H264098   7.023   4.004   6.042
21286WAT      O64099   3.521   7.715   8.239
21286WAT     H164100   3.511   7.742   8.143
21286WAT     H264101   3.432   7.718   8.284
21287WAT      O64102   6.486   3.576   0.125
21287WAT     H164103   6.435   3.544   0.045
21287WAT     H264104   6.523   3.667   0.106
21288WAT      O64105   5.026   7.897   5.092
21288WAT     H164106   5.113   7.853   5.072
21288WAT     H264107   5.025   7.988   5.052
21289WAT      O64108   2.094   1.087   0.717
21289WAT     H164109   2.023   1.085   0.646
21289WAT     H264110   2.067   1.025   0.791
21290WAT      O64111   7.667   5.050   9.146
21290WAT     H164112   7.669   5.071   9.243
21290WAT     H264113   7.697   5.129   9.093
21291WAT      O64114   3.749   8.082   2.243
21291WAT     H164115   3.727   8.118   2.334
21291WAT     H264116   3.774   8.158   2.183
21292WAT      O64117   3.901   2.140   5.587
21292WAT     H164118   3.919   2.132   5.685
21292WAT     H264119   3.954   2.070   5.538
21293WAT      O64120   7.957   5.238   0.972
21293WAT     H164121   7.955   5.171   0.898
21293WAT     H264122   8.028   5.213   1.037
21294WAT      O64123   0.707   2.494   3.637
21294WAT     H164124   0.664   2.579   3.608
21294WAT     H264125   0.639   2.435   3.680
21295WAT      O64126   1.324   1.615   6.306
21295WAT     H164127   1.419   1.587   6.288
21295WAT     H264128   1.283   1.553   6.373
21296WAT      O64129   1.983   7.092   4.553
21296WAT     H164130   2.039   7.094   4.470
21296WAT     H264131   2.012   7.166   4.614
21297WAT      O64132   2.061   1.554   5.782
21297WAT     H164133   2.008   1.471   5.765
21297WAT     H264134   2.127   1.567   5.708
21298WAT      O64135   5.210   1.792   9.561
21298WAT     H164136   5.244   1.882   9.532
21298WAT     H264137   5.213   1.729   9.484
21299WAT      O64138   8.975   4.200   1.730
21299WAT     H164139   9.015   4.183   1.640
21299WAT     H264140   8.958   4.298   1.740
21300WAT      O64141   2.909   2.681   8.733
21300WAT     H164142   2.972   2.605   8.751
21300WAT     H264143   2.931   2.757   8.793
21301WAT      O64144   9.216   2.971   3.705
21301WAT     H164145   9.145   2.912   3.666
21301WAT     H264146   9.275   2.917   3.765
21302WAT      O64147   3.620   7.138   9.021
21302WAT     H164148   3.614   7.135   8.921
21302WAT     H264149   3.667   7.056   9.054
21303WAT      O64150   4.758   8.555   6.064
21303WAT     H164151   4.808   8.617   6.004
21303WAT     H264152   4.781   8.574   6.159
21304WAT      O64153   3.703   1.743   1.833
21304WAT     H164154   3.647   1.707   1.908
21304WAT     H264155   3.734   1.667   1.776
21305WAT      O64156   2.406   1.513   6.662
21305WAT     H164157   2.485   1.522   6.722
21305WAT     H264158   2.350   1.596   6.668
21306WAT      O64159   6.801   7.225   8.581
21306WAT     H164160   6.747   7.157   8.630
21306WAT     H264161   6.883   7.182   8.544
21307WAT      O64162   5.312   0.701   5.235
21307WAT     H164163   5.250   0.647   5.178
21307WAT     H264164   5.267   0.724   5.322
21308WAT      O64165   5.509   6.878   5.540
21308WAT     H164166   5.494   6.786   5.574
21308WAT     H264167   5.423   6.930   5.546
21309WAT      O64168   0.837   9.569   9.330
21309WAT     H164169   0.897   9.493   9.304
21309WAT     H264170   0.834   9.577   9.429
21310WAT      O64171   8.872   0.755   4.049
21310WAT     H164172   8.894   0.783   3.955
21310WAT     H264173   8.773   0.744   4.058
21311WAT      O64174   2.110   6.336   1.305
21311WAT     H164175   2.020   6.336   1.349
21311WAT     H264176   2.099   6.339   1.206
21312WAT      O64177   8.504   5.045   8.178
21312WAT     H164178   8.580   5.106   8.198
21312WAT     H264179   8.518   5.003   8.088
21313WAT      O64180   9.314   1.299   5.372
21313WAT     H164181   9.309   1.236   5.450
21313WAT     H264182   9.238   1.364   5.376
21314WAT      O64183   5.712   0.228   0.949
21314WAT     H164184   5.785   0.263   0.891
21314WAT     H264185   5.686   0.136   0.919
21315WAT      O64186   5.836   2.528   7.526
21315WAT     H164187   5.890   2.445   7.537
21315WAT     H264188   5.798   2.532   7.434
21316WAT      O64189   8.628   6.825   8.002
21316WAT     H164190   8.650   6.729   8.019
21316WAT     H264191   8.677   6.856   7.921
21317WAT      O64192   5.599   5.149   0.079
21317WAT     H164193   5.561   5.239   0.098
21317WAT     H264194   5.686   5.138   0.128
21318WAT      O64195   6.806   0.380   8.516
21318WAT     H164196   6.741   0.312   8.551
21318WAT     H264197   6.783   0.469   8.555
21319WAT      O64198   2.298   0.099   8.194
21319WAT     H164199   2.208   0.141   8.208
21319WAT     H264200   2.350   0.153   8.128
21320WAT      O64201   7.808   8.469   3.111
21320WAT     H164202   7.805   8.372   3.135
21320WAT     H264203   7.805   8.524   3.195
21321WAT      O64204   3.549   1.137   3.003
21321WAT     H164205   3.642   1.158   3.032
21321WAT     H264206   3.540   1.152   2.904
21322WAT      O64207   3.549   7.283   6.801
21322WAT     H164208   3.459   7.244   6.783
21322WAT     H264209   3.564   7.361   6.741
21323WAT      O64210   6.582   8.926   7.818
21323WAT     H164211   6.605   9.023   7.827
21323WAT     H264212   6.517   8.900   7.889
21324WAT      O64213   6.017   7.855   9.808
21324WAT     H164214   5.963   7.772   9.823
21324WAT     H264215   6.114   7.834   9.822
21325WAT      O64216   9.621   5.576   6.980
21325WAT     H164217   9.573   5.645   7.034
21325WAT     H264218   9.708   5.613   6.948
21326WAT      O64219   7.371   9.481   0.435
21326WAT     H164220   7.380   9.539   0.354
21326WAT     H264221   7.361   9.386   0.406
21327WAT      O64222   1.408   4.324   7.267
21327WAT     H164223   1.378   4.310   7.361
21327WAT     H264224   1.508   4.338   7.266
21328WAT      O64225   9.738   6.885   3.503
21328WAT     H164226   9.766   6.827   3.426
21328WAT     H264227   9.647   6.858   3.533
21329WAT      O64228   7.445   4.389   0.851
21329WAT     H164229   7.469   4.428   0.940
21329WAT     H264230   7.472   4.452   0.778
21330WAT      O64231   3.207   7.899   2.675
21330WAT     H164232   3.128   7.877   2.618
21330WAT     H264233   3.188   7.982   2.727
21331WAT      O64234   9.036   7.231   2.993
21331WAT     H164235   9.036   7.330   3.005
21331WAT     H264236   9.118   7.204   2.943
21332WAT      O64237   9.764   7.692   9.860
21332WAT     H164238   9.731   7.679   9.953
21332WAT     H264239   9.863   7.676   9.857
21333WAT      O64240   7.869   7.611   5.869
21333WAT     H164241   7.780   7.638   5.904
21333WAT     H264242   7.923   7.692   5.848
21334WAT      O64243   0.481   1.141   5.520
21334WAT     H164244   0.478   1.119   5.422
21334WAT     H264245   0.554   1.089   5.563
21335WAT      O64246   2.988   5.776   9.654
21335WAT     H164247   3.048   5.817   9.723
21335WAT     H264248   2.962   5.684   9.684
21336WAT      O64249   7.136   2.438   0.764
21336WAT     H164250   7.118   2.387   0.680
21336WAT     H264251   7.235   2.445   0.777
21337WAT      O64252   4.542   0.819   4.647
21337WAT     H164253   4.471   0.825   4.717
21337WAT     H264254   4.617   0.763   4.680
21338WAT      O64255   6.594   2.142   9.116
21338WAT     H164256   6.640   2.230   9.108
21338WAT     H264257   6.537   2.127   9.034
21339WAT      O64258   6.548   4.320   4.097
21339WAT     H164259   6.499   4.405   4.116
21339WAT     H264260   6.515   4.248   4.158
21340WAT      O64261   2.676   5.189   1.527
21340WAT     H164262   2.626   5.271   1.500
21340WAT     H264263   2.694   5.192   1.625
21341WAT      O64264   0.521   2.681   6.222
21341WAT     H164265   0.549   2.636   6.307
21341WAT     H264266   0.524   2.780   6.234
21342WAT      O64267   5.266   5.045   9.596
21342WAT     H164268   5.229   5.094   9.517
21342WAT     H264269   5.342   5.097   9.635
21343WAT      O64270   6.000   6.890   8.570
21343WAT     H164271   5.952   6.903   8.483
21343WAT     H264272   5.959   6.949   8.640
21344WAT      O64273   5.213   1.798   6.709
21344WAT     H164274   5.260   1.885   6.722
21344WAT     H264275   5.116   1.815   6.692
21345WAT      O64276   9.762   0.484   2.451
21345WAT     H164277   9.696   0.414   2.423
21345WAT     H264278   9.728   0.532   2.532
21346WAT      O64279   8.330   7.523   7.852
21346WAT     H164280   8.320   7.466   7.770
21346WAT     H264281   8.277   7.483   7.927
21347WAT      O64282   8.314   1.607   8.382
21347WAT     H164283   8.267   1.647   8.460
21347WAT     H264284   8.413   1.618   8.393
21348WAT      O64285   8.881   6.548   3.349
21348WAT     H164286   8.933   6.495   3.282
21348WAT     H264287   8.784   6.527   3.341
21349WAT      O64288   7.602   5.304   0.147
21349WAT     H164289   7.688   5.262   0.176
21349WAT     H264290   7.540   5.311   0.225
21350WAT      O64291   4.709   6.490   2.053
21350WAT     H164292   4.802   6.453   2.051
21350WAT     H264293   4.693   6.543   1.970
21351WAT      O64294   6.992   4.036   1.516
21351WAT     H164295   6.996   3.975   1.595
21351WAT     H264296   7.074   4.093   1.513
21352WAT      O64297   7.749   3.199   2.996
21352WAT     H164298   7.676   3.156   2.943
21352WAT     H264299   7.828   3.214   2.937
21353WAT      O64300   1.544   2.585   5.406
21353WAT     H164301   1.539   2.507   5.469
21353WAT     H264302   1.455   2.599   5.363
21354WAT      O64303   0.557   8.588   6.382
21354WAT     H164304   0.567   8.596   6.283
21354WAT     H264305   0.647   8.580   6.424
21355WAT      O64306   6.917   3.556   5.371
21355WAT     H164307   6.886   3.646   5.403
21355WAT     H264308   6.886   3.485   5.435
21356WAT      O64309   0.102   6.379   4.476
21356WAT     H164310   0.068   6.294   4.516
21356WAT     H264311   0.044   6.456   4.505
21357WAT      O64312   7.630   1.502   2.235
21357WAT     H164313   7.650   1.520   2.331
21357WAT     H264314   7.711   1.526   2.180
21358WAT      O64315   6.575   5.527   6.506
21358WAT     H164316   6.590   5.615   6.552
21358WAT     H264317   6.560   5.456   6.575
21359WAT      O64318   8.283   8.924   6.302
21359WAT     H164319   8.240   8.967   6.381
21359WAT     H264320   8.290   8.989   6.227
21360WAT      O64321   9.068   7.483   6.914
21360WAT     H164322   8.999   7.538   6.961
21360WAT     H264323   9.124   7.543   6.857
21361WAT      O64324   9.850   2.968   1.296
21361WAT     H164325   9.816   2.889   1.244
21361WAT     H264326   9.892   3.033   1.234
21362WAT      O64327   2.796   6.001   3.657
21362WAT     H164328   2.764   6.096   3.664
21362WAT     H264329   2.773   5.953   3.741
21363WAT      O64330   0.259   8.901   1.765
21363WAT     H164331   0.208   8.981   1.735
21363WAT     H264332   0.250   8.829   1.696
21364WAT      O64333   7.795   9.173   1.862
21364WAT     H164334   7.874   9.188   1.802
21364WAT     H264335   7.784   9.075   1.879
21365WAT      O64336   3.768   2.373   3.712
21365WAT     H164337   3.837   2.415   3.653
21365WAT     H264338   3.797   2.381   3.808
21366WAT      O64339   5.960   9.082   1.773
21366WAT     H164340   5.880   9.138   1.796
21366WAT     H264341   5.992   9.106   1.682
21367WAT      O64342   4.409   3.192   5.053
21367WAT     H164343   4.413   3.126   5.128
21367WAT     H264344   4.408   3.142   4.966
21368WAT      O64345   2.438   3.551   2.154
21368WAT     H164346   2.465   3.464   2.194
21368WAT     H264347   2.340   3.565   2.167
21369WAT      O64348   1.253   7.199   0.048
21369WAT     H164349   1.173   7.191  -0.010
21369WAT     H264350   1.246   7.134   0.124
21370WAT      O64351   4.907   7.442   1.889
21370WAT     H164352   4.908   7.533   1.932
21370WAT     H264353   4.923   7.373   1.959
21371WAT      O64354   2.745   1.771   7.772
21371WAT     H164355   2.776   1.692   7.825
21371WAT     H264356   2.822   1.809   7.721
21372WAT      O64357   0.576   7.289   1.245
21372WAT     H164358   0.507   7.313   1.177
21372WAT     H264359   0.631   7.212   1.212
21373WAT      O64360   5.650   7.109   0.367
21373WAT     H164361   5.679   7.182   0.306
21373WAT     H264362   5.699   7.024   0.343
21374WAT      O64363   9.476   8.142   7.181
21374WAT     H164364   9.463   8.095   7.268
21374WAT     H264365   9.539   8.090   7.124
21375WAT      O64366   0.915   9.810   6.653
21375WAT     H164367   0.854   9.880   6.615
21375WAT     H264368   1.008   9.845   6.658
21376WAT      O64369   8.208   7.724   6.869
21376WAT     H164370   8.245   7.637   6.836
21376WAT     H264371   8.202   7.789   6.793
21377WAT      O64372   1.056   4.721   6.977
21377WAT     H164373   1.052   4.679   7.067
21377WAT     H264374   1.046   4.820   6.986
21378WAT      O64375   4.256   2.294   6.592
21378WAT     H164376   4.338   2.350   6.574
21378WAT     H264377   4.223   2.313   6.685
21379WAT      O64378   8.659   7.602   5.719
21379WAT     H164379   8.618   7.645   5.800
21379WAT     H264380   8.616   7.513   5.703
21380WAT      O64381   1.399   8.264   0.663
21380WAT     H164382   1.489   8.233   0.694
21380WAT     H264383   1.328   8.208   0.706
21381WAT      O64384   7.086   1.192   6.927
21381WAT     H164385   7.008   1.173   6.985
21381WAT     H264386   7.121   1.284   6.946
21382WAT      O64387   2.139   1.751   1.062
21382WAT     H164388   2.049   1.791   1.049
21382WAT     H264389   2.129   1.658   1.099
21383WAT      O64390   8.596   4.910   8.656
21383WAT     H164391   8.627   4.899   8.750
21383WAT     H264392   8.582   4.820   8.614
21384WAT      O64393   5.983   8.268   7.707
21384WAT     H164394   6.017   8.320   7.629
21384WAT     H264395   5.968   8.330   7.784
21385WAT      O64396   7.106   1.569   3.270
21385WAT     H164397   7.192   1.519   3.263
21385WAT     H264398   7.074   1.567   3.365
21386WAT      O64399   7.737   9.339   6.492
21386WAT     H164400   7.701   9.323   6.584
21386WAT     H264401   7.822   9.289   6.480
21387WAT      O64402   8.141   1.777   2.548
21387WAT     H164403   8.172   1.707   2.613
21387WAT     H264404   8.162   1.867   2.585
21388WAT      O64405   6.395   9.435   9.208
21388WAT     H164406   6.384   9.368   9.134
21388WAT     H264407   6.449   9.394   9.281
21389WAT      O64408   1.592   9.201   0.090
21389WAT     H164409   1.663   9.244   0.033
21389WAT     H264410   1.516   9.266   0.102
21390WAT      O64411   2.734   5.916   4.742
21390WAT     H164412   2.774   5.827   4.719
21390WAT     H264413   2.671   5.905   4.818
21391WAT      O64414   5.117   5.453   4.116
21391WAT     H164415   5.153   5.545   4.099
21391WAT     H264416   5.154   5.419   4.203
21392WAT      O64417   5.376   6.504   5.796
21392WAT     H164418   5.350   6.562   5.874
21392WAT     H264419   5.326   6.418   5.800
21393WAT      O64420   9.422   6.229   1.071
21393WAT     H164421   9.409   6.230   0.972
21393WAT     H264422   9.338   6.197   1.115
21394WAT      O64423   3.447   3.200   0.805
21394WAT     H164424   3.523   3.202   0.740
21394WAT     H264425   3.382   3.273   0.783
21395WAT      O64426   2.166   8.109   7.779
21395WAT     H164427   2.157   8.010   7.770
21395WAT     H264428   2.180   8.149   7.688
21396WAT      O64429   6.113   6.915   8.140
21396WAT     H164430   6.018   6.886   8.154
21396WAT     H264431   6.120   6.962   8.052
21397WAT      O64432   5.101   5.719   4.926
21397WAT     H164433   5.076   5.738   5.021
21397WAT     H264434   5.153   5.795   4.889
21398WAT      O64435   0.513   3.139   3.922
21398WAT     H164436   0.505   3.227   3.969
21398WAT     H264437   0.444   3.076   3.957
21399WAT      O64438   8.549   5.952   7.863
21399WAT     H164439   8.558   6.027   7.798
21399WAT     H264440   8.632   5.896   7.862
21400WAT      O64441   8.134   2.367   0.996
21400WAT     H164442   8.185   2.448   1.026
21400WAT     H264443   8.187   2.319   0.926
21401WAT      O64444   5.448   5.587   4.951
21401WAT     H164445   5.504   5.553   5.026
21401WAT     H264446   5.494   5.666   4.909
21402WAT      O64447   4.116   4.483   3.971
21402WAT     H164448   4.109   4.496   3.872
21402WAT     H264449   4.191   4.539   4.006
21403WAT      O64450   0.397   9.415   4.880
21403WAT     H164451   0.406   9.514   4.871
21403WAT     H264452   0.473   9.371   4.832
21404WAT      O64453   6.244   2.230   5.843
21404WAT     H164454   6.310   2.170   5.798
21404WAT     H264455   6.248   2.322   5.802
21405WAT      O64456   6.654   1.648   7.852
21405WAT     H164457   6.678   1.629   7.757
21405WAT     H264458   6.594   1.728   7.856
21406WAT      O64459   1.758   4.007   4.476
21406WAT     H164460   1.810   4.037   4.556
21406WAT     H264461   1.686   3.944   4.505
21407WAT      O64462   3.783   8.522   2.330
21407WAT     H164463   3.727   8.549   2.408
21407WAT     H264464   3.858   8.464   2.361
21408WAT      O64465   8.621   7.825   3.742
21408WAT     H164466   8.628   7.732   3.780
21408WAT     H264467   8.630   7.821   3.643
21409WAT      O64468   0.710   8.680   0.576
21409WAT     H164469   0.749   8.626   0.501
21409WAT     H264470   0.612   8.692   0.560
21410WAT      O64471   8.814   8.847   7.112
21410WAT     H164472   8.912   8.827   7.107
21410WAT     H264473   8.799   8.923   7.174
21411WAT      O64474   4.485   7.262   6.391
21411WAT     H164475   4.443   7.263   6.300
21411WAT     H264476   4.496   7.168   6.422
21412WAT      O64477   0.572   2.044   0.547
21412WAT     H164478   0.553   1.945   0.542
21412WAT     H264479   0.494   2.090   0.591
21413WAT      O64480   9.386   2.750   0.894
21413WAT     H164481   9.409   2.842   0.927
21413WAT     H264482   9.430   2.682   0.952
21414WAT      O64483   7.781   8.448   1.063
21414WAT     H164484   7.719   8.514   1.019
21414WAT     H264485   7.765   8.357   1.025
21415WAT      O64486   1.377   0.167   7.549
21415WAT     H164487   1.294   0.119   7.522
21415WAT     H264488   1.369   0.198   7.643
21416WAT      O64489   1.011   2.569   1.206
21416WAT     H164490   1.015   2.502   1.132
21416WAT     H264491   0.950   2.644   1.180
21417WAT      O64492   6.177   7.982   7.335
21417WAT     H164493   6.090   7.990   7.384
21417WAT     H264494   6.186   7.889   7.299
21418WAT      O64495   6.602   3.178   2.192
21418WAT     H164496   6.525   3.116   2.212
21418WAT     H264497   6.627   3.227   2.275
21419WAT      O64498   3.827   8.146   8.431
21419WAT     H164499   3.926   8.131   8.440
21419WAT     H264500   3.784   8.062   8.398
21420WAT      O64501   8.330   0.718   2.374
21420WAT     H164502   8.346   0.649   2.304
21420WAT     H264503   8.398   0.709   2.446
21421WAT      O64504   9.213   3.654   8.114
21421WAT     H164505   9.145   3.590   8.147
21421WAT     H264506   9.253   3.704   8.192
21422WAT      O64507   2.065   6.082   1.616
21422WAT     H164508   2.158   6.088   1.651
21422WAT     H264509   2.009   6.154   1.658
21423WAT      O64510   0.951   5.123   0.846
21423WAT     H164511   1.032   5.167   0.884
21423WAT     H264512   0.940   5.150   0.750
21424WAT      O64513   7.877   5.485   6.457
21424WAT     H164514   7.940   5.415   6.491
21424WAT     H264515   7.783   5.458   6.476
21425WAT      O64516   0.719   8.187   8.674
21425WAT     H164517   0.692   8.272   8.719
21425WAT     H264518   0.727   8.202   8.576
21426WAT      O64519   6.697   5.662   7.317
21426WAT     H164520   6.742   5.661   7.228
21426WAT     H264521   6.703   5.572   7.359
21427WAT      O64522   9.745   8.702   8.198
21427WAT     H164523   9.732   8.622   8.257
21427WAT     H264524   9.708   8.682   8.107
21428WAT      O64525   3.924   1.201   7.215
21428WAT     H164526   3.942   1.288   7.261
21428WAT     H264527   3.959   1.205   7.122
21429WAT      O64528   9.599   7.483   7.973
21429WAT     H164529   9.615   7.520   8.064
21429WAT     H264530   9.621   7.386   7.971
21430WAT      O64531   9.124   0.363   3.681
21430WAT     H164532   9.155   0.443   3.629
21430WAT     H264533   9.089   0.294   3.618
21431WAT      O64534   2.275   4.732   9.547
21431WAT     H164535   2.282   4.712   9.645
21431WAT     H264536   2.222   4.816   9.534
21432WAT      O64537   1.721   7.318   1.944
21432WAT     H164538   1.723   7.287   2.039
21432WAT     H264539   1.807   7.295   1.899
21433WAT      O64540   6.480   1.309   3.277
21433WAT     H164541   6.497   1.264   3.189
21433WAT     H264542   6.382   1.307   3.297
21434WAT      O64543   1.967   9.830   7.033
21434WAT     H164544   1.886   9.884   7.055
21434WAT     H264545   1.958   9.794   6.940
21435WAT      O64546   3.617   6.796   7.159
21435WAT     H164547   3.577   6.887   7.167
21435WAT     H264548   3.627   6.773   7.062
21436WAT      O64549   1.221   9.658   0.969
21436WAT     H164550   1.130   9.675   0.930
21436WAT     H264551   1.214   9.656   1.069
21437WAT      O64552   4.241   4.909   9.328
21437WAT     H164553   4.302   4.960   9.389
21437WAT     H264554   4.292   4.878   9.248
21438WAT      O64555   3.977   2.312   1.469
21438WAT     H164556   4.039   2.308   1.391
21438WAT     H264557   3.904   2.245   1.457
21439WAT      O64558   4.690   1.067   8.416
21439WAT     H164559   4.622   1.134   8.384
21439WAT     H264560   4.684   1.058   8.515
21440WAT      O64561   0.260   3.640   4.475
21440WAT     H164562   0.258   3.562   4.414
21440WAT     H264563   0.329   3.626   4.547
21441WAT      O64564   2.540   1.999   7.602
21441WAT     H164565   2.560   1.901   7.599
21441WAT     H264566   2.570   2.036   7.690
21442WAT      O64567   8.803   4.295   7.563
21442WAT     H164568   8.787   4.271   7.467
21442WAT     H264569   8.715   4.319   7.606
21443WAT      O64570   5.103   9.654   3.488
21443WAT     H164571   5.171   9.586   3.516
21443WAT     H264572   5.059   9.693   3.570
21444WAT      O64573   4.410   3.278   0.618
21444WAT     H164574   4.438   3.369   0.587
21444WAT     H264575   4.327   3.250   0.570
21445WAT      O64576   5.615   0.478   9.279
21445WAT     H164577   5.641   0.518   9.191
21445WAT     H264578   5.616   0.548   9.350
21446WAT      O64579   5.187   8.156   4.786
21446WAT     H164580   5.146   8.239   4.822
21446WAT     H264581   5.263   8.128   4.845
21447WAT      O64582   4.279   2.614   0.632
21447WAT     H164583   4.266   2.695   0.574
21447WAT     H264584   4.190   2.581   0.664
21448WAT      O64585   9.336   6.450   9.741
21448WAT     H164586   9.410   6.415   9.683
21448WAT     H264587   9.319   6.385   9.816
21449WAT      O64588   6.766   3.351   8.816
21449WAT     H164589   6.832   3.426   8.807
21449WAT     H264590   6.694   3.377   8.880
21450WAT      O64591   1.655   1.478   8.458
21450WAT     H164592   1.572   1.519   8.421
21450WAT     H264593   1.653   1.379   8.442
21451WAT      O64594   8.632   6.233   6.291
21451WAT     H164595   8.670   6.310   6.240
21451WAT     H264596   8.704   6.167   6.309
21452WAT      O64597   2.506   4.398   8.062
21452WAT     H164598   2.551   4.331   8.003
21452WAT     H264599   2.444   4.453   8.007
21453WAT      O64600   2.402   5.366   8.308
21453WAT     H164601   2.450   5.382   8.221
21453WAT     H264602   2.411   5.446   8.367
21454WAT      O64603   6.739   9.697   2.315
21454WAT     H164604   6.703   9.789   2.332
21454WAT     H264605   6.706   9.665   2.226
21455WAT      O64606   9.793   5.185   0.277
21455WAT     H164607   9.838   5.228   0.199
21455WAT     H264608   9.695   5.205   0.274
21456WAT      O64609   2.349   2.046   2.317
21456WAT     H164610   2.382   2.108   2.246
21456WAT     H264611   2.408   2.051   2.397
21457WAT      O64612   7.460   2.958   7.592
21457WAT     H164613   7.417   3.041   7.628
21457WAT     H264614   7.425   2.879   7.642
21458WAT      O64615   6.410   3.084   1.116
21458WAT     H164616   6.375   3.004   1.165
21458WAT     H264617   6.354   3.164   1.140
21459WAT      O64618   4.054   6.716   7.082
21459WAT     H164619   4.115   6.795   7.092
21459WAT     H264620   4.059   6.660   7.164
21460WAT      O64621   6.634   7.167   2.622
21460WAT     H164622   6.728   7.196   2.640
21460WAT     H264623   6.575   7.248   2.617
21461WAT      O64624   7.708   3.398   7.408
21461WAT     H164625   7.749   3.490   7.406
21461WAT     H264626   7.710   3.362   7.501
21462WAT      O64627   1.355   5.945   5.659
21462WAT     H164628   1.263   5.947   5.699
21462WAT     H264629   1.387   5.850   5.655
21463WAT      O64630   1.398   0.469   7.988
21463WAT     H164631   1.302   0.443   7.977
21463WAT     H264632   1.409   0.566   7.966
21464WAT      O64633   7.960   8.151   3.353
21464WAT     H164634   8.022   8.177   3.428
21464WAT     H264635   8.009   8.156   3.266
21465WAT      O64636   2.164   1.680   6.250
21465WAT     H164637   2.161   1.720   6.158
21465WAT     H264638   2.260   1.668   6.278
21466WAT      O64639   3.968   7.335   1.883
21466WAT     H164640   4.030   7.372   1.952
21466WAT     H264641   3.922   7.254   1.920
21467WAT      O64642   3.838   3.912   1.363
21467WAT     H164643   3.797   3.951   1.445
21467WAT     H264644   3.786   3.941   1.282
21468WAT      O64645   3.733   5.957   4.553
21468WAT     H164646   3.770   5.877   4.600
21468WAT     H264647   3.748   5.948   4.454
21469WAT      O64648   0.316   8.512   4.813
21469WAT     H164649   0.384   8.515   4.741
21469WAT     H264650   0.341   8.575   4.887
21470WAT      O64651   1.222   6.988   7.056
21470WAT     H164652   1.284   7.030   7.123
21470WAT     H264653   1.273   6.923   7.000
21471WAT      O64654   6.677   6.455   0.534
21471WAT     H164655   6.632   6.477   0.620
21471WAT     H264656   6.680   6.355   0.522
21472WAT      O64657   7.836   9.592   8.081
21472WAT     H164658   7.778   9.622   8.005
21472WAT     H264659   7.896   9.518   8.049
21473WAT      O64660   1.161   7.828   4.404
21473WAT     H164661   1.192   7.844   4.311
21473WAT     H264662   1.099   7.902   4.432
21474WAT      O64663   8.215   3.402   6.890
21474WAT     H164664   8.249   3.490   6.856
21474WAT     H264665   8.206   3.406   6.990
21475WAT      O64666   8.119   7.916   1.619
21475WAT     H164667   8.203   7.874   1.653
21475WAT     H264668   8.047   7.846   1.612
21476WAT      O64669   0.927   0.291   3.323
21476WAT     H164670   0.838   0.314   3.362
21476WAT     H264671   0.986   0.372   3.326
21477WAT      O64672   4.952   2.412   3.747
21477WAT     H164673   4.975   2.405   3.844
21477WAT     H264674   4.938   2.508   3.723
21478WAT      O64675   4.133   5.386   3.352
21478WAT     H164676   4.222   5.428   3.368
21478WAT     H264677   4.141   5.317   3.280
21479WAT      O64678   7.874   3.373   7.055
21479WAT     H164679   7.888   3.285   7.102
21479WAT     H264680   7.954   3.431   7.069
21480WAT      O64681   0.072   4.963   1.201
21480WAT     H164682  -0.001   4.940   1.265
21480WAT     H264683   0.128   4.881   1.184
21481WAT      O64684   3.115   9.208   1.487
21481WAT     H164685   3.125   9.151   1.406
21481WAT     H264686   3.203   9.215   1.535
21482WAT      O64687   2.277   4.851   1.116
21482WAT     H164688   2.278   4.833   1.215
21482WAT     H264689   2.299   4.767   1.067
21483WAT      O64690   6.252   3.470   5.986
21483WAT     H164691   6.314   3.402   5.949
21483WAT     H264692   6.305   3.542   6.032
21484WAT      O64693   3.139   1.255   9.279
21484WAT     H164694   3.069   1.315   9.241
21484WAT     H264695   3.097   1.175   9.321
21485WAT      O64696   2.645   6.252   9.508
21485WAT     H164697   2.649   6.152   9.498
21485WAT     H264698   2.642   6.275   9.606
21486WAT      O64699   3.130   2.399   2.778
21486WAT     H164700   3.127   2.358   2.869
21486WAT     H264701   3.225   2.405   2.747
21487WAT      O64702   8.716   6.661   0.662
21487WAT     H164703   8.711   6.760   0.673
21487WAT     H264704   8.717   6.617   0.752
21488WAT      O64705   9.572   1.665   0.454
21488WAT     H164706   9.538   1.736   0.392
21488WAT     H264707   9.669   1.681   0.473
21489WAT      O64708   4.228   8.047   2.585
21489WAT     H164709   4.132   8.042   2.560
21489WAT     H264710   4.283   8.066   2.504
21490WAT      O64711   7.793   1.754   1.742
21490WAT     H164712   7.864   1.773   1.810
21490WAT     H264713   7.823   1.678   1.684
21491WAT      O64714   5.994   9.373   2.542
21491WAT     H164715   5.939   9.390   2.624
21491WAT     H264716   6.091   9.367   2.567
21492WAT      O64717   0.289   9.089   5.394
21492WAT     H164718   0.327   9.177   5.364
21492WAT     H264719   0.362   9.034   5.436
21493WAT      O64720   8.195   2.360   0.596
21493WAT     H164721   8.167   2.453   0.615
21493WAT     H264722   8.177   2.339   0.500
21494WAT      O64723   2.809   6.497   3.028
21494WAT     H164724   2.869   6.474   2.951
21494WAT     H264725   2.865   6.527   3.106
21495WAT      O64726   9.296   4.314   0.787
21495WAT     H164727   9.393   4.314   0.763
21495WAT     H264728   9.244   4.271   0.713
21496WAT      O64729   7.551   9.386   2.087
21496WAT     H164730   7.650   9.388   2.075
21496WAT     H264731   7.511   9.321   2.022
21497WAT      O64732   9.737   9.620   2.382
21497WAT     H164733   9.655   9.635   2.437
21497WAT     H264734   9.815   9.666   2.425
21498WAT      O64735   4.863   8.876   3.116
21498WAT     H164736   4.857   8.968   3.153
21498WAT     H264737   4.890   8.812   3.188
21499WAT      O64738   6.414   3.719   6.684
21499WAT     H164739   6.376   3.626   6.684
21499WAT     H264740   6.418   3.754   6.590
21500WAT      O64741   4.554   4.068   6.129
21500WAT     H164742   4.469   4.064   6.076
21500WAT     H264743   4.605   3.983   6.116
21501WAT      O64744   5.403   3.400   2.570
21501WAT     H164745   5.390   3.474   2.636
21501WAT     H264746   5.406   3.313   2.619
21502WAT      O64747   2.050   0.187   1.905
21502WAT     H164748   2.032   0.284   1.894
21502WAT     H264749   2.145   0.174   1.934
21503WAT      O64750   0.106   6.754   3.659
21503WAT     H164751   0.027   6.731   3.601
21503WAT     H264752   0.083   6.834   3.715
21504WAT      O64753   4.206   2.372   7.160
21504WAT     H164754   4.174   2.280   7.137
21504WAT     H264755   4.286   2.365   7.219
21505WAT      O64756   1.870   0.622   3.496
21505WAT     H164757   1.902   0.653   3.585
21505WAT     H264758   1.883   0.523   3.489
21506WAT      O64759   0.017   5.095   4.792
21506WAT     H164760  -0.055   5.039   4.835
21506WAT     H264761  -0.015   5.127   4.703
21507WAT      O64762   6.734   8.353   8.268
21507WAT     H164763   6.690   8.402   8.343
21507WAT     H264764   6.668   8.338   8.194
21508WAT      O64765   4.350   0.691   4.517
21508WAT     H164766   4.258   0.707   4.551
21508WAT     H264767   4.415   0.745   4.569
21509WAT      O64768   9.780   5.942   7.358
21509WAT     H164769   9.699   5.942   7.300
21509WAT     H264770   9.759   5.897   7.444
21510WAT      O64771   2.002   0.512   7.361
21510WAT     H164772   1.989   0.552   7.270
21510WAT     H264773   2.019   0.584   7.428
21511WAT      O64774   0.403   9.304   4.291
21511WAT     H164775   0.397   9.215   4.244
21511WAT     H264776   0.402   9.377   4.223
21512WAT      O64777   1.817   9.007   9.494
21512WAT     H164778   1.751   9.027   9.566
21512WAT     H264779   1.851   9.093   9.455
21513WAT      O64780   1.775   0.688   1.556
21513WAT     H164781   1.822   0.606   1.590
21513WAT     H264782   1.736   0.738   1.633
21514WAT      O64783   1.986   8.768   9.596
21514WAT     H164784   1.940   8.852   9.624
21514WAT     H264785   2.032   8.727   9.675
21515WAT      O64786   3.965   0.886   7.313
21515WAT     H164787   3.990   0.954   7.245
21515WAT     H264788   3.888   0.831   7.280
21516WAT      O64789   0.775   9.499   1.004
21516WAT     H164790   0.727   9.526   1.087
21516WAT     H264791   0.834   9.420   1.025
21517WAT      O64792   7.896   1.345   3.098
21517WAT     H164793   7.964   1.291   3.146
21517WAT     H264794   7.938   1.388   3.018
21518WAT      O64795   2.642   9.336   9.510
21518WAT     H164796   2.582   9.310   9.435
21518WAT     H264797   2.724   9.381   9.473
21519WAT      O64798   5.928   0.972   1.598
21519WAT     H164799   5.845   0.919   1.614
21519WAT     H264800   5.989   0.964   1.677
21520WAT      O64801   7.335   0.784   3.272
21520WAT     H164802   7.424   0.824   3.250
21520WAT     H264803   7.272   0.857   3.299
21521WAT      O64804   3.856   3.722   4.212
21521WAT     H164805   3.928   3.780   4.174
21521WAT     H264806   3.834   3.753   4.305
21522WAT      O64807   2.486   7.619   1.939
21522WAT     H164808   2.391   7.589   1.946
21522WAT     H264809   2.541   7.573   2.009
21523WAT      O64810   0.791   1.723   4.885
21523WAT     H164811   0.758   1.817   4.876
21523WAT     H264812   0.714   1.660   4.877
21524WAT      O64813   1.524   9.647   7.707
21524WAT     H164814   1.610   9.598   7.719
21524WAT     H264815   1.468   9.636   7.790
21525WAT      O64816   1.634   6.579   5.500
21525WAT     H164817   1.701   6.597   5.572
21525WAT     H264818   1.673   6.518   5.432
21526WAT      O64819   1.723   7.248   7.579
21526WAT     H164820   1.642   7.259   7.637
21526WAT     H264821   1.710   7.297   7.493
21527WAT      O64822   1.977   8.730   7.851
21527WAT     H164823   1.885   8.766   7.861
21527WAT     H264824   2.014   8.758   7.762
21528WAT      O64825   2.319   9.656   1.104
21528WAT     H164826   2.341   9.559   1.093
21528WAT     H264827   2.242   9.665   1.168
21529WAT      O64828   6.099   5.058   4.157
21529WAT     H164829   6.106   5.148   4.114
21529WAT     H264830   6.165   5.051   4.232
21530WAT      O64831   1.637   6.167   1.736
21530WAT     H164832   1.596   6.151   1.646
21530WAT     H264833   1.582   6.233   1.786
21531WAT      O64834   5.919   8.678   3.142
21531WAT     H164835   5.961   8.768   3.127
21531WAT     H264836   5.989   8.612   3.167
21532WAT      O64837   8.002   5.214   8.932
21532WAT     H164838   8.088   5.204   8.883
21532WAT     H264839   7.926   5.214   8.867
21533WAT      O64840   2.038   4.591   6.070
21533WAT     H164841   1.997   4.674   6.032
21533WAT     H264842   2.117   4.616   6.127
21534WAT      O64843   8.350   7.061   5.569
21534WAT     H164844   8.341   7.085   5.665
21534WAT     H264845   8.446   7.044   5.547
21535WAT      O64846   4.854   1.974   5.800
21535WAT     H164847   4.791   1.970   5.722
21535WAT     H264848   4.939   2.019   5.772
21536WAT      O64849   1.299   3.541   5.374
21536WAT     H164850   1.298   3.477   5.297
21536WAT     H264851   1.259   3.629   5.345
21537WAT      O64852   4.491   4.874   5.731
21537WAT     H164853   4.567   4.810   5.719
21537WAT     H264854   4.453   4.898   5.641
21538WAT      O64855   3.261   2.850   8.852
21538WAT     H164856   3.293   2.763   8.890
21538WAT     H264857   3.172   2.874   8.892
21539WAT      O64858   2.295   7.785   0.732
21539WAT     H164859   2.364   7.744   0.792
21539WAT     H264860   2.335   7.806   0.643
21540WAT      O64861   0.123   8.577   6.290
21540WAT     H164862   0.092   8.662   6.247
21540WAT     H264863   0.194   8.598   6.357
21541WAT      O64864   7.226   9.072   8.391
21541WAT     H164865   7.187   9.058   8.300
21541WAT     H264866   7.164   9.036   8.460
21542WAT      O64867   9.852   0.139   6.380
21542WAT     H164868   9.813   0.052   6.410
21542WAT     H264869   9.820   0.213   6.440
21543WAT      O64870   1.765   4.677   2.418
21543WAT     H164871   1.862   4.670   2.441
21543WAT     H264872   1.755   4.736   2.337
21544WAT      O64873   8.924   9.218   5.152
21544WAT     H164874   8.944   9.305   5.105
21544WAT     H264875   8.825   9.202   5.151
21545WAT      O64876   5.757   0.437   5.370
21545WAT     H164877   5.707   0.497   5.307
21545WAT     H264878   5.735   0.462   5.464
21546WAT      O64879   9.812   6.986   2.845
21546WAT     H164880   9.901   6.984   2.891
21546WAT     H264881   9.825   6.987   2.746
21547WAT      O64882   3.681   5.939   0.882
21547WAT     H164883   3.732   5.942   0.967
21547WAT     H264884   3.743   5.927   0.805
21548WAT      O64885   7.775   6.614   8.999
21548WAT     H164886   7.792   6.516   9.013
21548WAT     H264887   7.783   6.662   9.086
21549WAT      O64888   4.421   6.609   3.555
21549WAT     H164889   4.337   6.564   3.584
21549WAT     H264890   4.414   6.707   3.574
21550WAT      O64891   3.866   5.761   1.284
21550WAT     H164892   3.790   5.699   1.265
21550WAT     H264893   3.842   5.822   1.360
21551WAT      O64894   4.009   7.288   3.291
21551WAT     H164895   4.003   7.244   3.201
21551WAT     H264896   4.077   7.239   3.346
21552WAT      O64897   2.626   1.039   5.166
21552WAT     H164898   2.599   1.040   5.070
21552WAT     H264899   2.634   0.945   5.198
21553WAT      O64900   8.495   4.438   3.866
21553WAT     H164901   8.507   4.341   3.847
21553WAT     H264902   8.505   4.490   3.781
21554WAT      O64903   5.618   9.038   1.616
21554WAT     H164904   5.692   8.978   1.645
21554WAT     H264905   5.531   8.990   1.625
21555WAT      O64906   0.049   9.146   6.086
21555WAT     H164907   0.014   9.098   6.006
21555WAT     H264908  -0.014   9.133   6.163
21556WAT      O64909   1.225   7.154   5.316
21556WAT     H164910   1.294   7.172   5.386
21556WAT     H264911   1.144   7.209   5.333
21557WAT      O64912   2.931   1.531   1.041
21557WAT     H164913   2.905   1.553   1.135
21557WAT     H264914   2.949   1.433   1.034
21558WAT      O64915   4.563   9.591   0.389
21558WAT     H164916   4.548   9.581   0.290
21558WAT     H264917   4.540   9.505   0.434
21559WAT      O64918   5.941   5.830   4.038
21559WAT     H164919   5.991   5.749   4.070
21559WAT     H264920   5.931   5.895   4.113
21560WAT      O64921   2.328   2.876   5.022
21560WAT     H164922   2.361   2.827   4.942
21560WAT     H264923   2.283   2.812   5.084
21561WAT      O64924   5.378   6.769   1.191
21561WAT     H164925   5.297   6.822   1.167
21561WAT     H264926   5.386   6.764   1.291
21562WAT      O64927   6.648   4.212   0.277
21562WAT     H164928   6.589   4.220   0.357
21562WAT     H264929   6.734   4.261   0.293
21563WAT      O64930   6.883   9.132   4.683
21563WAT     H164931   6.930   9.216   4.709
21563WAT     H264932   6.862   9.078   4.765
21564WAT      O64933   3.272   6.637   9.465
21564WAT     H164934   3.216   6.560   9.495
21564WAT     H264935   3.221   6.692   9.399
21565WAT      O64936   0.106   0.648   1.121
21565WAT     H164937   0.157   0.614   1.200
21565WAT     H264938   0.167   0.656   1.042
21566WAT      O64939   2.917   4.377   7.863
21566WAT     H164940   2.842   4.310   7.861
21566WAT     H264941   2.934   4.404   7.958
21567WAT      O64942   2.274   8.653   4.599
21567WAT     H164943   2.246   8.581   4.536
21567WAT     H264944   2.345   8.619   4.660
21568WAT      O64945   8.966   8.866   6.566
21568WAT     H164946   9.053   8.838   6.608
21568WAT     H264947   8.985   8.914   6.481
21569WAT      O64948   0.075   0.282   1.365
21569WAT     H164949   0.130   0.366   1.361
21569WAT     H264950   0.090   0.237   1.453
21570WAT      O64951   8.511   4.554   2.008
21570WAT     H164952   8.441   4.496   1.964
21570WAT     H264953   8.469   4.603   2.084
21571WAT      O64954   2.284   8.076   4.608
21571WAT     H164955   2.279   8.029   4.697
21571WAT     H264956   2.340   8.021   4.546
21572WAT      O64957   2.025   4.502   9.657
21572WAT     H164958   2.090   4.456   9.717
21572WAT     H264959   2.004   4.593   9.693
21573WAT      O64960   4.296   1.450   7.486
21573WAT     H164961   4.226   1.379   7.480
21573WAT     H264962   4.264   1.523   7.547
21574WAT      O64963   1.505   5.207   1.734
21574WAT     H164964   1.507   5.135   1.802
21574WAT     H264965   1.441   5.183   1.661
21575WAT      O64966   7.733   5.437   0.978
21575WAT     H164967   7.822   5.392   0.969
21575WAT     H264968   7.690   5.408   1.064
21576WAT      O64969   5.618   9.782   7.590
21576WAT     H164970   5.669   9.791   7.676
21576WAT     H264971   5.615   9.686   7.563
21577WAT      O64972   7.051   4.540   2.816
21577WAT     H164973   7.076   4.486   2.897
21577WAT     H264974   6.965   4.588   2.834
21578WAT      O64975   5.794   3.127   8.131
21578WAT     H164976   5.716   3.185   8.154
21578WAT     H264977   5.876   3.183   8.120
21579WAT      O64978   0.725   8.694   9.853
21579WAT     H164979   0.658   8.713   9.925
21579WAT     H264980   0.804   8.646   9.892
21580WAT      O64981   8.464   4.239   4.230
21580WAT     H164982   8.546   4.287   4.198
21580WAT     H264983   8.400   4.305   4.270
21581WAT      O64984   7.247   3.821   9.288
21581WAT     H164985   7.325   3.758   9.287
21581WAT     H264986   7.258   3.886   9.363
21582WAT      O64987   9.458   5.243   0.772
21582WAT     H164988   9.489   5.330   0.810
21582WAT     H264989   9.383   5.207   0.826
21583WAT      O64990   8.371   6.203   6.383
21583WAT     H164991   8.445   6.196   6.316
21583WAT     H264992   8.372   6.123   6.442
21584WAT      O64993   8.757   5.088   5.779
21584WAT     H164994   8.771   5.186   5.794
21584WAT     H264995   8.751   5.069   5.681
21585WAT      O64996   8.811   2.024   2.583
21585WAT     H164997   8.905   1.992   2.579
21585WAT     H264998   8.791   2.080   2.502
21586WAT      O64999   3.026   1.386   8.290
21586WAT     H165000   2.935   1.408   8.325
21586WAT     H265001   3.076   1.334   8.359
21587WAT      O65002   1.532   0.200   2.752
21587WAT     H165003   1.495   0.292   2.739
21587WAT     H265004   1.593   0.177   2.677
21588WAT      O65005   7.538   2.966   8.662
21588WAT     H165006   7.628   3.007   8.651
21588WAT     H265007   7.517   2.956   8.759
21589WAT      O65008   6.582   9.319   6.165
21589WAT     H165009   6.526   9.239   6.143
21589WAT     H265010   6.559   9.395   6.104
21590WAT      O65011   9.227   9.312   2.363
21590WAT     H165012   9.192   9.403   2.340
21590WAT     H265013   9.177   9.243   2.312
21591WAT      O65014   1.626   4.895   0.923
21591WAT     H165015   1.634   4.993   0.935
21591WAT     H265016   1.679   4.848   0.994
21592WAT      O65017   3.416   6.675   1.392
21592WAT     H165018   3.512   6.648   1.403
21592WAT     H265019   3.410   6.773   1.376
21593WAT      O65020   1.204   5.307   9.553
21593WAT     H165021   1.204   5.232   9.487
21593WAT     H265022   1.119   5.358   9.546
21594WAT      O65023   4.591   0.201   9.757
21594WAT     H165024   4.572   0.151   9.673
21594WAT     H265025   4.663   0.155   9.808
21595WAT      O65026   2.524   1.479   2.718
21595WAT     H165027   2.446   1.460   2.778
21595WAT     H265028   2.521   1.574   2.687
21596WAT      O65029   3.773   7.703   7.888
21596WAT     H165030   3.798   7.799   7.879
21596WAT     H265031   3.685   7.696   7.935
21597WAT      O65032   3.316   2.871   9.258
21597WAT     H165033   3.336   2.928   9.337
21597WAT     H265034   3.369   2.903   9.179
21598WAT      O65035   4.367   5.648   8.357
21598WAT     H165036   4.286   5.611   8.403
21598WAT     H265037   4.341   5.684   8.267
21599WAT      O65038   0.741   5.037   1.705
21599WAT     H165039   0.657   5.036   1.760
21599WAT     H265040   0.775   4.943   1.696
21600WAT      O65041   1.624   0.266   4.670
21600WAT     H165042   1.622   0.181   4.618
21600WAT     H265043   1.689   0.330   4.627
21601WAT      O65044   3.868   5.620   4.404
21601WAT     H165045   3.834   5.701   4.356
21601WAT     H265046   3.899   5.552   4.337
21602WAT      O65047   1.728   6.658   2.066
21602WAT     H165048   1.773   6.674   1.979
21602WAT     H265049   1.790   6.682   2.141
21603WAT      O65050   3.409   5.986   7.654
21603WAT     H165051   3.348   6.053   7.615
21603WAT     H265052   3.357   5.907   7.687
21604WAT      O65053   6.006   2.623   1.847
21604WAT     H165054   6.024   2.631   1.749
21604WAT     H265055   5.967   2.709   1.881
21605WAT      O65056   9.512   5.697   2.095
21605WAT     H165057   9.511   5.605   2.056
21605WAT     H265058   9.445   5.703   2.169
21606WAT      O65059   3.791   3.610   9.201
21606WAT     H165060   3.822   3.530   9.150
21606WAT     H265061   3.728   3.663   9.145
21607WAT      O65062   7.876   6.121   4.712
21607WAT     H165063   7.942   6.121   4.637
21607WAT     H265064   7.795   6.070   4.685
21608WAT      O65065   7.379   7.619   2.988
21608WAT     H165066   7.293   7.656   2.953
21608WAT     H265067   7.360   7.550   3.057
21609WAT      O65068   0.081   3.291   5.537
21609WAT     H165069   0.092   3.361   5.608
21609WAT     H265070  -0.004   3.241   5.551
21610WAT      O65071   8.505   0.465   8.721
21610WAT     H165072   8.549   0.514   8.645
21610WAT     H265073   8.438   0.525   8.764
21611WAT      O65074   7.152   6.609   2.664
21611WAT     H165075   7.124   6.671   2.737
21611WAT     H265076   7.072   6.575   2.616
21612WAT      O65077   7.370   3.472   0.206
21612WAT     H165078   7.443   3.502   0.266
21612WAT     H265079   7.373   3.525   0.121
21613WAT      O65080   3.077   0.142   6.376
21613WAT     H165081   3.126   0.131   6.289
21613WAT     H265082   3.134   0.196   6.438
21614WAT      O65083   9.316   5.363   1.130
21614WAT     H165084   9.217   5.346   1.135
21614WAT     H265085   9.333   5.439   1.068
21615WAT      O65086   9.706   6.785   0.622
21615WAT     H165087   9.773   6.830   0.562
21615WAT     H265088   9.614   6.803   0.588
21616WAT      O65089   1.295   6.873   2.027
21616WAT     H165090   1.322   6.966   2.001
21616WAT     H265091   1.195   6.867   2.031
21617WAT      O65092   4.751   2.028   6.352
21617WAT     H165093   4.774   2.077   6.436
21617WAT     H265094   4.672   1.968   6.369
21618WAT      O65095   8.048   0.974   4.961
21618WAT     H165096   8.005   1.052   5.007
21618WAT     H265097   8.094   1.005   4.878
21619WAT      O65098   9.156   0.346   6.042
21619WAT     H165099   9.255   0.329   6.048
21619WAT     H265100   9.122   0.371   6.133
21620WAT      O65101   8.338   5.899   3.731
21620WAT     H165102   8.269   5.971   3.735
21620WAT     H265103   8.325   5.846   3.648
21621WAT      O65104   8.022   0.131   9.227
21621WAT     H165105   8.064   0.213   9.265
21621WAT     H265106   8.068   0.107   9.141
21622WAT      O65107   0.325   5.642   4.780
21622WAT     H165108   0.384   5.706   4.731
21622WAT     H265109   0.344   5.549   4.748
21623WAT      O65110   5.749   6.645   0.223
21623WAT     H165111   5.653   6.667   0.209
21623WAT     H265112   5.760   6.546   0.234
21624WAT      O65113   7.745   3.141   8.745
21624WAT     H165114   7.845   3.135   8.743
21624WAT     H265115   7.710   3.100   8.829
21625WAT      O65116   9.409   2.712   6.837
21625WAT     H165117   9.366   2.790   6.883
21625WAT     H265118   9.415   2.635   6.900
21626WAT      O65119   7.776   7.851   3.359
21626WAT     H165120   7.745   7.764   3.397
21626WAT     H265121   7.699   7.916   3.357
21627WAT      O65122   4.912   8.290   0.128
21627WAT     H165123   4.987   8.224   0.136
21627WAT     H265124   4.930   8.369   0.186
21628WAT      O65125   8.858   6.116   5.045
21628WAT     H165126   8.880   6.042   4.981
21628WAT     H265127   8.775   6.162   5.015
21629WAT      O65128   6.094   4.626   1.389
21629WAT     H165129   6.168   4.623   1.321
21629WAT     H265130   6.008   4.601   1.344
21630WAT      O65131   3.063   4.480   4.947
21630WAT     H165132   3.026   4.432   4.867
21630WAT     H265133   3.133   4.424   4.991
21631WAT      O65134   3.647   9.757   4.304
21631WAT     H165135   3.613   9.673   4.347
21631WAT     H265136   3.743   9.745   4.277
21632WAT      O65137   7.234   1.764   9.691
21632WAT     H165138   7.322   1.738   9.651
21632WAT     H265139   7.243   1.774   9.790
21633WAT      O65140   8.110   3.603   3.940
21633WAT     H165141   8.060   3.649   3.866
21633WAT     H265142   8.154   3.671   3.998
21634WAT      O65143   8.094   7.997   5.391
21634WAT     H165144   8.089   8.067   5.461
21634WAT     H265145   8.045   7.915   5.422
21635WAT      O65146   4.613   9.773   0.601
21635WAT     H165147   4.651   9.848   0.546
21635WAT     H265148   4.588   9.697   0.541
21636WAT      O65149   8.441   5.343   1.930
21636WAT     H165150   8.442   5.322   1.833
21636WAT     H265151   8.362   5.299   1.973
21637WAT      O65152   8.086   3.560   0.092
21637WAT     H165153   8.055   3.465   0.100
21637WAT     H265154   8.007   3.618   0.070
21638WAT      O65155   9.091   8.743   2.820
21638WAT     H165156   9.122   8.651   2.798
21638WAT     H265157   9.102   8.802   2.740
21639WAT      O65158   9.577   6.172   5.955
21639WAT     H165159   9.503   6.105   5.951
21639WAT     H265160   9.652   6.143   5.897
21640WAT      O65161   3.827   6.527   3.991
21640WAT     H165162   3.795   6.523   3.897
21640WAT     H265163   3.898   6.458   4.006
21641WAT      O65164   9.715   5.837   3.282
21641WAT     H165165   9.707   5.769   3.355
21641WAT     H265166   9.704   5.793   3.193
21642WAT      O65167   3.143   6.767   9.247
21642WAT     H165168   3.156   6.850   9.302
21642WAT     H265169   3.186   6.780   9.157
21643WAT      O65170   5.671   0.202   6.648
21643WAT     H165171   5.712   0.238   6.732
21643WAT     H265172   5.739   0.147   6.599
21644WAT      O65173   0.323   1.925   7.913
21644WAT     H165174   0.276   1.869   7.981
21644WAT     H265175   0.419   1.898   7.908
21645WAT      O65176   6.774   0.170   2.335
21645WAT     H165177   6.813   0.183   2.426
21645WAT     H265178   6.676   0.189   2.337
21646WAT      O65179   8.527   9.350   1.679
21646WAT     H165180   8.530   9.285   1.756
21646WAT     H265181   8.460   9.319   1.612
21647WAT      O65182   8.552   6.642   4.918
21647WAT     H165183   8.641   6.603   4.893
21647WAT     H265184   8.554   6.670   5.014
21648WAT      O65185   6.311   5.705   6.827
21648WAT     H165186   6.266   5.617   6.836
21648WAT     H265187   6.313   5.733   6.731
21649WAT      O65188   5.902   8.612   7.680
21649WAT     H165189   5.962   8.632   7.602
21649WAT     H265190   5.807   8.608   7.649
21650WAT      O65191   1.846   4.460   0.972
21650WAT     H165192   1.891   4.416   1.050
21650WAT     H265193   1.749   4.469   0.991
21651WAT      O65194   2.405   4.357   3.642
21651WAT     H165195   2.342   4.360   3.719
21651WAT     H265196   2.355   4.371   3.557
21652WAT      O65197   4.378   8.243   8.266
21652WAT     H165198   4.287   8.229   8.227
21652WAT     H265199   4.408   8.336   8.247
21653WAT      O65200   3.462   7.040   9.316
21653WAT     H165201   3.467   7.139   9.304
21653WAT     H265202   3.546   7.007   9.361
21654WAT      O65203   1.411   7.283   1.103
21654WAT     H165204   1.457   7.323   1.023
21654WAT     H265205   1.442   7.330   1.186
21655WAT      O65206   4.511   1.326   0.245
21655WAT     H165207   4.595   1.373   0.220
21655WAT     H265208   4.523   1.227   0.235
21656WAT      O65209   1.182   0.249   2.580
21656WAT     H165210   1.260   0.214   2.527
21656WAT     H265211   1.103   0.261   2.519
21657WAT      O65212   6.657   8.174   0.092
21657WAT     H165213   6.636   8.224   0.176
21657WAT     H265214   6.597   8.094   0.084
21658WAT      O65215   1.136   5.231   6.153
21658WAT     H165216   1.062   5.294   6.176
21658WAT     H265217   1.195   5.272   6.084
21659WAT      O65218   3.757   1.108   4.896
21659WAT     H165219   3.756   1.107   4.996
21659WAT     H265220   3.823   1.176   4.864
21660WAT      O65221   1.508   7.840   8.871
21660WAT     H165222   1.555   7.824   8.785
21660WAT     H265223   1.443   7.765   8.889
21661WAT      O65224   2.724   3.352   8.384
21661WAT     H165225   2.788   3.296   8.436
21661WAT     H265226   2.725   3.322   8.288
21662WAT      O65227   2.126   3.751   1.155
21662WAT     H165228   2.089   3.740   1.247
21662WAT     H265229   2.082   3.686   1.093
21663WAT      O65230   4.833   6.486   1.769
21663WAT     H165231   4.867   6.427   1.696
21663WAT     H265232   4.882   6.466   1.854
21664WAT      O65233   4.804   0.660   7.084
21664WAT     H165234   4.770   0.569   7.105
21664WAT     H265235   4.839   0.663   6.991
21665WAT      O65236   3.845   5.719   4.670
21665WAT     H165237   3.772   5.701   4.737
21665WAT     H265238   3.852   5.641   4.607
21666WAT      O65239   1.752   1.050   4.255
21666WAT     H165240   1.679   1.040   4.187
21666WAT     H265241   1.841   1.047   4.208
21667WAT      O65242   2.703   6.694   0.195
21667WAT     H165243   2.656   6.607   0.178
21667WAT     H265244   2.644   6.754   0.248
21668WAT      O65245   0.982   1.601   7.793
21668WAT     H165246   1.058   1.569   7.736
21668WAT     H265247   0.940   1.680   7.750
21669WAT      O65248   8.834   7.255   1.358
21669WAT     H165249   8.878   7.190   1.296
21669WAT     H265250   8.745   7.220   1.385
21670WAT      O65251   8.626   2.285   3.225
21670WAT     H165252   8.576   2.370   3.234
21670WAT     H265253   8.724   2.303   3.232
21671WAT      O65254   0.674   6.527   7.367
21671WAT     H165255   0.681   6.456   7.297
21671WAT     H265256   0.757   6.583   7.365
21672WAT      O65257   8.814   3.928   8.420
21672WAT     H165258   8.839   3.984   8.499
21672WAT     H265259   8.719   3.897   8.430
21673WAT      O65260   4.863   3.263   7.147
21673WAT     H165261   4.912   3.274   7.061
21673WAT     H265262   4.793   3.192   7.137
21674WAT      O65263   9.203   0.945   3.133
21674WAT     H165264   9.278   0.970   3.194
21674WAT     H265265   9.234   0.873   3.071
21675WAT      O65266   5.910   6.132   5.408
21675WAT     H165267   5.837   6.200   5.412
21675WAT     H265268   5.898   6.066   5.482
21676WAT      O65269   5.477   8.349   5.185
21676WAT     H165270   5.489   8.400   5.271
21676WAT     H265271   5.558   8.360   5.128
21677WAT      O65272   0.612   9.639   0.043
21677WAT     H165273   0.518   9.618   0.016
21677WAT     H265274   0.672   9.563   0.015
21678WAT      O65275   9.253   0.814   3.778
21678WAT     H165276   9.348   0.847   3.772
21678WAT     H265277   9.247   0.742   3.847
21679WAT      O65278   3.116   5.207   1.529
21679WAT     H165279   3.123   5.271   1.452
21679WAT     H265280   3.122   5.258   1.615
21680WAT      O65281   6.867   4.421   7.916
21680WAT     H165282   6.919   4.352   7.866
21680WAT     H265283   6.793   4.456   7.857
21681WAT      O65284   8.521   4.869   4.762
21681WAT     H165285   8.510   4.843   4.858
21681WAT     H265286   8.465   4.809   4.705
21682WAT      O65287   5.127   2.692   6.514
21682WAT     H165288   5.167   2.627   6.448
21682WAT     H265289   5.039   2.656   6.546
21683WAT      O65290   7.551   0.073   9.779
21683WAT     H165291   7.475   0.016   9.748
21683WAT     H265292   7.618   0.082   9.706
21684WAT      O65293   2.485   2.737   7.562
21684WAT     H165294   2.506   2.752   7.658
21684WAT     H265295   2.456   2.642   7.548
21685WAT      O65296   0.564   4.167   4.732
21685WAT     H165297   0.662   4.157   4.747
21685WAT     H265298   0.542   4.142   4.638
21686WAT      O65299   0.056   4.115   9.348
21686WAT     H165300  -0.036   4.151   9.366
21686WAT     H265301   0.052   4.050   9.272
21687WAT      O65302   2.609   0.775   7.606
21687WAT     H165303   2.684   0.792   7.543
21687WAT     H265304   2.542   0.849   7.599
21688WAT      O65305   4.123   6.168   3.823
21688WAT     H165306   4.182   6.152   3.902
21688WAT     H265307   4.027   6.164   3.851
21689WAT      O65308   7.496   8.226   0.295
21689WAT     H165309   7.462   8.290   0.364
21689WAT     H265310   7.464   8.133   0.317
21690WAT      O65311   3.930   4.179   5.665
21690WAT     H165312   3.970   4.126   5.591
21690WAT     H265313   3.832   4.190   5.650
21691WAT      O65314   7.051   9.189   5.411
21691WAT     H165315   7.026   9.177   5.507
21691WAT     H265316   7.051   9.286   5.388
21692WAT      O65317   2.234   6.175   6.854
21692WAT     H165318   2.203   6.164   6.949
21692WAT     H265319   2.202   6.097   6.800
21693WAT      O65320   3.165   5.036   1.750
21693WAT     H165321   3.145   5.110   1.686
21693WAT     H265322   3.212   4.962   1.701
21694WAT      O65323   0.417   4.973   6.720
21694WAT     H165324   0.472   4.912   6.777
21694WAT     H265325   0.320   4.955   6.737
21695WAT      O65326   6.211   9.038   9.229
21695WAT     H165327   6.190   8.958   9.171
21695WAT     H265328   6.309   9.058   9.224
21696WAT      O65329   1.799   7.250   8.473
21696WAT     H165330   1.732   7.215   8.539
21696WAT     H265331   1.797   7.194   8.390
21697WAT      O65332   7.628   4.904   9.833
21697WAT     H165333   7.607   4.896   9.736
21697WAT     H265334   7.728   4.910   9.845
21698WAT      O65335   5.450   9.367   1.868
21698WAT     H165336   5.364   9.317   1.877
21698WAT     H265337   5.482   9.359   1.774
21699WAT      O65338   2.235   1.446   7.466
21699WAT     H165339   2.214   1.395   7.549
21699WAT     H265340   2.181   1.530   7.464
21700WAT      O65341   9.562   3.097   8.071
21700WAT     H165342   9.604   3.143   7.992
21700WAT     H265343   9.617   3.017   8.096
21701WAT      O65344   5.909   5.393   3.256
21701WAT     H165345   5.834   5.458   3.248
21701WAT     H265346   5.880   5.304   3.222
21702WAT      O65347   6.773   4.296   1.208
21702WAT     H165348   6.675   4.295   1.191
21702WAT     H265349   6.797   4.375   1.263
21703WAT      O65350   2.006   8.245   5.602
21703WAT     H165351   1.927   8.190   5.574
21703WAT     H265352   1.975   8.332   5.639
21704WAT      O65353   7.644   0.720   4.876
21704WAT     H165354   7.635   0.634   4.927
21704WAT     H265355   7.580   0.787   4.912
21705WAT      O65356   4.495   0.335   3.683
21705WAT     H165357   4.519   0.245   3.719
21705WAT     H265358   4.576   0.394   3.683
21706WAT      O65359   2.596   4.168   1.985
21706WAT     H165360   2.576   4.088   1.928
21706WAT     H265361   2.511   4.218   2.003
21707WAT      O65362   0.951   7.464   3.593
21707WAT     H165363   0.857   7.496   3.607
21707WAT     H265364   0.998   7.461   3.681
21708WAT      O65365   0.852   0.534   8.279
21708WAT     H165366   0.826   0.507   8.372
21708WAT     H265367   0.883   0.454   8.228
21709WAT      O65368   4.348   7.533   8.816
21709WAT     H165369   4.401   7.563   8.737
21709WAT     H265370   4.351   7.604   8.887
21710WAT      O65371   1.912   8.558   0.332
21710WAT     H165372   1.960   8.588   0.414
21710WAT     H265373   1.829   8.612   0.320
21711WAT      O65374   2.620   6.741   0.531
21711WAT     H165375   2.570   6.782   0.608
21711WAT     H265376   2.581   6.774   0.445
21712WAT      O65377   3.267   2.856   5.581
21712WAT     H165378   3.281   2.815   5.671
21712WAT     H265379   3.312   2.945   5.578
21713WAT      O65380   4.704   1.739   1.054
21713WAT     H165381   4.653   1.810   1.103
21713WAT     H265382   4.780   1.782   1.005
21714WAT      O65383   2.520   4.538   4.726
21714WAT     H165384   2.568   4.471   4.669
21714WAT     H265385   2.479   4.492   4.805
21715WAT      O65386   2.792   3.266   3.301
21715WAT     H165387   2.868   3.286   3.239
21715WAT     H265388   2.767   3.348   3.352
21716WAT      O65389   2.888   1.521   2.872
21716WAT     H165390   2.864   1.583   2.946
21716WAT     H265391   2.939   1.571   2.802
21717WAT      O65392   2.704   2.322   8.779
21717WAT     H165393   2.684   2.227   8.802
21717WAT     H265394   2.630   2.381   8.811
21718WAT      O65395   4.956   4.236   0.305
21718WAT     H165396   4.992   4.243   0.398
21718WAT     H265397   4.914   4.146   0.292
21719WAT      O65398   2.808   9.758   3.669
21719WAT     H165399   2.738   9.770   3.599
21719WAT     H265400   2.781   9.808   3.752
21720WAT      O65401   6.543   6.348   8.510
21720WAT     H165402   6.473   6.294   8.465
21720WAT     H265403   6.632   6.328   8.468
21721WAT      O65404   9.177   2.442   0.970
21721WAT     H165405   9.079   2.435   0.950
21721WAT     H265406   9.199   2.381   1.047
21722WAT      O65407   2.394   2.797   4.474
21722WAT     H165408   2.398   2.882   4.421
21722WAT     H265409   2.303   2.788   4.515
21723WAT      O65410   4.628   0.946   2.295
21723WAT     H165411   4.605   0.988   2.383
21723WAT     H265412   4.725   0.960   2.276
21724WAT      O65413   4.137   6.323   6.560
21724WAT     H165414   4.042   6.293   6.566
21724WAT     H265415   4.162   6.371   6.645
21725WAT      O65416   7.167   0.604   3.105
21725WAT     H165417   7.131   0.642   3.020
21725WAT     H265418   7.251   0.653   3.130
21726WAT      O65419   1.339   4.432   8.613
21726WAT     H165420   1.409   4.366   8.586
21726WAT     H265421   1.264   4.384   8.659
21727WAT      O65422   9.582   2.678   2.033
21727WAT     H165423   9.641   2.626   1.972
21727WAT     H265424   9.529   2.744   1.979
21728WAT      O65425   4.148   4.369   5.681
21728WAT     H165426   4.196   4.390   5.766
21728WAT     H265427   4.097   4.283   5.692
21729WAT      O65428   0.379   0.991   8.560
21729WAT     H165429   0.297   0.958   8.607
21729WAT     H265430   0.448   0.919   8.558
21730WAT      O65431   4.469   0.045   3.102
21730WAT     H165432   4.374   0.070   3.123
21730WAT     H265433   4.531   0.101   3.157
21731WAT      O65434   3.597   6.086   8.731
21731WAT     H165435   3.666   6.050   8.793
21731WAT     H265436   3.601   6.186   8.731
21732WAT      O65437   9.164   4.762   8.647
21732WAT     H165438   9.245   4.804   8.605
21732WAT     H265439   9.086   4.773   8.585
21733WAT      O65440   2.177   3.118   1.127
21733WAT     H165441   2.247   3.177   1.168
21733WAT     H265442   2.222   3.051   1.067
21734WAT      O65443   5.871   6.566   9.877
21734WAT     H165444   5.805   6.594   9.946
21734WAT     H265445   5.960   6.550   9.921
21735WAT      O65446   8.057   0.362   5.224
21735WAT     H165447   8.073   0.362   5.322
21735WAT     H265448   7.982   0.424   5.202
21736WAT      O65449   3.478   4.701   7.733
21736WAT     H165450   3.409   4.631   7.713
21736WAT     H265451   3.457   4.785   7.683
21737WAT      O65452   0.315   2.499   6.174
21737WAT     H165453   0.308   2.447   6.259
21737WAT     H265454   0.389   2.565   6.182
21738WAT      O65455   4.521   9.092   6.151
21738WAT     H165456   4.590   9.163   6.163
21738WAT     H265457   4.441   9.113   6.207
21739WAT      O65458   5.962   5.084   2.873
21739WAT     H165459   5.930   5.000   2.915
21739WAT     H265460   5.890   5.153   2.877
21740WAT      O65461   5.741   4.356   7.748
21740WAT     H165462   5.670   4.426   7.738
21740WAT     H265463   5.756   4.338   7.845
21741WAT      O65464   6.816   7.725   0.807
21741WAT     H165465   6.756   7.649   0.834
21741WAT     H265466   6.899   7.723   0.862
21742WAT      O65467   2.785   0.238   8.530
21742WAT     H165468   2.752   0.278   8.444
21742WAT     H265469   2.884   0.220   8.522
21743WAT      O65470   5.151   5.526   1.360
21743WAT     H165471   5.120   5.474   1.281
21743WAT     H265472   5.219   5.594   1.332
21744WAT      O65473   3.149   0.092   9.057
21744WAT     H165474   3.182   0.185   9.041
21744WAT     H265475   3.213   0.045   9.118
21745WAT      O65476   1.933   7.406   7.675
21745WAT     H165477   1.863   7.345   7.637
21745WAT     H265478   2.019   7.391   7.628
21746WAT      O65479   3.535   0.089   9.361
21746WAT     H165480   3.602   0.148   9.406
21746WAT     H265481   3.477   0.144   9.301
21747WAT      O65482   2.374   1.460   5.802
21747WAT     H165483   2.321   1.408   5.870
21747WAT     H265484   2.453   1.405   5.774
21748WAT      O65485   2.138   7.346   7.953
21748WAT     H165486   2.150   7.315   7.858
21748WAT     H265487   2.098   7.272   8.007
21749WAT      O65488   1.138   7.972   2.608
21749WAT     H165489   1.096   8.014   2.688
21749WAT     H265490   1.080   7.897   2.575
21750WAT      O65491   3.196   7.354   7.611
21750WAT     H165492   3.275   7.399   7.570
21750WAT     H265493   3.216   7.257   7.623
21751WAT      O65494   4.594   1.192   0.733
21751WAT     H165495   4.503   1.156   0.754
21751WAT     H265496   4.643   1.128   0.674
21752WAT      O65497   7.731   4.563   4.705
21752WAT     H165498   7.778   4.651   4.710
21752WAT     H265499   7.797   4.489   4.717
21753WAT      O65500   7.217   5.706   2.730
21753WAT     H165501   7.147   5.672   2.668
21753WAT     H265502   7.193   5.799   2.760
21754WAT      O65503   3.009   8.630   3.938
21754WAT     H165504   2.936   8.683   3.981
21754WAT     H265505   2.969   8.558   3.881
21755WAT      O65506   8.538   8.101   8.440
21755WAT     H165507   8.634   8.074   8.453
21755WAT     H265508   8.486   8.078   8.521
21756WAT      O65509   8.504   2.320   5.819
21756WAT     H165510   8.404   2.323   5.814
21756WAT     H265511   8.537   2.404   5.861
21757WAT      O65512   5.986   1.575   5.329
21757WAT     H165513   5.955   1.485   5.360
21757WAT     H265514   6.081   1.588   5.356
21758WAT      O65515   5.019   7.744   7.338
21758WAT     H165516   5.110   7.753   7.379
21758WAT     H265517   4.960   7.692   7.400
21759WAT      O65518   9.515   0.787   6.525
21759WAT     H165519   9.559   0.815   6.610
21759WAT     H265520   9.564   0.709   6.486
21760WAT      O65521   6.003   3.735   5.703
21760WAT     H165522   5.920   3.729   5.758
21760WAT     H265523   5.990   3.803   5.630
21761WAT      O65524   9.618   6.275   7.091
21761WAT     H165525   9.704   6.251   7.136
21761WAT     H265526   9.550   6.300   7.161
21762WAT      O65527   9.598   5.453   5.790
21762WAT     H165528   9.573   5.424   5.882
21762WAT     H265529   9.695   5.478   5.788
21763WAT      O65530   6.702   1.049   5.232
21763WAT     H165531   6.753   0.963   5.224
21763WAT     H265532   6.629   1.038   5.299
21764WAT      O65533   3.227   4.840   2.633
21764WAT     H165534   3.157   4.911   2.639
21764WAT     H265535   3.295   4.854   2.706
21765WAT      O65536   7.425   7.916   9.003
21765WAT     H165537   7.460   7.972   9.078
21765WAT     H265538   7.325   7.913   9.008
21766WAT      O65539   1.054   7.462   3.849
21766WAT     H165540   1.137   7.474   3.904
21766WAT     H265541   0.984   7.527   3.880
21767WAT      O65542   5.176   7.702   9.206
21767WAT     H165543   5.263   7.713   9.159
21767WAT     H265544   5.122   7.785   9.195
21768WAT      O65545   3.753   5.939   2.376
21768WAT     H165546   3.658   5.928   2.347
21768WAT     H265547   3.787   5.852   2.413
21769WAT      O65548   7.204   2.400   8.951
21769WAT     H165549   7.277   2.468   8.943
21769WAT     H265550   7.239   2.310   8.925
21770WAT      O65551   5.714   0.684   6.266
21770WAT     H165552   5.800   0.732   6.286
21770WAT     H265553   5.648   0.748   6.226
21771WAT      O65554   6.510   0.228   6.257
21771WAT     H165555   6.514   0.144   6.311
21771WAT     H265556   6.487   0.305   6.316
21772WAT      O65557   6.164   9.772   0.978
21772WAT     H165558   6.066   9.770   0.959
21772WAT     H265559   6.179   9.792   1.075
21773WAT      O65560   1.194   0.015   8.484
21773WAT     H165561   1.129  -0.016   8.414
21773WAT     H265562   1.163   0.101   8.523
21774WAT      O65563   5.019   6.305   5.979
21774WAT     H165564   5.104   6.327   6.026
21774WAT     H265565   4.986   6.386   5.930
21775WAT      O65566   1.720   3.645   9.556
21775WAT     H165567   1.735   3.740   9.583
21775WAT     H265568   1.720   3.638   9.456
21776WAT      O65569   0.797   8.157   6.429
21776WAT     H165570   0.849   8.127   6.509
21776WAT     H265571   0.823   8.100   6.350
21777WAT      O65572   0.991   4.791   7.879
21777WAT     H165573   0.973   4.884   7.847
21777WAT     H265574   1.088   4.769   7.868
21778WAT      O65575   8.977   2.549   6.369
21778WAT     H165576   9.064   2.566   6.322
21778WAT     H265577   8.968   2.612   6.446
21779WAT      O65578   6.088   3.214   6.976
21779WAT     H165579   6.103   3.115   6.983
21779WAT     H265580   6.031   3.233   6.896
21780WAT      O65581   9.392   6.079   8.069
21780WAT     H165582   9.321   6.008   8.071
21780WAT     H265583   9.448   6.068   7.987
21781WAT      O65584   4.441   2.027   4.670
21781WAT     H165585   4.352   1.982   4.655
21781WAT     H265586   4.475   2.006   4.761
21782WAT      O65587   6.961   8.255   1.250
21782WAT     H165588   6.966   8.194   1.171
21782WAT     H265589   7.029   8.327   1.241
21783WAT      O65590   1.160   6.995   7.647
21783WAT     H165591   1.212   6.913   7.623
21783WAT     H265592   1.138   6.993   7.745
21784WAT      O65593   5.370   1.816   2.259
21784WAT     H165594   5.411   1.787   2.345
21784WAT     H265595   5.404   1.759   2.184
21785WAT      O65596   3.003   2.929   8.574
21785WAT     H165597   2.972   2.890   8.487
21785WAT     H265598   2.985   2.864   8.648
21786WAT      O65599   5.147   2.387   0.602
21786WAT     H165600   5.110   2.343   0.684
21786WAT     H265601   5.238   2.350   0.582
21787WAT      O65602   2.358   9.421   1.395
21787WAT     H165603   2.415   9.468   1.463
21787WAT     H265604   2.330   9.332   1.430
21788WAT      O65605   0.318   8.683   6.469
21788WAT     H165606   0.317   8.778   6.439
21788WAT     H265607   0.404   8.640   6.440
21789WAT      O65608   8.542   9.762   2.239
21789WAT     H165609   8.576   9.807   2.321
21789WAT     H265610   8.442   9.763   2.240
21790WAT      O65611   6.917   1.502   5.343
21790WAT     H165612   6.968   1.554   5.274
21790WAT     H265613   6.901   1.560   5.423
21791WAT      O65614   1.793   1.684   5.893
21791WAT     H165615   1.741   1.599   5.890
21791WAT     H265616   1.891   1.664   5.883
21792WAT      O65617   0.255   1.099   9.503
21792WAT     H165618   0.321   1.025   9.519
21792WAT     H265619   0.170   1.060   9.469
21793WAT      O65620   0.044   6.522   4.913
21793WAT     H165621  -0.014   6.449   4.876
21793WAT     H265622   0.104   6.485   4.984
21794WAT      O65623   6.745   6.886   1.374
21794WAT     H165624   6.792   6.860   1.290
21794WAT     H265625   6.655   6.843   1.377
21795WAT      O65626   2.892   0.787   3.182
21795WAT     H165627   2.867   0.837   3.099
21795WAT     H265628   2.969   0.726   3.163
21796WAT      O65629   7.951   0.532   7.955
21796WAT     H165630   7.943   0.630   7.969
21796WAT     H265631   8.043   0.509   7.924
21797WAT      O65632   3.500   4.011   2.787
21797WAT     H165633   3.545   4.045   2.870
21797WAT     H265634   3.494   4.085   2.720
21798WAT      O65635   7.740   7.767   3.726
21798WAT     H165636   7.719   7.860   3.697
21798WAT     H265637   7.767   7.767   3.823
21799WAT      O65638   7.482   5.810   3.822
21799WAT     H165639   7.534   5.892   3.800
21799WAT     H265640   7.389   5.819   3.786
21800WAT      O65641   5.296   3.134   6.875
21800WAT     H165642   5.346   3.121   6.960
21800WAT     H265643   5.360   3.133   6.798
21801WAT      O65644   4.122   0.761   4.692
21801WAT     H165645   4.095   0.672   4.727
21801WAT     H265646   4.050   0.827   4.709
21802WAT      O65647   1.648   8.913   4.949
21802WAT     H165648   1.615   8.833   4.900
21802WAT     H265649   1.744   8.900   4.974
21803WAT      O65650   0.894   6.060   1.886
21803WAT     H165651   0.946   6.130   1.933
21803WAT     H265652   0.908   6.067   1.787
21804WAT      O65653   3.127   9.330   3.790
21804WAT     H165654   3.178   9.334   3.704
21804WAT     H265655   3.167   9.260   3.849
21805WAT      O65656   9.396   1.855   6.562
21805WAT     H165657   9.460   1.903   6.622
21805WAT     H265658   9.447   1.803   6.493
21806WAT      O65659   1.317   6.650   0.472
21806WAT     H165660   1.367   6.706   0.537
21806WAT     H265661   1.336   6.682   0.379
21807WAT      O65662   1.048   9.156   2.473
21807WAT     H165663   1.000   9.229   2.425
21807WAT     H265664   1.147   9.171   2.468
21808WAT      O65665   8.606   1.587   2.511
21808WAT     H165666   8.571   1.607   2.602
21808WAT     H265667   8.637   1.492   2.506
21809WAT      O65668   4.287   5.126   6.951
21809WAT     H165669   4.338   5.156   7.032
21809WAT     H265670   4.307   5.029   6.933
21810WAT      O65671   0.885   8.872   6.690
21810WAT     H165672   0.801   8.856   6.742
21810WAT     H265673   0.950   8.922   6.747
21811WAT      O65674   7.482   7.753   5.167
21811WAT     H165675   7.444   7.669   5.207
21811WAT     H265676   7.564   7.779   5.217
21812WAT      O65677   4.574   6.123   7.865
21812WAT     H165678   4.621   6.128   7.953
21812WAT     H265679   4.482   6.162   7.874
21813WAT      O65680   4.638   0.095   5.912
21813WAT     H165681   4.695   0.138   5.982
21813WAT     H265682   4.548   0.138   5.911
21814WAT      O65683   4.499   8.610   6.000
21814WAT     H165684   4.496   8.691   6.058
21814WAT     H265685   4.584   8.559   6.017
21815WAT      O65686   0.161   1.848   4.621
21815WAT     H165687   0.260   1.855   4.632
21815WAT     H265688   0.116   1.914   4.681
21816WAT      O65689   4.474   8.463   8.634
21816WAT     H165690   4.552   8.462   8.696
21816WAT     H265691   4.436   8.556   8.630
21817WAT      O65692   7.786   5.199   6.920
21817WAT     H165693   7.884   5.205   6.943
21817WAT     H265694   7.732   5.233   6.997
21818WAT      O65695   2.317   6.487   2.356
21818WAT     H165696   2.350   6.419   2.422
21818WAT     H265697   2.250   6.444   2.295
21819WAT      O65698   1.242   9.545   3.876
21819WAT     H165699   1.267   9.448   3.880
21819WAT     H265700   1.299   9.591   3.808
21820WAT      O65701   8.542   9.702   4.480
21820WAT     H165702   8.627   9.680   4.527
21820WAT     H265703   8.493   9.617   4.457
21821WAT      O65704   8.716   5.056   1.366
21821WAT     H165705   8.737   5.067   1.463
21821WAT     H265706   8.654   4.978   1.355
21822WAT      O65707   8.477   4.460   2.730
21822WAT     H165708   8.548   4.412   2.679
21822WAT     H265709   8.388   4.417   2.712
21823WAT      O65710   7.876   3.644   2.913
21823WAT     H165711   7.914   3.566   2.963
21823WAT     H265712   7.926   3.657   2.828
21824WAT      O65713   0.671   6.152   3.005
21824WAT     H165714   0.657   6.244   3.042
21824WAT     H265715   0.727   6.159   2.922
21825WAT      O65716   5.031   7.934   7.889
21825WAT     H165717   5.008   7.862   7.823
21825WAT     H265718   4.986   8.020   7.862
21826WAT      O65719   7.771   3.249   1.610
21826WAT     H165720   7.739   3.335   1.571
21826WAT     H265721   7.716   3.174   1.573
21827WAT      O65722   9.192   8.190   1.628
21827WAT     H165723   9.105   8.199   1.677
21827WAT     H265724   9.195   8.104   1.579
21828WAT      O65725   4.101   2.806   7.026
21828WAT     H165726   4.017   2.847   7.061
21828WAT     H265727   4.174   2.816   7.093
21829WAT      O65728   3.528   8.469   3.150
21829WAT     H165729   3.437   8.448   3.186
21829WAT     H265730   3.570   8.542   3.205
21830WAT      O65731   8.515   4.383   9.332
21830WAT     H165732   8.537   4.471   9.373
21830WAT     H265733   8.478   4.397   9.240
21831WAT      O65734   8.269   4.461   4.294
21831WAT     H165735   8.181   4.438   4.337
21831WAT     H265736   8.252   4.499   4.203
21832WAT      O65737   0.785   0.813   4.984
21832WAT     H165738   0.844   0.859   4.918
21832WAT     H265739   0.805   0.846   5.076
21833WAT      O65740   7.586   2.552   4.260
21833WAT     H165741   7.672   2.521   4.300
21833WAT     H265742   7.588   2.652   4.250
21834WAT      O65743   6.080   2.266   3.334
21834WAT     H165744   6.117   2.182   3.374
21834WAT     H265745   6.134   2.289   3.253
21835WAT      O65746   6.862   5.763   1.096
21835WAT     H165747   6.920   5.830   1.049
21835WAT     H265748   6.815   5.706   1.029
21836WAT      O65749   7.587   7.689   0.706
21836WAT     H165750   7.552   7.741   0.628
21836WAT     H265751   7.586   7.591   0.685
21837WAT      O65752   9.743   2.216   1.313
21837WAT     H165753   9.675   2.283   1.342
21837WAT     H265754   9.697   2.137   1.272
21838WAT      O65755   3.248   8.218   1.977
21838WAT     H165756   3.335   8.230   2.025
21838WAT     H265757   3.196   8.303   1.983
21839WAT      O65758   9.021   4.229   4.654
21839WAT     H165759   8.972   4.194   4.735
21839WAT     H265760   8.989   4.321   4.633
21840WAT      O65761   0.074   0.116   5.034
21840WAT     H165762   0.076   0.214   5.051
21840WAT     H265763   0.164   0.085   5.004
21841WAT      O65764   7.999   3.099   8.764
21841WAT     H165765   8.058   3.142   8.832
21841WAT     H265766   8.013   3.143   8.675
21842WAT      O65767   1.170   5.084   0.029
21842WAT     H165768   1.253   5.081   0.086
21842WAT     H265769   1.090   5.097   0.087
21843WAT      O65770   6.583   8.981   3.273
21843WAT     H165771   6.669   8.958   3.227
21843WAT     H265772   6.532   9.045   3.216
21844WAT      O65773   0.079   7.365   7.896
21844WAT     H165774   0.006   7.396   7.835
21844WAT     H265775   0.078   7.420   7.980
21845WAT      O65776   0.891   5.167   4.720
21845WAT     H165777   0.822   5.234   4.693
21845WAT     H265778   0.967   5.169   4.655
21846WAT      O65779   4.212   0.787   8.306
21846WAT     H165780   4.263   0.768   8.390
21846WAT     H265781   4.192   0.702   8.259
21847WAT      O65782   9.644   5.459   6.688
21847WAT     H165783   9.659   5.513   6.606
21847WAT     H265784   9.582   5.508   6.750
21848WAT      O65785   5.298   6.504   0.121
21848WAT     H165786   5.342   6.414   0.123
21848WAT     H265787   5.238   6.514   0.200
21849WAT      O65788   9.442   9.035   6.396
21849WAT     H165789   9.498   8.957   6.367
21849WAT     H265790   9.462   9.056   6.492
21850WAT      O65791   5.719   3.156   4.010
21850WAT     H165792   5.693   3.089   3.940
21850WAT     H265793   5.657   3.235   4.004
21851WAT      O65794   1.404   3.317   6.417
21851WAT     H165795   1.357   3.314   6.506
21851WAT     H265796   1.502   3.328   6.432
21852WAT      O65797   4.946   7.140   3.420
21852WAT     H165798   4.987   7.132   3.329
21852WAT     H265799   4.988   7.073   3.481
21853WAT      O65800   5.024   8.350   6.922
21853WAT     H165801   4.940   8.304   6.949
21853WAT     H265802   5.042   8.333   6.825
21854WAT      O65803   0.248   4.201   2.947
21854WAT     H165804   0.300   4.229   2.866
21854WAT     H265805   0.232   4.282   3.005
21855WAT      O65806   9.508   2.626   8.762
21855WAT     H165807   9.535   2.538   8.724
21855WAT     H265808   9.576   2.657   8.828
21856WAT      O65809   5.566   2.510   7.390
21856WAT     H165810   5.593   2.425   7.435
21856WAT     H265811   5.600   2.588   7.442
21857WAT      O65812   1.029   3.426   0.832
21857WAT     H165813   1.042   3.525   0.837
21857WAT     H265814   1.081   3.389   0.755
21858WAT      O65815   2.216   1.297   3.283
21858WAT     H165816   2.249   1.243   3.360
21858WAT     H265817   2.167   1.377   3.318
21859WAT      O65818   6.892   1.805   0.928
21859WAT     H165819   6.926   1.899   0.929
21859WAT     H265820   6.937   1.754   0.854
21860WAT      O65821   7.493   5.021   4.120
21860WAT     H165822   7.461   5.116   4.123
21860WAT     H265823   7.415   4.960   4.110
21861WAT      O65824   6.639   3.879   2.277
21861WAT     H165825   6.694   3.954   2.314
21861WAT     H265826   6.700   3.808   2.239
21862WAT      O65827   0.802   9.406   3.727
21862WAT     H165828   0.735   9.415   3.800
21862WAT     H265829   0.869   9.480   3.733
21863WAT      O65830   8.319   8.065   9.433
21863WAT     H165831   8.299   8.019   9.346
21863WAT     H265832   8.414   8.048   9.459
21864WAT      O65833   6.565   7.706   2.741
21864WAT     H165834   6.635   7.636   2.757
21864WAT     H265835   6.532   7.741   2.829
21865WAT      O65836   7.146   1.532   2.081
21865WAT     H165837   7.244   1.513   2.088
21865WAT     H265838   7.097   1.484   2.153
21866WAT      O65839   0.815   2.290   9.859
21866WAT     H165840   0.806   2.374   9.912
21866WAT     H265841   0.831   2.213   9.921
21867WAT      O65842   0.512   8.984   5.520
21867WAT     H165843   0.556   8.935   5.445
21867WAT     H265844   0.519   8.930   5.604
21868WAT      O65845   8.466   8.559   1.668
21868WAT     H165846   8.509   8.515   1.589
21868WAT     H265847   8.494   8.655   1.671
21869WAT      O65848   2.527   1.078   4.082
21869WAT     H165849   2.626   1.089   4.073
21869WAT     H265850   2.507   1.017   4.158
21870WAT      O65851   6.216   0.870   6.300
21870WAT     H165852   6.117   0.872   6.316
21870WAT     H265853   6.241   0.781   6.262
21871WAT      O65854   4.028   7.041   6.175
21871WAT     H165855   4.056   7.056   6.080
21871WAT     H265856   3.984   7.124   6.210
21872WAT      O65857   9.155   2.494   0.157
21872WAT     H165858   9.071   2.440   0.149
21872WAT     H265859   9.150   2.551   0.239
21873WAT      O65860   8.417   8.502   0.599
21873WAT     H165861   8.334   8.544   0.635
21873WAT     H265862   8.406   8.403   0.595
21874WAT      O65863   7.986   4.162   5.083
21874WAT     H165864   8.070   4.166   5.137
21874WAT     H265865   7.914   4.212   5.130
21875WAT      O65866   1.077   4.068   4.053
21875WAT     H165867   1.078   4.147   4.115
21875WAT     H265868   1.050   4.098   3.962
21876WAT      O65869   5.986   5.231   6.044
21876WAT     H165870   6.081   5.256   6.065
21876WAT     H265871   5.971   5.237   5.945
21877WAT      O65872   4.644   6.597   5.640
21877WAT     H165873   4.597   6.525   5.690
21877WAT     H265874   4.599   6.684   5.656
21878WAT      O65875   2.631   0.413   3.455
21878WAT     H165876   2.698   0.487   3.450
21878WAT     H265877   2.656   0.350   3.528
21879WAT      O65878   0.700   6.885   2.969
21879WAT     H165879   0.678   6.979   2.992
21879WAT     H265880   0.750   6.842   3.045
21880WAT      O65881   0.434   7.562   1.598
21880WAT     H165882   0.392   7.588   1.512
21880WAT     H265883   0.376   7.591   1.674
21881WAT      O65884   6.348   7.326   0.229
21881WAT     H165885   6.260   7.302   0.268
21881WAT     H265886   6.421   7.303   0.294
21882WAT      O65887   0.596   7.493   5.704
21882WAT     H165888   0.686   7.535   5.696
21882WAT     H265889   0.551   7.524   5.788
21883WAT      O65890   6.890   7.556   4.863
21883WAT     H165891   6.815   7.578   4.926
21883WAT     H265892   6.972   7.608   4.889
21884WAT      O65893   0.168   0.198   2.699
21884WAT     H165894   0.141   0.294   2.690
21884WAT     H265895   0.267   0.190   2.685
21885WAT      O65896   6.318   9.804   6.039
21885WAT     H165897   6.243   9.820   6.102
21885WAT     H265898   6.305   9.857   5.956
21886WAT      O65899   6.959   8.941   5.920
21886WAT     H165900   6.883   9.007   5.919
21886WAT     H265901   6.958   8.888   5.836
21887WAT      O65902   3.183   4.350   5.148
21887WAT     H165903   3.170   4.416   5.222
21887WAT     H265904   3.271   4.366   5.104
21888WAT      O65905   9.878   4.755   7.570
21888WAT     H165906   9.977   4.758   7.559
21888WAT     H265907   9.853   4.679   7.630
21889WAT      O65908   1.892   1.867   0.957
21889WAT     H165909   1.879   1.774   0.923
21889WAT     H265910   1.806   1.901   0.996
21890WAT      O65911   5.948   8.754   0.209
21890WAT     H165912   5.872   8.725   0.151
21890WAT     H265913   6.033   8.711   0.177
21891WAT      O65914   5.600   7.741   6.144
21891WAT     H165915   5.559   7.657   6.108
21891WAT     H265916   5.530   7.799   6.184
21892WAT      O65917   5.421   2.372   4.018
21892WAT     H165918   5.354   2.390   4.090
21892WAT     H265919   5.468   2.456   3.994
21893WAT      O65920   3.798   1.999   0.945
21893WAT     H165921   3.747   1.924   0.989
21893WAT     H265922   3.866   2.035   1.009
21894WAT      O65923   5.702   6.620   6.902
21894WAT     H165924   5.729   6.588   6.993
21894WAT     H265925   5.783   6.658   6.856
21895WAT      O65926   3.052   9.648   5.622
21895WAT     H165927   3.061   9.716   5.549
21895WAT     H265928   2.970   9.669   5.676
21896WAT      O65929   4.814   8.984   8.352
21896WAT     H165930   4.844   8.904   8.404
21896WAT     H265931   4.893   9.037   8.322
21897WAT      O65932   7.948   5.239   5.891
21897WAT     H165933   8.010   5.224   5.814
21897WAT     H265934   7.967   5.327   5.933
21898WAT      O65935   6.374   3.815   5.662
21898WAT     H165936   6.315   3.894   5.683
21898WAT     H265937   6.326   3.754   5.600
21899WAT      O65938   7.960   6.073   7.247
21899WAT     H165939   7.865   6.080   7.217
21899WAT     H265940   7.970   5.995   7.309
21900WAT      O65941   2.050   3.377   8.544
21900WAT     H165942   1.966   3.334   8.511
21900WAT     H265943   2.034   3.475   8.556
21901WAT      O65944   2.243   5.494   0.301
21901WAT     H165945   2.238   5.495   0.201
21901WAT     H265946   2.162   5.538   0.339
21902WAT      O65947   2.314   7.964   1.169
21902WAT     H165948   2.332   8.053   1.128
21902WAT     H265949   2.395   7.906   1.159
21903WAT      O65950   6.478   9.032   0.268
21903WAT     H165951   6.536   9.064   0.343
21903WAT     H265952   6.389   9.076   0.273
21904WAT      O65953   3.757   6.050   2.626
21904WAT     H165954   3.762   5.997   2.540
21904WAT     H265955   3.670   6.032   2.671
21905WAT      O65956   4.167   2.804   1.073
21905WAT     H165957   4.145   2.747   0.995
21905WAT     H265958   4.106   2.883   1.076
21906WAT      O65959   4.955   7.957   5.815
21906WAT     H165960   4.895   7.981   5.891
21906WAT     H265961   4.912   7.986   5.729
21907WAT      O65962   5.263   3.358   9.279
21907WAT     H165963   5.238   3.309   9.196
21907WAT     H265964   5.190   3.421   9.305
21908WAT      O65965   3.934   6.417   4.662
21908WAT     H165966   3.868   6.378   4.598
21908WAT     H265967   4.026   6.385   4.638
21909WAT      O65968   2.160   3.543   4.398
21909WAT     H165969   2.178   3.483   4.320
21909WAT     H265970   2.105   3.493   4.466
21910WAT      O65971   5.215   8.546   4.718
21910WAT     H165972   5.184   8.640   4.702
21910WAT     H265973   5.252   8.509   4.633
21911WAT      O65974   8.898   1.441   5.227
21911WAT     H165975   8.806   1.449   5.191
21911WAT     H265976   8.959   1.402   5.158
21912WAT      O65977   5.367   5.321   4.718
21912WAT     H165978   5.444   5.287   4.772
21912WAT     H265979   5.396   5.339   4.624
21913WAT      O65980   6.881   2.093   3.782
21913WAT     H165981   6.795   2.044   3.794
21913WAT     H265982   6.908   2.135   3.869
21914WAT      O65983   2.849   1.197   3.379
21914WAT     H165984   2.928   1.238   3.425
21914WAT     H265985   2.777   1.266   3.370
21915WAT      O65986   8.879   4.814   1.438
21915WAT     H165987   8.949   4.855   1.380
21915WAT     H265988   8.788   4.838   1.403
21916WAT      O65989   5.869   2.054   2.165
21916WAT     H165990   5.845   2.140   2.119
21916WAT     H265991   5.966   2.035   2.152
21917WAT      O65992   5.934   9.768   5.010
21917WAT     H165993   5.959   9.695   4.946
21917WAT     H265994   5.844   9.803   4.988
21918WAT      O65995   4.180   6.424   2.873
21918WAT     H165996   4.110   6.353   2.882
21918WAT     H265997   4.255   6.405   2.936
21919WAT      O65998   9.475   4.661   4.358
21919WAT     H165999   9.385   4.617   4.350
21919WAT     H266000   9.545   4.590   4.370
21920WAT      O66001   0.598   2.605   6.458
21920WAT     H166002   0.580   2.698   6.491
21920WAT     H266003   0.583   2.540   6.532
21921WAT      O66004   1.585   3.296   9.153
21921WAT     H166005   1.516   3.357   9.192
21921WAT     H266006   1.675   3.321   9.189
21922WAT      O66007   2.127   6.495   7.335
21922WAT     H166008   2.101   6.521   7.242
21922WAT     H266009   2.214   6.539   7.359
21923WAT      O66010   4.948   6.190   9.277
21923WAT     H166011   4.973   6.184   9.373
21923WAT     H266012   4.875   6.123   9.257
21924WAT      O66013   4.444   3.765   8.044
21924WAT     H166014   4.410   3.775   7.950
21924WAT     H266015   4.385   3.701   8.093
21925WAT      O66016   0.832   9.329   6.402
21925WAT     H166017   0.866   9.420   6.377
21925WAT     H266018   0.789   9.333   6.491
21926WAT      O66019   2.657   3.388   0.147
21926WAT     H166020   2.679   3.363   0.053
21926WAT     H266021   2.557   3.393   0.157
21927WAT      O66022   7.952   9.025   4.042
21927WAT     H166023   7.878   9.084   4.010
21927WAT     H266024   7.962   8.947   3.981
21928WAT      O66025   5.967   9.069   9.334
21928WAT     H166026   6.057   9.064   9.290
21928WAT     H266027   5.978   9.058   9.433
21929WAT      O66028   8.886   6.535   6.556
21929WAT     H166029   8.835   6.449   6.553
21929WAT     H266030   8.982   6.518   6.533
21930WAT      O66031   8.884   8.179   9.360
21930WAT     H166032   8.899   8.278   9.364
21930WAT     H266033   8.877   8.142   9.453
21931WAT      O66034   1.966   2.531   9.213
21931WAT     H166035   1.987   2.605   9.277
21931WAT     H266036   1.921   2.456   9.262
21932WAT      O66037   9.672   1.507   4.085
21932WAT     H166038   9.761   1.549   4.064
21932WAT     H266039   9.608   1.578   4.113
21933WAT      O66040   3.213   5.111   3.776
21933WAT     H166041   3.224   5.012   3.791
21933WAT     H266042   3.116   5.132   3.769
21934WAT      O66043   4.123   5.786   8.517
21934WAT     H166044   4.178   5.708   8.548
21934WAT     H266045   4.154   5.869   8.565
21935WAT      O66046   3.774   5.900   3.081
21935WAT     H166047   3.845   5.907   3.011
21935WAT     H266048   3.695   5.850   3.044
21936WAT      O66049   5.072   1.879   3.187
21936WAT     H166050   4.993   1.859   3.130
21936WAT     H266051   5.083   1.806   3.255
21937WAT      O66052   5.328   8.344   2.167
21937WAT     H166053   5.299   8.436   2.192
21937WAT     H266054   5.378   8.303   2.243
21938WAT      O66055   4.993   7.241   8.346
21938WAT     H166056   4.930   7.317   8.331
21938WAT     H266057   4.946   7.154   8.328
21939WAT      O66058   5.395   1.528   5.282
21939WAT     H166059   5.345   1.506   5.198
21939WAT     H266060   5.343   1.498   5.362
21940WAT      O66061   5.447   6.390   3.865
21940WAT     H166062   5.424   6.327   3.939
21940WAT     H266063   5.542   6.419   3.873
21941WAT      O66064   7.571   6.794   1.927
21941WAT     H166065   7.559   6.821   2.022
21941WAT     H266066   7.561   6.695   1.919
21942WAT      O66067   0.455   0.588   2.310
21942WAT     H166068   0.551   0.576   2.334
21942WAT     H266069   0.403   0.613   2.392
21943WAT      O66070   0.438   4.538   9.369
21943WAT     H166071   0.459   4.499   9.459
21943WAT     H266072   0.366   4.484   9.325
21944WAT      O66073   2.327   5.448   9.029
21944WAT     H166074   2.391   5.496   8.969
21944WAT     H266075   2.257   5.403   8.973
21945WAT      O66076   9.525   4.135   5.623
21945WAT     H166077   9.579   4.220   5.620
21945WAT     H266078   9.567   4.067   5.563
21946WAT      O66079   6.590   4.257   3.280
21946WAT     H166080   6.651   4.216   3.212
21946WAT     H266081   6.498   4.265   3.241
21947WAT      O66082   7.122   8.880   9.077
21947WAT     H166083   7.040   8.823   9.085
21947WAT     H266084   7.128   8.915   8.983
21948WAT      O66085   6.261   8.164   4.107
21948WAT     H166086   6.243   8.067   4.121
21948WAT     H266087   6.305   8.202   4.189
21949WAT      O66088   9.402   5.712   2.708
21949WAT     H166089   9.452   5.790   2.744
21949WAT     H266090   9.460   5.630   2.710
21950WAT      O66091   0.562   4.380   6.295
21950WAT     H166092   0.552   4.368   6.393
21950WAT     H266093   0.580   4.476   6.275
21951WAT      O66094   1.768   4.657   4.771
21951WAT     H166095   1.675   4.660   4.807
21951WAT     H266096   1.807   4.566   4.787
21952WAT      O66097   7.247   2.031   5.716
21952WAT     H166098   7.217   2.122   5.685
21952WAT     H266099   7.332   2.006   5.670
21953WAT      O66100   4.217   7.068   8.876
21953WAT     H166101   4.271   7.149   8.899
21953WAT     H266102   4.144   7.057   8.943
21954WAT      O66103   4.707   3.647   9.113
21954WAT     H166104   4.764   3.596   9.178
21954WAT     H266105   4.764   3.710   9.061
21955WAT      O66106   2.156   3.691   4.801
21955WAT     H166107   2.167   3.788   4.779
21955WAT     H266108   2.076   3.655   4.754
21956WAT      O66109   5.224   9.488   0.070
21956WAT     H166110   5.266   9.400   0.046
21956WAT     H266111   5.245   9.556  -0.000
21957WAT      O66112   8.538   2.703   3.393
21957WAT     H166113   8.517   2.655   3.308
21957WAT     H266114   8.581   2.791   3.372
21958WAT      O66115   7.522   3.933   7.186
21958WAT     H166116   7.616   3.908   7.163
21958WAT     H266117   7.488   3.999   7.118
21959WAT      O66118   9.011   3.492   2.361
21959WAT     H166119   8.970   3.574   2.401
21959WAT     H266120   8.977   3.411   2.410
21960WAT      O66121   6.991   5.676   4.825
21960WAT     H166122   7.064   5.635   4.879
21960WAT     H266123   6.922   5.607   4.803
21961WAT      O66124   4.658   9.602   2.676
21961WAT     H166125   4.618   9.653   2.752
21961WAT     H266126   4.592   9.598   2.601
21962WAT      O66127   7.873   8.334   5.181
21962WAT     H166128   7.878   8.407   5.114
21962WAT     H266129   7.785   8.286   5.171
21963WAT      O66130   1.496   0.492   2.735
21963WAT     H166131   1.591   0.466   2.751
21963WAT     H266132   1.488   0.540   2.648
21964WAT      O66133   1.539   7.394   1.307
21964WAT     H166134   1.479   7.462   1.348
21964WAT     H266135   1.627   7.436   1.284
21965WAT      O66136   3.235   8.689   8.591
21965WAT     H166137   3.155   8.683   8.531
21965WAT     H266138   3.304   8.623   8.562
21966WAT      O66139   4.864   1.392   8.182
21966WAT     H166140   4.835   1.439   8.266
21966WAT     H266141   4.794   1.404   8.112
21967WAT      O66142   5.904   8.033   2.875
21967WAT     H166143   5.834   8.077   2.819
21967WAT     H266144   5.994   8.053   2.838
21968WAT      O66145   3.287   4.566   4.162
21968WAT     H166146   3.216   4.528   4.103
21968WAT     H266147   3.315   4.656   4.128
21969WAT      O66148   5.211   0.463   4.317
21969WAT     H166149   5.247   0.551   4.348
21969WAT     H266150   5.282   0.412   4.269
21970WAT      O66151   1.698   8.519   3.305
21970WAT     H166152   1.637   8.574   3.248
21970WAT     H266153   1.684   8.422   3.286
21971WAT      O66154   7.790   6.337   7.998
21971WAT     H166155   7.808   6.409   7.931
21971WAT     H266156   7.746   6.260   7.952
21972WAT      O66157   8.760   1.254   5.619
21972WAT     H166158   8.850   1.216   5.598
21972WAT     H266159   8.730   1.220   5.708
21973WAT      O66160   1.278   9.064   6.636
21973WAT     H166161   1.346   9.102   6.699
21973WAT     H266162   1.195   9.042   6.688
21974WAT      O66163   3.453   2.908   2.607
21974WAT     H166164   3.431   2.889   2.511
21974WAT     H266165   3.381   2.871   2.666
21975WAT      O66166   6.176   7.772   8.741
21975WAT     H166167   6.117   7.850   8.764
21975WAT     H266168   6.177   7.709   8.819
21976WAT      O66169   4.238   2.973   7.917
21976WAT     H166170   4.195   3.047   7.866
21976WAT     H266171   4.337   2.984   7.914
21977WAT      O66172   3.657   1.933   9.527
21977WAT     H166173   3.607   2.000   9.581
21977WAT     H266174   3.711   1.980   9.457
21978WAT      O66175   0.635   7.494   1.423
21978WAT     H166176   0.600   7.446   1.343
21978WAT     H266177   0.560   7.516   1.485
21979WAT      O66178   1.743   1.183   6.041
21979WAT     H166179   1.796   1.130   6.107
21979WAT     H266180   1.676   1.240   6.090
21980WAT      O66181   7.150   4.389   3.212
21980WAT     H166182   7.084   4.359   3.142
21980WAT     H266183   7.204   4.465   3.175
21981WAT      O66184   7.163   2.929   9.539
21981WAT     H166185   7.088   2.878   9.497
21981WAT     H266186   7.127   3.012   9.582
21982WAT      O66187   0.297   2.079   3.222
21982WAT     H166188   0.264   2.046   3.311
21982WAT     H266189   0.285   2.179   3.218
21983WAT      O66190   7.815   3.899   7.217
21983WAT     H166191   7.884   3.919   7.148
21983WAT     H266192   7.822   3.965   7.291
21984WAT      O66193   6.555   7.853   6.171
21984WAT     H166194   6.527   7.780   6.109
21984WAT     H266195   6.495   7.854   6.251
21985WAT      O66196   9.219   3.505   9.141
21985WAT     H166197   9.180   3.565   9.211
21985WAT     H266198   9.145   3.469   9.084
21986WAT      O66199   5.917   6.401   1.418
21986WAT     H166200   5.929   6.371   1.324
21986WAT     H266201   5.820   6.423   1.435
21987WAT      O66202   4.796   8.042   2.093
21987WAT     H166203   4.793   8.026   1.994
21987WAT     H266204   4.822   8.136   2.111
21988WAT      O66205   0.216   7.645   4.521
21988WAT     H166206   0.279   7.569   4.538
21988WAT     H266207   0.200   7.695   4.606
21989WAT      O66208   7.170   7.276   4.816
21989WAT     H166209   7.137   7.346   4.753
21989WAT     H266210   7.251   7.310   4.864
21990WAT      O66211   4.288   3.661   1.191
21990WAT     H166212   4.271   3.758   1.173
21990WAT     H266213   4.386   3.642   1.184
21991WAT      O66214   8.990   4.772   9.686
21991WAT     H166215   8.929   4.737   9.615
21991WAT     H266216   8.940   4.835   9.745
21992WAT      O66217   4.238   5.838   6.525
21992WAT     H166218   4.329   5.872   6.498
21992WAT     H266219   4.169   5.906   6.501
21993WAT      O66220   5.542   4.598   6.835
21993WAT     H166221   5.520   4.644   6.749
21993WAT     H266222   5.526   4.500   6.825
21994WAT      O66223   2.677   6.696   5.585
21994WAT     H166224   2.681   6.637   5.504
21994WAT     H266225   2.592   6.749   5.583
21995WAT      O66226   7.492   3.823   4.791
21995WAT     H166227   7.558   3.784   4.726
21995WAT     H266228   7.419   3.869   4.740
21996WAT      O66229   7.073   1.118   2.796
21996WAT     H166230   7.083   1.141   2.700
21996WAT     H266231   6.982   1.080   2.812
21997WAT      O66232   0.072   8.872   0.828
21997WAT     H166233   0.059   8.851   0.731
21997WAT     H266234   0.089   8.969   0.840
21998WAT      O66235   9.688   7.215   2.961
21998WAT     H166236   9.719   7.129   2.920
21998WAT     H266237   9.655   7.276   2.889
21999WAT      O66238   3.315   2.807   6.001
21999WAT     H166239   3.399   2.836   6.047
21999WAT     H266240   3.237   2.852   6.044
22000WAT      O66241   7.479   6.860   1.026
22000WAT     H166242   7.449   6.769   0.997
22000WAT     H266243   7.482   6.863   1.126
22001WAT      O66244   4.432   8.258   6.154
22001WAT     H166245   4.386   8.173   6.177
22001WAT     H266246   4.370   8.317   6.102
22002WAT      O66247   1.982   5.031   6.988
22002WAT     H166248   2.031   5.109   6.949
22002WAT     H266249   1.916   4.996   6.921
22003WAT      O66250   5.337   7.511   2.606
22003WAT     H166251   5.436   7.521   2.592
22003WAT     H266252   5.296   7.600   2.624
22004WAT      O66253   6.903   4.940   2.260
22004WAT     H166254   6.926   4.931   2.357
22004WAT     H266255   6.859   5.029   2.244
22005WAT      O66256   6.876   7.976   3.074
22005WAT     H166257   6.850   8.037   2.999
22005WAT     H266258   6.798   7.966   3.136
22006WAT      O66259   0.307   9.597   0.827
22006WAT     H166260   0.212   9.615   0.854
22006WAT     H266261   0.309   9.561   0.734
22007WAT      O66262   6.860   7.801   7.598
22007WAT     H166263   6.857   7.854   7.683
22007WAT     H266264   6.811   7.851   7.527
22008WAT      O66265   9.166   6.350   4.809
22008WAT     H166266   9.111   6.418   4.857
22008WAT     H266267   9.166   6.264   4.861
22009WAT      O66268   8.353   9.189   7.259
22009WAT     H166269   8.406   9.104   7.259
22009WAT     H266270   8.258   9.169   7.235
22010WAT      O66271   7.412   2.896   4.593
22010WAT     H166272   7.312   2.900   4.588
22010WAT     H266273   7.443   2.807   4.559
22011WAT      O66274   0.273   7.362   1.864
22011WAT     H166275   0.236   7.449   1.830
22011WAT     H266276   0.268   7.293   1.792
22012WAT      O66277   7.431   6.543   4.476
22012WAT     H166278   7.427   6.629   4.426
22012WAT     H266279   7.447   6.562   4.573
22013WAT      O66280   5.312   8.737   4.310
22013WAT     H166281   5.405   8.733   4.274
22013WAT     H266282   5.256   8.667   4.265
22014WAT      O66283   0.131   7.580   5.218
22014WAT     H166284   0.206   7.517   5.197
22014WAT     H266285   0.155   7.672   5.188
22015WAT      O66286   2.144   6.976   0.214
22015WAT     H166287   2.069   6.909   0.214
22015WAT     H266288   2.119   7.053   0.272
22016WAT      O66289   7.074   2.056   9.814
22016WAT     H166290   7.174   2.053   9.814
22016WAT     H266291   7.039   1.989   9.879
22017WAT      O66292   9.531   2.733   8.412
22017WAT     H166293   9.558   2.637   8.405
22017WAT     H266294   9.458   2.751   8.346
22018WAT      O66295   9.324   6.253   4.382
22018WAT     H166296   9.253   6.272   4.450
22018WAT     H266297   9.309   6.162   4.343
22019WAT      O66298   4.353   7.237   7.358
22019WAT     H166299   4.379   7.151   7.315
22019WAT     H266300   4.333   7.221   7.455
22020WAT      O66301   2.721   9.672   6.088
22020WAT     H166302   2.701   9.598   6.024
22020WAT     H266303   2.635   9.716   6.116
22021WAT      O66304   3.748   9.493   8.810
22021WAT     H166305   3.678   9.484   8.738
22021WAT     H266306   3.703   9.511   8.897
22022WAT      O66307   4.016   9.066   1.711
22022WAT     H166308   4.078   9.140   1.736
22022WAT     H266309   4.031   9.040   1.616
22023WAT      O66310   8.802   7.409   2.176
22023WAT     H166311   8.779   7.471   2.102
22023WAT     H266312   8.806   7.315   2.140
22024WAT      O66313   3.959   1.443   1.248
22024WAT     H166314   3.877   1.468   1.197
22024WAT     H266315   4.023   1.395   1.188
22025WAT      O66316   2.143   4.761   4.277
22025WAT     H166317   2.076   4.834   4.293
22025WAT     H266318   2.204   4.755   4.356
22026WAT      O66319   8.251   8.991   5.375
22026WAT     H166320   8.291   9.042   5.451
22026WAT     H266321   8.317   8.925   5.340
22027WAT      O66322   3.546   6.935   0.457
22027WAT     H166323   3.516   6.845   0.426
22027WAT     H266324   3.646   6.941   0.450
22028WAT      O66325   2.722   8.830   6.084
22028WAT     H166326   2.791   8.903   6.084
22028WAT     H266327   2.633   8.869   6.061
22029WAT      O66328   2.244   1.073   4.419
22029WAT     H166329   2.299   0.990   4.422
22029WAT     H266330   2.243   1.109   4.325
22030WAT      O66331   0.871   7.916   9.294
22030WAT     H166332   0.876   8.007   9.254
22030WAT     H266333   0.877   7.847   9.221
22031WAT      O66334   3.503   9.443   8.365
22031WAT     H166335   3.507   9.513   8.294
22031WAT     H266336   3.419   9.389   8.354
22032WAT      O66337   6.593   2.220   2.101
22032WAT     H166338   6.680   2.268   2.086
22032WAT     H266339   6.601   2.161   2.182
22033WAT      O66340   8.032   7.303   2.521
22033WAT     H166341   7.994   7.393   2.498
22033WAT     H266342   8.131   7.309   2.523
22034WAT      O66343   4.223   2.509   9.458
22034WAT     H166344   4.282   2.451   9.515
22034WAT     H266345   4.257   2.508   9.364
22035WAT      O66346   3.855   2.295   6.057
22035WAT     H166347   3.888   2.380   6.098
22035WAT     H266348   3.800   2.244   6.124
22036WAT      O66349   3.204   2.251   5.271
22036WAT     H166350   3.204   2.262   5.172
22036WAT     H266351   3.126   2.194   5.298
22037WAT      O66352   8.815   4.297   8.084
22037WAT     H166353   8.789   4.209   8.045
22037WAT     H266354   8.834   4.287   8.181
22038WAT      O66355   5.735   5.201   9.306
22038WAT     H166356   5.743   5.298   9.326
22038WAT     H266357   5.765   5.183   9.212
22039WAT      O66358   8.315   8.223   0.156
22039WAT     H166359   8.355   8.300   0.205
22039WAT     H266360   8.263   8.166   0.220
22040WAT      O66361   8.963   0.160   4.798
22040WAT     H166362   9.017   0.245   4.793
22040WAT     H266363   8.894   0.161   4.726
22041WAT      O66364   7.778   3.997   2.936
22041WAT     H166365   7.732   3.912   2.960
22041WAT     H266366   7.834   3.983   2.854
22042WAT      O66367   2.437   7.179   3.343
22042WAT     H166368   2.471   7.127   3.422
22042WAT     H266369   2.427   7.117   3.265
22043WAT      O66370   0.117   7.023   8.759
22043WAT     H166371   0.078   6.937   8.792
22043WAT     H266372   0.196   7.047   8.816
22044WAT      O66373   3.064   3.707   7.689
22044WAT     H166374   3.137   3.640   7.696
22044WAT     H266375   3.049   3.749   7.779
22045WAT      O66376   5.405   6.693   4.435
22045WAT     H166377   5.399   6.599   4.402
22045WAT     H266378   5.341   6.750   4.385
22046WAT      O66379   2.302   3.211   9.811
22046WAT     H166380   2.255   3.124   9.795
22046WAT     H266381   2.396   3.204   9.777
22047WAT      O66382   4.341   8.791   4.743
22047WAT     H166383   4.256   8.740   4.738
22047WAT     H266384   4.392   8.764   4.825
22048WAT      O66385   3.432   9.428   7.101
22048WAT     H166386   3.431   9.445   7.002
22048WAT     H266387   3.481   9.501   7.147
22049WAT      O66388   9.513   6.147   5.035
22049WAT     H166389   9.538   6.116   4.943
22049WAT     H266390   9.526   6.072   5.100
22050WAT      O66391   2.793   5.396   2.525
22050WAT     H166392   2.708   5.434   2.490
22050WAT     H266393   2.837   5.341   2.454
22051WAT      O66394   6.821   0.138   5.858
22051WAT     H166395   6.735   0.121   5.907
22051WAT     H266396   6.829   0.073   5.782
22052WAT      O66397   2.001   8.775   5.309
22052WAT     H166398   1.967   8.686   5.339
22052WAT     H266399   1.965   8.794   5.217
22053WAT      O66400   6.306   3.101   9.184
22053WAT     H166401   6.318   3.156   9.266
22053WAT     H266402   6.209   3.084   9.169
22054WAT      O66403   3.977   0.421   4.139
22054WAT     H166404   3.911   0.467   4.198
22054WAT     H266405   3.929   0.359   4.077
22055WAT      O66406   9.857   0.241   7.726
22055WAT     H166407   9.933   0.214   7.667
22055WAT     H266408   9.853   0.340   7.733
22056WAT      O66409   9.544   5.507   2.414
22056WAT     H166410   9.480   5.434   2.389
22056WAT     H266411   9.560   5.505   2.513
22057WAT      O66412   1.799   0.368   9.094
22057WAT     H166413   1.710   0.322   9.092
22057WAT     H266414   1.868   0.310   9.050
22058WAT      O66415   7.096   1.524   7.500
22058WAT     H166416   7.090   1.600   7.565
22058WAT     H266417   7.064   1.554   7.410
22059WAT      O66418   6.595   4.360   4.437
22059WAT     H166419   6.515   4.322   4.390
22059WAT     H266420   6.664   4.288   4.449
22060WAT      O66421   5.156   5.346   8.124
22060WAT     H166422   5.172   5.321   8.219
22060WAT     H266423   5.094   5.280   8.082
22061WAT      O66424   1.762   0.634   0.531
22061WAT     H166425   1.832   0.647   0.601
22061WAT     H266426   1.746   0.536   0.518
22062WAT      O66427   4.661   0.524   4.710
22062WAT     H166428   4.566   0.491   4.716
22062WAT     H266429   4.696   0.508   4.618
22063WAT      O66430   2.901   6.058   0.530
22063WAT     H166431   2.867   5.963   0.526
22063WAT     H266432   2.975   6.063   0.598
22064WAT      O66433   3.878   4.941   7.006
22064WAT     H166434   3.790   4.951   6.959
22064WAT     H266435   3.919   5.031   7.017
22065WAT      O66436   2.259   7.579   5.529
22065WAT     H166437   2.257   7.575   5.629
22065WAT     H266438   2.171   7.613   5.496
22066WAT      O66439   0.964   1.006   1.714
22066WAT     H166440   0.999   1.008   1.620
22066WAT     H266441   1.036   1.036   1.777
22067WAT      O66442   1.869   3.430   4.509
22067WAT     H166443   1.882   3.366   4.433
22067WAT     H266444   1.772   3.452   4.518
22068WAT      O66445   0.986   3.208   9.589
22068WAT     H166446   1.038   3.216   9.504
22068WAT     H266447   0.888   3.217   9.570
22069WAT      O66448   4.515   1.489   2.119
22069WAT     H166449   4.501   1.521   2.025
22069WAT     H266450   4.577   1.550   2.167
22070WAT      O66451   5.470   0.135   7.452
22070WAT     H166452   5.500   0.066   7.517
22070WAT     H266453   5.370   0.139   7.450
22071WAT      O66454   5.597   5.230   0.374
22071WAT     H166455   5.688   5.186   0.376
22071WAT     H266456   5.527   5.160   0.358
22072WAT      O66457   0.172   2.307   0.786
22072WAT     H166458   0.146   2.226   0.838
22072WAT     H266459   0.091   2.363   0.768
22073WAT      O66460   0.748   8.475   7.660
22073WAT     H166461   0.679   8.544   7.683
22073WAT     H266462   0.707   8.402   7.606
22074WAT      O66463   9.270   4.838   0.070
22074WAT     H166464   9.297   4.780  -0.007
22074WAT     H266465   9.249   4.780   0.149
22075WAT      O66466   9.261   2.980   8.684
22075WAT     H166467   9.190   3.002   8.617
22075WAT     H266468   9.254   2.884   8.711
22076WAT      O66469   3.554   6.216   4.198
22076WAT     H166470   3.522   6.134   4.149
22076WAT     H266471   3.652   6.207   4.216
22077WAT      O66472   9.654   1.934   7.277
22077WAT     H166473   9.729   1.868   7.284
22077WAT     H266474   9.584   1.912   7.345
22078WAT      O66475   1.443   9.089   1.604
22078WAT     H166476   1.372   9.152   1.637
22078WAT     H266477   1.401   9.005   1.572
22079WAT      O66478   6.505   0.055   8.999
22079WAT     H166479   6.605   0.064   9.006
22079WAT     H266480   6.471   0.001   9.077
22080WAT      O66481   2.925   8.905   1.641
22080WAT     H166482   2.886   8.997   1.641
22080WAT     H266483   2.880   8.849   1.572
22081WAT      O66484   0.143   2.028   6.582
22081WAT     H166485   0.095   2.097   6.637
22081WAT     H266486   0.181   1.958   6.642
22082WAT      O66487   6.082   3.404   8.570
22082WAT     H166488   6.084   3.305   8.557
22082WAT     H266489   6.160   3.446   8.523
22083WAT      O66490   4.838   9.126   5.446
22083WAT     H166491   4.907   9.054   5.451
22083WAT     H266492   4.798   9.140   5.537
22084WAT      O66493   1.828   2.342   6.562
22084WAT     H166494   1.775   2.259   6.546
22084WAT     H266495   1.832   2.361   6.660
22085WAT      O66496   4.109   1.874   3.013
22085WAT     H166497   4.151   1.825   2.936
22085WAT     H266498   4.017   1.838   3.029
22086WAT      O66499   3.691   2.381   5.320
22086WAT     H166500   3.763   2.331   5.366
22086WAT     H266501   3.726   2.469   5.287
22087WAT      O66502   0.030   6.605   5.257
22087WAT     H166503   0.105   6.656   5.214
22087WAT     H266504   0.034   6.616   5.356
22088WAT      O66505   8.589   8.012   6.907
22088WAT     H166506   8.522   8.074   6.948
22088WAT     H266507   8.562   7.918   6.924
22089WAT      O66508   1.810   2.914   7.745
22089WAT     H166509   1.897   2.881   7.782
22089WAT     H266510   1.800   3.012   7.765
22090WAT      O66511   5.420   8.358   4.823
22090WAT     H166512   5.389   8.317   4.909
22090WAT     H266513   5.353   8.424   4.791
22091WAT      O66514   7.129   1.619   2.839
22091WAT     H166515   7.136   1.663   2.750
22091WAT     H266516   7.145   1.521   2.829
22092WAT      O66517   8.236   0.362   4.067
22092WAT     H166518   8.208   0.403   3.980
22092WAT     H266519   8.308   0.295   4.050
22093WAT      O66520   1.992   1.052   4.113
22093WAT     H166521   1.988   0.952   4.112
22093WAT     H266522   2.082   1.082   4.142
22094WAT      O66523   5.074   6.134   0.756
22094WAT     H166524   5.115   6.181   0.834
22094WAT     H266525   4.999   6.076   0.787
22095WAT      O66526   4.270   9.586   1.893
22095WAT     H166527   4.307   9.553   1.806
22095WAT     H266528   4.271   9.511   1.959
22096WAT      O66529   5.165   9.349   4.461
22096WAT     H166530   5.124   9.329   4.550
22096WAT     H266531   5.263   9.364   4.471
22097WAT      O66532   9.804   8.471   4.038
22097WAT     H166533   9.896   8.507   4.057
22097WAT     H266534   9.742   8.496   4.113
22098WAT      O66535   4.865   9.353   9.315
22098WAT     H166536   4.812   9.386   9.237
22098WAT     H266537   4.963   9.366   9.297
22099WAT      O66538   1.582   0.784   1.145
22099WAT     H166539   1.492   0.770   1.103
22099WAT     H266540   1.627   0.863   1.102
22100WAT      O66541   3.864   1.167   0.967
22100WAT     H166542   3.867   1.075   1.006
22100WAT     H266543   3.842   1.161   0.870
22101WAT      O66544   2.647   3.892   2.715
22101WAT     H166545   2.744   3.914   2.706
22101WAT     H266546   2.620   3.825   2.646
22102WAT      O66547   2.227   3.254   6.738
22102WAT     H166548   2.218   3.170   6.685
22102WAT     H266549   2.323   3.271   6.758
22103WAT      O66550   0.585   6.044   0.192
22103WAT     H166551   0.559   6.024   0.287
22103WAT     H266552   0.503   6.044   0.134
22104WAT      O66553   1.982   3.324   1.128
22104WAT     H166554   1.969   3.341   1.226
22104WAT     H266555   2.042   3.245   1.115
22105WAT      O66556   2.009   0.145   5.681
22105WAT     H166557   1.986   0.239   5.707
22105WAT     H266558   1.936   0.107   5.624
22106WAT      O66559   6.917   5.500   5.422
22106WAT     H166560   6.958   5.410   5.408
22106WAT     H266561   6.957   5.565   5.357
22107WAT      O66562   8.470   3.448   6.341
22107WAT     H166563   8.545   3.500   6.299
22107WAT     H266564   8.411   3.410   6.269
22108WAT      O66565   0.349   0.351   8.636
22108WAT     H166566   0.387   0.302   8.715
22108WAT     H266567   0.382   0.445   8.637
22109WAT      O66568   6.682   5.734   0.607
22109WAT     H166569   6.735   5.651   0.590
22109WAT     H266570   6.744   5.809   0.630
22110WAT      O66571   2.623   4.701   0.197
22110WAT     H166572   2.631   4.759   0.278
22110WAT     H266573   2.677   4.740   0.123
22111WAT      O66574   6.484   2.078   4.517
22111WAT     H166575   6.510   2.127   4.600
22111WAT     H266576   6.385   2.064   4.515
22112WAT      O66577   7.181   0.985   3.344
22112WAT     H166578   7.145   0.993   3.437
22112WAT     H266579   7.105   0.979   3.279
22113WAT      O66580   2.339   3.599   5.590
22113WAT     H166581   2.325   3.526   5.657
22113WAT     H266582   2.324   3.563   5.498
22114WAT      O66583   6.372   4.240   4.354
22114WAT     H166584   6.352   4.157   4.302
22114WAT     H266585   6.382   4.218   4.451
22115WAT      O66586   6.381   5.894   0.334
22115WAT     H166587   6.313   5.854   0.395
22115WAT     H266588   6.402   5.829   0.261
22116WAT      O66589   1.903   9.557   9.561
22116WAT     H166590   1.967   9.489   9.596
22116WAT     H266591   1.910   9.562   9.461
22117WAT      O66592   6.699   9.808   9.416
22117WAT     H166593   6.619   9.868   9.419
22117WAT     H266594   6.672   9.720   9.377
22118WAT      O66595   7.299   6.540   7.126
22118WAT     H166596   7.302   6.455   7.179
22118WAT     H266597   7.225   6.597   7.160
22119WAT      O66598   6.638   7.196   7.874
22119WAT     H166599   6.563   7.207   7.810
22119WAT     H266600   6.651   7.280   7.926
22120WAT      O66601   1.623   6.447   8.812
22120WAT     H166602   1.538   6.469   8.765
22120WAT     H266603   1.699   6.452   8.747
22121WAT      O66604   5.335   0.504   0.818
22121WAT     H166605   5.392   0.435   0.863
22121WAT     H266606   5.366   0.595   0.845
22122WAT      O66607   3.103   8.725   1.766
22122WAT     H166608   3.088   8.634   1.729
22122WAT     H266609   3.029   8.786   1.737
22123WAT      O66610   6.677   7.947   0.718
22123WAT     H166611   6.729   7.990   0.644
22123WAT     H266612   6.735   7.880   0.765
22124WAT      O66613   7.861   2.851   3.994
22124WAT     H166614   7.821   2.938   3.965
22124WAT     H266615   7.936   2.870   4.058
22125WAT      O66616   2.781   0.582   2.915
22125WAT     H166617   2.691   0.543   2.936
22125WAT     H266618   2.782   0.678   2.940
22126WAT      O66619   4.136   3.662   9.206
22126WAT     H166620   4.147   3.701   9.298
22126WAT     H266621   4.041   3.636   9.192
22127WAT      O66622   2.733   2.379   6.794
22127WAT     H166623   2.691   2.353   6.707
22127WAT     H266624   2.663   2.409   6.857
22128WAT      O66625   3.389   0.886   9.243
22128WAT     H166626   3.297   0.865   9.277
22128WAT     H266627   3.410   0.982   9.260
22129WAT      O66628   0.077   0.870   9.535
22129WAT     H166629   0.101   0.794   9.475
22129WAT     H266630   0.130   0.863   9.620
22130WAT      O66631   2.087   9.057   8.148
22130WAT     H166632   1.990   9.078   8.162
22130WAT     H266633   2.118   8.993   8.219
22131WAT      O66634   4.296   3.978   6.108
22131WAT     H166635   4.237   3.990   6.028
22131WAT     H266636   4.242   3.981   6.191
22132WAT      O66637   8.426   4.101   9.022
22132WAT     H166638   8.477   4.028   8.976
22132WAT     H266639   8.487   4.179   9.038
22133WAT      O66640   4.881   7.296   6.656
22133WAT     H166641   4.854   7.342   6.572
22133WAT     H266642   4.850   7.201   6.654
22134WAT      O66643   1.425   9.235   5.952
22134WAT     H166644   1.337   9.260   5.992
22134WAT     H266645   1.493   9.306   5.974
22135WAT      O66646   7.391   5.369   2.505
22135WAT     H166647   7.368   5.287   2.557
22135WAT     H266648   7.441   5.342   2.422
22136WAT      O66649   7.022   4.754   6.681
22136WAT     H166650   6.982   4.731   6.593
22136WAT     H266651   7.105   4.809   6.667
22137WAT      O66652   3.936   4.982   1.307
22137WAT     H166653   3.908   4.926   1.229
22137WAT     H266654   4.019   5.033   1.284
22138WAT      O66655   1.883   8.508   9.783
22138WAT     H166656   1.804   8.568   9.798
22138WAT     H266657   1.869   8.455   9.700
22139WAT      O66658   6.775   3.029   0.693
22139WAT     H166659   6.741   3.002   0.783
22139WAT     H266660   6.835   3.108   0.702
22140WAT      O66661   9.380   7.783   8.224
22140WAT     H166662   9.303   7.825   8.273
22140WAT     H266663   9.357   7.689   8.200
22141WAT      O66664   1.154   6.711   1.158
22141WAT     H166665   1.230   6.750   1.106
22141WAT     H266666   1.105   6.645   1.102
22142WAT      O66667   5.953   2.014   6.172
22142WAT     H166668   5.903   2.094   6.206
22142WAT     H266669   5.906   1.977   6.092
22143WAT      O66670   7.101   4.919   1.282
22143WAT     H166671   7.061   4.906   1.372
22143WAT     H266672   7.029   4.913   1.212
22144WAT      O66673   0.644   0.435   9.347
22144WAT     H166674   0.581   0.405   9.419
22144WAT     H266675   0.671   0.530   9.364
22145WAT      O66676   2.880   7.079   0.143
22145WAT     H166677   2.900   7.052   0.048
22145WAT     H266678   2.937   7.025   0.205
22146WAT      O66679   4.115   7.339   3.872
22146WAT     H166680   4.136   7.413   3.935
22146WAT     H266681   4.073   7.377   3.789
22147WAT      O66682   7.227   2.287   4.456
22147WAT     H166683   7.174   2.218   4.407
22147WAT     H266684   7.218   2.272   4.555
22148WAT      O66685   4.097   8.749   2.271
22148WAT     H166686   4.075   8.778   2.364
22148WAT     H266687   4.130   8.827   2.218
22149WAT      O66688   9.277   7.761   1.992
22149WAT     H166689   9.351   7.711   2.037
22149WAT     H266690   9.306   7.855   1.975
22150WAT      O66691   4.428   1.048   1.837
22150WAT     H166692   4.364   0.976   1.865
22150WAT     H266693   4.505   1.050   1.901
22151WAT      O66694   4.291   1.906   0.690
22151WAT     H166695   4.381   1.950   0.688
22151WAT     H266696   4.220   1.977   0.685
22152WAT      O66697   8.805   8.709   2.877
22152WAT     H166698   8.815   8.797   2.924
22152WAT     H266699   8.893   8.679   2.841
22153WAT      O66700   9.857   1.208   6.803
22153WAT     H166701   9.933   1.170   6.856
22153WAT     H266702   9.772   1.161   6.829
22154WAT      O66703   1.949   6.982   9.243
22154WAT     H166704   1.899   6.994   9.329
22154WAT     H266705   2.037   6.938   9.261
22155WAT      O66706   0.073   1.451   4.276
22155WAT     H166707   0.133   1.517   4.321
22155WAT     H266708  -0.013   1.445   4.328
22156WAT      O66709   7.562   0.967   7.019
22156WAT     H166710   7.470   1.006   7.017
22156WAT     H266711   7.560   0.874   6.982
22157WAT      O66712   7.008   3.057   5.820
22157WAT     H166713   7.069   3.124   5.863
22157WAT     H266714   7.048   2.966   5.827
22158WAT      O66715   8.896   5.943   7.502
22158WAT     H166716   8.967   5.910   7.565
22158WAT     H266717   8.808   5.941   7.548
22159WAT      O66718   0.254   9.063   4.441
22159WAT     H166719   0.225   9.156   4.419
22159WAT     H266720   0.212   8.998   4.378
22160WAT      O66721   8.312   2.845   1.370
22160WAT     H166722   8.410   2.833   1.386
22160WAT     H266723   8.293   2.940   1.347
22161WAT      O66724   3.546   3.395   4.278
22161WAT     H166725   3.472   3.399   4.345
22161WAT     H266726   3.522   3.330   4.205
22162WAT      O66727   1.604   2.991   5.244
22162WAT     H166728   1.613   2.891   5.244
22162WAT     H266729   1.653   3.029   5.166
22163WAT      O66730   4.010   1.641   2.660
22163WAT     H166731   4.070   1.678   2.730
22163WAT     H266732   4.060   1.632   2.574
22164WAT      O66733   2.826   9.098   0.888
22164WAT     H166734   2.900   9.038   0.858
22164WAT     H266735   2.848   9.134   0.979
22165WAT      O66736   2.959   5.150   0.263
22165WAT     H166737   3.002   5.093   0.193
22165WAT     H266738   2.929   5.236   0.223
22166WAT      O66739   2.170   9.488   8.071
22166WAT     H166740   2.089   9.546   8.080
22166WAT     H266741   2.246   9.542   8.036
22167WAT      O66742   5.375   0.478   3.983
22167WAT     H166743   5.391   0.408   4.053
22167WAT     H266744   5.422   0.562   4.009
22168WAT      O66745   4.883   7.099   9.273
22168WAT     H166746   4.960   7.063   9.220
22168WAT     H266747   4.893   7.072   9.369
22169WAT      O66748   3.366   0.887   1.340
22169WAT     H166749   3.326   0.800   1.309
22169WAT     H266750   3.397   0.878   1.434
22170WAT      O66751   2.193   2.261   3.291
22170WAT     H166752   2.132   2.206   3.348
22170WAT     H266753   2.220   2.343   3.341
22171WAT      O66754   2.764   6.057   9.213
22171WAT     H166755   2.732   6.051   9.307
22171WAT     H266756   2.750   5.970   9.166
22172WAT      O66757   2.725   2.076   4.729
22172WAT     H166758   2.823   2.088   4.743
22172WAT     H266759   2.704   2.086   4.631
22173WAT      O66760   8.040   7.882   0.909
22173WAT     H166761   8.111   7.903   0.842
22173WAT     H266762   7.952   7.916   0.877
22174WAT      O66763   4.782   9.009   6.358
22174WAT     H166764   4.838   8.926   6.354
22174WAT     H266765   4.830   9.079   6.410
22175WAT      O66766   1.493   2.411   6.610
22175WAT     H166767   1.438   2.359   6.545
22175WAT     H266768   1.477   2.376   6.703
22176WAT      O66769   1.163   6.600   5.115
22176WAT     H166770   1.189   6.594   5.211
22176WAT     H266771   1.239   6.640   5.062
22177WAT      O66772   8.621   0.870   4.988
22177WAT     H166773   8.524   0.891   5.005
22177WAT     H266774   8.651   0.916   4.904
22178WAT      O66775   3.555   6.730   8.716
22178WAT     H166776   3.546   6.793   8.793
22178WAT     H266777   3.598   6.777   8.639
22179WAT      O66778   6.982   0.474   7.040
22179WAT     H166779   6.924   0.488   6.961
22179WAT     H266780   6.927   0.442   7.117
22180WAT      O66781   0.716   9.285   9.391
22180WAT     H166782   0.805   9.262   9.432
22180WAT     H266783   0.718   9.262   9.294
22181WAT      O66784   7.950   2.504   7.635
22181WAT     H166785   8.018   2.446   7.681
22181WAT     H266786   7.885   2.447   7.586
22182WAT      O66787   0.592   4.590   0.670
22182WAT     H166788   0.520   4.537   0.716
22182WAT     H266789   0.604   4.677   0.716
22183WAT      O66790   0.583   6.382   4.868
22183WAT     H166791   0.596   6.321   4.790
22183WAT     H266792   0.621   6.339   4.950
22184WAT      O66793   7.647   0.423   8.831
22184WAT     H166794   7.588   0.401   8.753
22184WAT     H266795   7.592   0.467   8.902
22185WAT      O66796   5.787   5.151   3.235
22185WAT     H166797   5.754   5.102   3.154
22185WAT     H266798   5.710   5.176   3.293
22186WAT      O66799   7.351   0.199   3.602
22186WAT     H166800   7.297   0.278   3.572
22186WAT     H266801   7.338   0.186   3.700
22187WAT      O66802   8.531   9.249   4.590
22187WAT     H166803   8.460   9.271   4.656
22187WAT     H266804   8.499   9.270   4.497
22188WAT      O66805   5.225   8.803   6.893
22188WAT     H166806   5.314   8.759   6.910
22188WAT     H266807   5.152   8.736   6.908
22189WAT      O66808   8.889   2.213   2.844
22189WAT     H166809   8.805   2.269   2.841
22189WAT     H266810   8.897   2.162   2.758
22190WAT      O66811   9.377   2.047   8.049
22190WAT     H166812   9.424   2.133   8.070
22190WAT     H266813   9.342   2.007   8.134
22191WAT      O66814   1.668   3.841   0.048
22191WAT     H166815   1.715   3.753   0.048
22191WAT     H266816   1.712   3.902  -0.019
22192WAT      O66817   6.493   9.094   3.646
22192WAT     H166818   6.574   9.072   3.592
22192WAT     H266819   6.430   9.016   3.645
22193WAT      O66820   7.158   0.167   8.545
22193WAT     H166821   7.223   0.184   8.472
22193WAT     H266822   7.105   0.249   8.562
22194WAT      O66823   1.755   6.097   9.606
22194WAT     H166824   1.762   5.997   9.609
22194WAT     H266825   1.712   6.125   9.521
22195WAT      O66826   1.706   3.747   1.100
22195WAT     H166827   1.764   3.684   1.048
22195WAT     H266828   1.615   3.707   1.112
22196WAT      O66829   5.965   2.556   5.822
22196WAT     H166830   5.961   2.656   5.817
22196WAT     H266831   5.876   2.518   5.796
22197WAT      O66832   4.704   5.752   1.683
22197WAT     H166833   4.641   5.675   1.674
22197WAT     H266834   4.718   5.794   1.594
22198WAT      O66835   2.602   1.004   4.909
22198WAT     H166836   2.663   1.023   4.831
22198WAT     H266837   2.517   0.965   4.875
22199WAT      O66838   2.001   7.696   5.456
22199WAT     H166839   1.953   7.615   5.421
22199WAT     H266840   1.996   7.769   5.387
22200WAT      O66841   4.261   6.130   5.009
22200WAT     H166842   4.315   6.083   5.079
22200WAT     H266843   4.194   6.190   5.053
22201WAT      O66844   3.451   0.356   7.358
22201WAT     H166845   3.366   0.381   7.313
22201WAT     H266846   3.476   0.427   7.424
22202WAT      O66847   0.211   3.697   3.031
22202WAT     H166848   0.133   3.730   2.978
22202WAT     H266849   0.260   3.774   3.072
22203WAT      O66850   7.295   6.181   6.214
22203WAT     H166851   7.366   6.239   6.173
22203WAT     H266852   7.285   6.203   6.311
22204WAT      O66853   4.036   8.815   9.804
22204WAT     H166854   4.014   8.757   9.882
22204WAT     H266855   4.091   8.763   9.738
22205WAT      O66856   6.849   6.575   0.792
22205WAT     H166857   6.892   6.636   0.859
22205WAT     H266858   6.762   6.614   0.762
22206WAT      O66859   2.441   8.748   1.173
22206WAT     H166860   2.387   8.755   1.089
22206WAT     H266861   2.458   8.839   1.210
22207WAT      O66862   2.159   6.018   3.798
22207WAT     H166863   2.177   6.055   3.890
22207WAT     H266864   2.098   5.939   3.804
22208WAT      O66865   1.071   9.542   0.133
22208WAT     H166866   1.092   9.481   0.210
22208WAT     H266867   0.998   9.605   0.159
22209WAT      O66868   4.830   3.616   1.915
22209WAT     H166869   4.750   3.624   1.975
22209WAT     H266870   4.908   3.664   1.956
22210WAT      O66871   6.407   3.026   9.618
22210WAT     H166872   6.331   2.961   9.613
22210WAT     H266873   6.373   3.114   9.648
22211WAT      O66874   3.673   6.314   0.508
22211WAT     H166875   3.586   6.269   0.485
22211WAT     H266876   3.741   6.245   0.532
22212WAT      O66877   6.283   5.606   5.621
22212WAT     H166878   6.346   5.661   5.566
22212WAT     H266879   6.290   5.510   5.596
22213WAT      O66880   6.470   1.884   9.307
22213WAT     H166881   6.460   1.820   9.384
22213WAT     H266882   6.563   1.921   9.306
22214WAT      O66883   9.049   6.046   3.616
22214WAT     H166884   9.043   6.037   3.516
22214WAT     H266885   9.010   5.965   3.659
22215WAT      O66886   8.380   3.827   0.798
22215WAT     H166887   8.405   3.732   0.818
22215WAT     H266888   8.356   3.873   0.883
22216WAT      O66889   3.645   0.117   5.098
22216WAT     H166890   3.586   0.038   5.112
22216WAT     H266891   3.644   0.175   5.179
22217WAT      O66892   2.758   9.782   5.494
22217WAT     H166893   2.664   9.813   5.483
22217WAT     H266894   2.760   9.700   5.552
22218WAT      O66895   2.387   3.642   3.365
22218WAT     H166896   2.384   3.618   3.268
22218WAT     H266897   2.298   3.677   3.394
22219WAT      O66898   3.459   9.097   8.509
22219WAT     H166899   3.403   9.049   8.576
22219WAT     H266900   3.456   9.195   8.527
22220WAT      O66901   2.666   1.396   3.351
22220WAT     H166902   2.626   1.457   3.283
22220WAT     H266903   2.596   1.368   3.416
22221WAT      O66904   1.911   3.799   5.340
22221WAT     H166905   1.986   3.866   5.347
22221WAT     H266906   1.936   3.728   5.274
22222WAT      O66907   2.685   3.447   5.565
22222WAT     H166908   2.779   3.478   5.545
22222WAT     H266909   2.651   3.496   5.645
22223WAT      O66910   2.195   1.200   3.813
22223WAT     H166911   2.099   1.176   3.826
22223WAT     H266912   2.252   1.120   3.832
22224WAT      O66913   0.574   4.712   3.519
22224WAT     H166914   0.496   4.713   3.581
22224WAT     H266915   0.642   4.778   3.550
22225WAT      O66916   2.790   5.381   8.712
22225WAT     H166917   2.873   5.325   8.709
22225WAT     H266918   2.746   5.371   8.801
22226WAT      O66919   0.479   5.741   6.983
22226WAT     H166920   0.564   5.701   6.949
22226WAT     H266921   0.449   5.690   7.064
22227WAT      O66922   8.039   2.015   7.690
22227WAT     H166923   8.113   2.047   7.631
22227WAT     H266924   8.045   1.916   7.702
22228WAT      O66925   5.417   8.856   1.422
22228WAT     H166926   5.476   8.778   1.402
22228WAT     H266927   5.342   8.826   1.481
22229WAT      O66928   6.333   9.292   3.470
22229WAT     H166929   6.384   9.231   3.531
22229WAT     H266930   6.267   9.346   3.523
22230WAT      O66931   3.926   0.806   6.388
22230WAT     H166932   3.904   0.898   6.355
22230WAT     H266933   3.938   0.808   6.487
22231WAT      O66934   5.027   9.759   4.741
22231WAT     H166935   4.946   9.711   4.706
22231WAT     H266936   5.013   9.858   4.734
22232WAT      O66937   1.917   2.680   1.863
22232WAT     H166938   1.829   2.718   1.890
22232WAT     H266939   1.985   2.695   1.935
22233WAT      O66940   0.956   7.855   5.312
22233WAT     H166941   0.870   7.836   5.264
22233WAT     H266942   1.028   7.875   5.245
22234WAT      O66943   9.053   9.469   7.533
22234WAT     H166944   9.092   9.460   7.625
22234WAT     H266945   9.109   9.419   7.468
22235WAT      O66946   0.336   4.911   7.662
22235WAT     H166947   0.370   4.969   7.588
22235WAT     H266948   0.299   4.969   7.735
22236WAT      O66949   1.431   6.028   0.035
22236WAT     H166950   1.422   6.127   0.047
22236WAT     H266951   1.348   5.983   0.068
22237WAT      O66952   5.193   8.844   9.405
22237WAT     H166953   5.113   8.851   9.344
22237WAT     H266954   5.252   8.923   9.391
22238WAT      O66955   0.891   1.675   6.957
22238WAT     H166956   0.980   1.629   6.947
22238WAT     H266957   0.883   1.748   6.889
22239WAT      O66958   8.658   1.198   5.371
22239WAT     H166959   8.692   1.234   5.457
22239WAT     H266960   8.630   1.273   5.311
22240WAT      O66961   6.486   6.756   4.568
22240WAT     H166962   6.462   6.807   4.485
22240WAT     H266963   6.405   6.745   4.625
22241WAT      O66964   5.566   8.704   4.230
22241WAT     H166965   5.546   8.679   4.135
22241WAT     H266966   5.659   8.739   4.237
22242WAT      O66967   1.743   8.631   9.209
22242WAT     H166968   1.756   8.728   9.229
22242WAT     H266969   1.789   8.577   9.280
22243WAT      O66970   6.836   2.648   7.903
22243WAT     H166971   6.879   2.683   7.986
22243WAT     H266972   6.775   2.573   7.927
22244WAT      O66973   8.472   3.881   5.010
22244WAT     H166974   8.383   3.893   5.054
22244WAT     H266975   8.540   3.936   5.059
22245WAT      O66976   6.150   3.669   8.288
22245WAT     H166977   6.142   3.702   8.382
22245WAT     H266978   6.063   3.683   8.241
22246WAT      O66979   4.518   2.209   5.993
22246WAT     H166980   4.444   2.275   5.983
22246WAT     H266981   4.508   2.161   6.081
22247WAT      O66982   6.699   3.589   4.100
22247WAT     H166983   6.607   3.597   4.137
22247WAT     H266984   6.700   3.523   4.025
22248WAT      O66985   5.246   7.906   3.177
22248WAT     H166986   5.346   7.907   3.188
22248WAT     H266987   5.216   7.814   3.152
22249WAT      O66988   3.012   7.676   2.236
22249WAT     H166989   3.046   7.704   2.146
22249WAT     H266990   3.088   7.657   2.297
22250WAT      O66991   5.944   5.472   0.283
22250WAT     H166992   6.038   5.450   0.255
22250WAT     H266993   5.921   5.564   0.250
22251WAT      O66994   5.558   7.269   3.909
22251WAT     H166995   5.604   7.254   3.996
22251WAT     H266996   5.483   7.334   3.921
22252WAT      O66997   3.790   9.007   6.568
22252WAT     H166998   3.756   9.039   6.656
22252WAT     H266999   3.889   8.994   6.573
22253WAT      O67000   6.049   0.901   3.402
22253WAT     H167001   6.001   0.882   3.488
22253WAT     H267002   5.987   0.884   3.325
22254WAT      O67003   4.516   6.885   8.116
22254WAT     H167004   4.438   6.890   8.179
22254WAT     H267005   4.553   6.793   8.116
22255WAT      O67006   9.203   0.244   2.623
22255WAT     H167007   9.212   0.307   2.700
22255WAT     H267008   9.278   0.178   2.624
22256WAT      O67009   2.800   1.580   5.717
22256WAT     H167010   2.775   1.501   5.774
22256WAT     H267011   2.874   1.630   5.761
22257WAT      O67012   7.765   7.542   0.308
22257WAT     H167013   7.673   7.544   0.267
22257WAT     H267014   7.832   7.574   0.241
22258WAT      O67015   0.759   4.271   3.957
22258WAT     H167016   0.683   4.267   4.021
22258WAT     H267017   0.793   4.179   3.940
22259WAT      O67018   3.504   3.622   1.409
22259WAT     H167019   3.495   3.659   1.501
22259WAT     H267020   3.473   3.690   1.342
22260WAT      O67021   3.743   4.402   2.167
22260WAT     H167022   3.668   4.409   2.101
22260WAT     H267023   3.747   4.484   2.223
22261WAT      O67024   4.636   1.693   9.396
22261WAT     H167025   4.651   1.625   9.325
22261WAT     H267026   4.706   1.683   9.467
22262WAT      O67027   7.680   4.587   8.156
22262WAT     H167028   7.739   4.655   8.110
22262WAT     H267029   7.622   4.542   8.088
22263WAT      O67030   6.510   3.029   4.179
22263WAT     H167031   6.445   3.019   4.103
22263WAT     H267032   6.508   2.946   4.235
22264WAT      O67033   0.764   4.190   2.433
22264WAT     H167034   0.676   4.158   2.398
22264WAT     H267035   0.793   4.271   2.381
22265WAT      O67036   5.653   3.814   9.215
22265WAT     H167037   5.567   3.864   9.226
22265WAT     H267038   5.730   3.877   9.228
22266WAT      O67039   4.786   6.637   3.151
22266WAT     H167040   4.719   6.608   3.083
22266WAT     H267041   4.876   6.644   3.109
22267WAT      O67042   2.294   6.596   5.668
22267WAT     H167043   2.353   6.669   5.702
22267WAT     H267044   2.273   6.532   5.742
22268WAT      O67045   0.775   4.478   5.949
22268WAT     H167046   0.850   4.544   5.963
22268WAT     H267047   0.772   4.452   5.852
22269WAT      O67048   0.844   7.266   0.312
22269WAT     H167049   0.930   7.215   0.317
22269WAT     H267050   0.773   7.208   0.272
22270WAT      O67051   0.307   5.300   6.435
22270WAT     H167052   0.208   5.288   6.437
22270WAT     H267053   0.329   5.384   6.385
22271WAT      O67054   2.123   9.503   2.484
22271WAT     H167055   2.152   9.579   2.543
22271WAT     H267056   2.198   9.477   2.423
22272WAT      O67057   2.584   0.434   1.188
22272WAT     H167058   2.667   0.444   1.133
22272WAT     H267059   2.555   0.338   1.187
22273WAT      O67060   0.278   8.493   5.154
22273WAT     H167061   0.237   8.567   5.102
22273WAT     H267062   0.378   8.497   5.146
22274WAT      O67063   7.710   8.030   6.089
22274WAT     H167064   7.781   8.094   6.060
22274WAT     H267065   7.746   7.970   6.160
22275WAT      O67066   0.322   4.092   2.196
22275WAT     H167067   0.276   4.180   2.186
22275WAT     H267068   0.258   4.018   2.175
22276WAT      O67069   5.438   1.003   0.797
22276WAT     H167070   5.361   1.035   0.852
22276WAT     H267071   5.491   0.936   0.849
22277WAT      O67072   8.421   2.485   1.491
22277WAT     H167073   8.518   2.508   1.499
22277WAT     H267074   8.388   2.511   1.400
22278WAT      O67075   7.616   6.177   9.372
22278WAT     H167076   7.666   6.262   9.380
22278WAT     H267077   7.518   6.194   9.388
22279WAT      O67078   5.555   3.814   2.439
22279WAT     H167079   5.573   3.719   2.415
22279WAT     H267080   5.463   3.822   2.478
22280WAT      O67081   7.993   2.291   9.700
22280WAT     H167082   8.091   2.300   9.718
22280WAT     H267083   7.942   2.349   9.763
22281WAT      O67084   4.616   9.611   5.766
22281WAT     H167085   4.565   9.539   5.719
22281WAT     H267086   4.565   9.697   5.763
22282WAT      O67087   1.034   7.084   0.357
22282WAT     H167088   1.116   7.030   0.337
22282WAT     H267089   0.953   7.026   0.350
22283WAT      O67090   1.469   7.015   3.734
22283WAT     H167091   1.500   6.923   3.758
22283WAT     H267092   1.484   7.032   3.637
22284WAT      O67093   0.998   4.859   8.315
22284WAT     H167094   0.974   4.773   8.270
22284WAT     H267095   1.071   4.843   8.381
22285WAT      O67096   3.682   5.456   5.872
22285WAT     H167097   3.769   5.460   5.823
22285WAT     H267098   3.691   5.395   5.951
22286WAT      O67099   2.892   9.408   3.335
22286WAT     H167100   2.794   9.400   3.319
22286WAT     H267101   2.909   9.421   3.432
22287WAT      O67102   5.171   8.659   3.492
22287WAT     H167103   5.188   8.569   3.451
22287WAT     H267104   5.239   8.676   3.564
22288WAT      O67105   8.630   0.072   5.277
22288WAT     H167106   8.674   0.124   5.350
22288WAT     H267107   8.685  -0.008   5.255
22289WAT      O67108   4.328   6.687   7.713
22289WAT     H167109   4.290   6.779   7.723
22289WAT     H267110   4.387   6.666   7.791
22290WAT      O67111   6.475   7.271   8.729
22290WAT     H167112   6.486   7.311   8.820
22290WAT     H267113   6.542   7.198   8.715
22291WAT      O67114   9.336   2.789   5.544
22291WAT     H167115   9.237   2.779   5.547
22291WAT     H267116   9.361   2.851   5.470
22292WAT      O67117   4.090   1.105   0.672
22292WAT     H167118   4.014   1.053   0.711
22292WAT     H267119   4.055   1.185   0.624
22293WAT      O67120   4.318   5.031   0.495
22293WAT     H167121   4.410   4.992   0.500
22293WAT     H267122   4.287   5.056   0.587
22294WAT      O67123   7.740   3.565   2.545
22294WAT     H167124   7.683   3.537   2.467
22294WAT     H267125   7.751   3.488   2.607
22295WAT      O67126   6.861   3.095   9.347
22295WAT     H167127   6.786   3.084   9.412
22295WAT     H267128   6.832   3.065   9.257
22296WAT      O67129   9.716   8.716   1.838
22296WAT     H167130   9.673   8.740   1.925
22296WAT     H267131   9.734   8.799   1.785
22297WAT      O67132   3.144   9.349   8.933
22297WAT     H167133   3.077   9.420   8.911
22297WAT     H267134   3.101   9.277   8.987
22298WAT      O67135   2.194   4.307   7.803
22298WAT     H167136   2.237   4.219   7.782
22298WAT     H267137   2.263   4.379   7.799
22299WAT      O67138   0.830   6.405   0.798
22299WAT     H167139   0.918   6.363   0.823
22299WAT     H267140   0.757   6.363   0.852
22300WAT      O67141   7.650   8.942   8.380
22300WAT     H167142   7.723   8.935   8.448
22300WAT     H267143   7.561   8.941   8.425
22301WAT      O67144   4.672   3.068   8.184
22301WAT     H167145   4.739   3.113   8.124
22301WAT     H267146   4.586   3.120   8.183
22302WAT      O67147   1.512   9.606   7.435
22302WAT     H167148   1.494   9.635   7.529
22302WAT     H267149   1.581   9.534   7.434
22303WAT      O67150   4.550   1.534   4.404
22303WAT     H167151   4.537   1.443   4.442
22303WAT     H267152   4.571   1.598   4.478
22304WAT      O67153   3.091   4.313   3.800
22304WAT     H167154   3.134   4.327   3.710
22304WAT     H267155   2.997   4.282   3.788
22305WAT      O67156   4.939   2.999   7.468
22305WAT     H167157   4.911   2.905   7.452
22305WAT     H267158   5.029   3.015   7.427
22306WAT      O67159   4.433   4.835   7.501
22306WAT     H167160   4.406   4.876   7.588
22306WAT     H267161   4.393   4.888   7.426
22307WAT      O67162   5.544   8.593   8.419
22307WAT     H167163   5.482   8.526   8.461
22307WAT     H267164   5.492   8.651   8.356
22308WAT      O67165   1.906   6.755   4.399
22308WAT     H167166   1.960   6.741   4.316
22308WAT     H267167   1.966   6.756   4.479
22309WAT      O67168   1.696   8.274   3.262
22309WAT     H167169   1.677   8.286   3.164
22309WAT     H267170   1.760   8.198   3.274
22310WAT      O67171   9.513   3.534   5.757
22310WAT     H167172   9.598   3.501   5.797
22310WAT     H267173   9.444   3.462   5.761
22311WAT      O67174   1.755   6.361   3.339
22311WAT     H167175   1.698   6.314   3.271
22311WAT     H267176   1.851   6.336   3.325
22312WAT      O67177   8.542   7.985   9.666
22312WAT     H167178   8.609   7.981   9.740
22312WAT     H267179   8.587   8.017   9.582
22313WAT      O67180   7.948   4.616   1.029
22313WAT     H167181   8.001   4.532   1.040
22313WAT     H267182   7.984   4.669   0.953
22314WAT      O67183   4.112   5.280   9.723
22314WAT     H167184   4.150   5.244   9.637
22314WAT     H267185   4.174   5.349   9.760
22315WAT      O67186   2.090   1.669   0.205
22315WAT     H167187   2.123   1.741   0.145
22315WAT     H267188   2.114   1.690   0.300
22316WAT      O67189   7.904   9.526   5.016
22316WAT     H167190   7.890   9.463   5.092
22316WAT     H267191   7.999   9.558   5.016
22317WAT      O67192   8.139   0.513   3.856
22317WAT     H167193   8.176   0.591   3.805
22317WAT     H267194   8.039   0.510   3.844
22318WAT      O67195   0.787   0.441   2.663
22318WAT     H167196   0.778   0.400   2.573
22318WAT     H267197   0.768   0.372   2.733
22319WAT      O67198   2.142   7.159   6.282
22319WAT     H167199   2.120   7.078   6.228
22319WAT     H267200   2.148   7.239   6.222
22320WAT      O67201   6.801   2.872   4.486
22320WAT     H167202   6.822   2.960   4.528
22320WAT     H267203   6.730   2.885   4.416
22321WAT      O67204   7.535   6.156   3.044
22321WAT     H167205   7.507   6.252   3.045
22321WAT     H267206   7.515   6.114   3.132
22322WAT      O67207   4.921   8.131   8.746
22322WAT     H167208   4.990   8.159   8.813
22322WAT     H267209   4.926   8.032   8.733
22323WAT      O67210   3.649   4.301   9.286
22323WAT     H167211   3.693   4.326   9.372
22323WAT     H267212   3.553   4.276   9.303
22324WAT      O67213   5.980   7.449   3.771
22324WAT     H167214   6.041   7.423   3.846
22324WAT     H267215   6.001   7.394   3.690
22325WAT      O67216   0.480   6.578   1.081
22325WAT     H167217   0.392   6.604   1.122
22325WAT     H267218   0.473   6.582   0.982
22326WAT      O67219   5.685   9.099   1.908
22326WAT     H167220   5.688   9.029   1.980
22326WAT     H267221   5.615   9.074   1.841
22327WAT      O67222   2.918   1.783   9.288
22327WAT     H167223   2.920   1.883   9.288
22327WAT     H267224   2.889   1.750   9.198
22328WAT      O67225   0.984   2.147   6.490
22328WAT     H167226   0.934   2.225   6.450
22328WAT     H267227   0.990   2.074   6.423
22329WAT      O67228   0.638   9.241   6.198
22329WAT     H167229   0.694   9.309   6.246
22329WAT     H267230   0.548   9.280   6.179
22330WAT      O67231   7.082   9.053   6.559
22330WAT     H167232   6.993   9.037   6.515
22330WAT     H267233   7.079   9.138   6.610
22331WAT      O67234   2.820   7.834   7.242
22331WAT     H167235   2.762   7.906   7.280
22331WAT     H267236   2.770   7.786   7.169
22332WAT      O67237   1.024   7.190   9.809
22332WAT     H167238   0.958   7.123   9.774
22332WAT     H267239   1.051   7.252   9.735
22333WAT      O67240   8.667   0.823   8.101
22333WAT     H167241   8.708   0.837   8.011
22333WAT     H267242   8.734   0.777   8.160
22334WAT      O67243   7.905   9.621   4.752
22334WAT     H167244   7.827   9.582   4.703
22334WAT     H267245   7.931   9.560   4.827
22335WAT      O67246   4.360   7.279   8.931
22335WAT     H167247   4.395   7.274   9.025
22335WAT     H267248   4.370   7.372   8.897
22336WAT      O67249   4.668   9.420   3.549
22336WAT     H167250   4.577   9.384   3.527
22336WAT     H267251   4.737   9.368   3.499
22337WAT      O67252   4.606   9.420   6.410
22337WAT     H167253   4.645   9.373   6.331
22337WAT     H267254   4.646   9.383   6.494
22338WAT      O67255   5.447   7.555   6.014
22338WAT     H167256   5.398   7.622   5.958
22338WAT     H267257   5.384   7.513   6.079
22339WAT      O67258   6.264   6.515   5.872
22339WAT     H167259   6.281   6.485   5.779
22339WAT     H267260   6.266   6.615   5.877
22340WAT      O67261   8.169   0.737   1.615
22340WAT     H167262   8.074   0.764   1.634
22340WAT     H267263   8.231   0.811   1.641
22341WAT      O67264   7.681   6.942   8.683
22341WAT     H167265   7.744   7.008   8.724
22341WAT     H267266   7.732   6.875   8.630
22342WAT      O67267   3.871   2.147   4.178
22342WAT     H167268   3.874   2.108   4.086
22342WAT     H267269   3.776   2.165   4.203
22343WAT      O67270   6.741   6.137   6.897
22343WAT     H167271   6.816   6.071   6.894
22343WAT     H267272   6.768   6.217   6.950
22344WAT      O67273   5.740   1.278   0.221
22344WAT     H167274   5.821   1.308   0.271
22344WAT     H267275   5.723   1.182   0.241
22345WAT      O67276   4.088   0.376   7.094
22345WAT     H167277   4.128   0.307   7.034
22345WAT     H267278   4.151   0.396   7.169
22346WAT      O67279   5.682   5.132   3.770
22346WAT     H167280   5.646   5.059   3.711
22346WAT     H267281   5.608   5.196   3.792
22347WAT      O67282   0.973   9.158   9.409
22347WAT     H167283   0.945   9.084   9.347
22347WAT     H267284   0.995   9.120   9.498
22348WAT      O67285   3.339   4.263   6.101
22348WAT     H167286   3.406   4.204   6.057
22348WAT     H267287   3.370   4.284   6.194
22349WAT      O67288   3.137   3.806   5.962
22349WAT     H167289   3.054   3.849   5.996
22349WAT     H267290   3.113   3.743   5.887
22350WAT      O67291   6.893   1.219   2.058
22350WAT     H167292   6.960   1.257   1.993
22350WAT     H267293   6.804   1.214   2.014
22351WAT      O67294   4.498   8.934   0.283
22351WAT     H167295   4.455   8.847   0.259
22351WAT     H267296   4.597   8.922   0.289
22352WAT      O67297   6.026   8.126   3.475
22352WAT     H167298   5.938   8.081   3.464
22352WAT     H267299   6.097   8.074   3.427
22353WAT      O67300   6.556   3.674   5.166
22353WAT     H167301   6.538   3.634   5.257
22353WAT     H267302   6.556   3.773   5.173
22354WAT      O67303   7.414   0.220   5.771
22354WAT     H167304   7.397   0.297   5.832
22354WAT     H267305   7.495   0.171   5.800
22355WAT      O67306   7.237   5.157   2.345
22355WAT     H167307   7.313   5.166   2.410
22355WAT     H267308   7.160   5.111   2.391
22356WAT      O67309   1.058   1.064   4.523
22356WAT     H167310   1.128   1.040   4.590
22356WAT     H267311   0.967   1.048   4.562
22357WAT      O67312   8.523   7.789   0.562
22357WAT     H167313   8.500   7.885   0.544
22357WAT     H267314   8.478   7.731   0.494
22358WAT      O67315   4.543   7.619   7.897
22358WAT     H167316   4.510   7.606   7.990
22358WAT     H267317   4.628   7.567   7.885
22359WAT      O67318   3.151   3.386   2.287
22359WAT     H167319   3.134   3.414   2.382
22359WAT     H267320   3.166   3.287   2.285
22360WAT      O67321   9.549   2.509   1.469
22360WAT     H167322   9.530   2.547   1.559
22360WAT     H267323   9.497   2.424   1.456
22361WAT      O67324   1.322   0.731   3.873
22361WAT     H167325   1.280   0.807   3.824
22361WAT     H267326   1.251   0.671   3.909
22362WAT      O67327   4.026   2.444   9.789
22362WAT     H167328   4.069   2.384   9.722
22362WAT     H267329   4.096   2.483   9.850
22363WAT      O67330   5.702   1.868   8.869
22363WAT     H167331   5.770   1.809   8.825
22363WAT     H267332   5.616   1.862   8.819
22364WAT      O67333   7.907   2.056   3.993
22364WAT     H167334   7.861   2.041   4.080
22364WAT     H267335   7.932   1.968   3.953
22365WAT      O67336   6.777   4.595   3.528
22365WAT     H167337   6.831   4.518   3.494
22365WAT     H267338   6.714   4.563   3.599
22366WAT      O67339   2.383   5.494   5.965
22366WAT     H167340   2.444   5.566   5.998
22366WAT     H267341   2.357   5.435   6.041
22367WAT      O67342   1.860   2.858   8.493
22367WAT     H167343   1.820   2.775   8.531
22367WAT     H267344   1.812   2.883   8.409
22368WAT      O67345   5.807   5.820   9.064
22368WAT     H167346   5.904   5.842   9.050
22368WAT     H267347   5.752   5.902   9.048
22369WAT      O67348   0.342   7.282   7.907
22369WAT     H167349   0.376   7.272   8.000
22369WAT     H267350   0.244   7.304   7.909
22370WAT      O67351   7.580   4.662   1.955
22370WAT     H167352   7.591   4.664   1.855
22370WAT     H267353   7.668   4.643   1.998
22371WAT      O67354   8.797   9.310   1.412
22371WAT     H167355   8.858   9.265   1.346
22371WAT     H267356   8.758   9.392   1.370
22372WAT      O67357   8.569   7.532   4.318
22372WAT     H167358   8.527   7.449   4.281
22372WAT     H267359   8.649   7.507   4.372
22373WAT      O67360   7.839   6.340   5.745
22373WAT     H167361   7.903   6.293   5.685
22373WAT     H267362   7.796   6.416   5.696
22374WAT      O67363   6.574   8.536   4.628
22374WAT     H167364   6.570   8.580   4.717
22374WAT     H267365   6.607   8.601   4.560
22375WAT      O67366   6.834   1.687   5.519
22375WAT     H167367   6.869   1.773   5.483
22375WAT     H267368   6.754   1.658   5.466
22376WAT      O67369   5.992   7.069   7.029
22376WAT     H167370   6.051   7.076   6.949
22376WAT     H267371   5.921   7.140   7.025
22377WAT      O67372   0.598   8.591   4.250
22377WAT     H167373   0.624   8.500   4.283
22377WAT     H267374   0.674   8.655   4.266
22378WAT      O67375   3.736   8.193   2.518
22378WAT     H167376   3.670   8.180   2.592
22378WAT     H267377   3.800   8.265   2.544
22379WAT      O67378   9.649   4.838   6.338
22379WAT     H167379   9.565   4.784   6.348
22379WAT     H267380   9.625   4.935   6.327
22380WAT      O67381   4.274   9.190   1.803
22380WAT     H167382   4.364   9.228   1.824
22380WAT     H267383   4.279   9.135   1.720
22381WAT      O67384   1.696   1.597   0.382
22381WAT     H167385   1.606   1.568   0.348
22381WAT     H267386   1.768   1.560   0.323
22382WAT      O67387   6.296   0.603   5.748
22382WAT     H167388   6.343   0.608   5.836
22382WAT     H267389   6.199   0.622   5.761
22383WAT      O67390   7.654   1.442   0.218
22383WAT     H167391   7.607   1.500   0.153
22383WAT     H267392   7.744   1.481   0.240
22384WAT      O67393   7.962   1.877   0.407
22384WAT     H167394   7.879   1.834   0.442
22384WAT     H267395   7.965   1.972   0.437
22385WAT      O67396   1.919   8.086   3.605
22385WAT     H167397   2.009   8.049   3.629
22385WAT     H267398   1.849   8.038   3.658
22386WAT      O67399   0.171   4.860   6.766
22386WAT     H167400   0.116   4.862   6.683
22386WAT     H267401   0.175   4.767   6.802
22387WAT      O67402   4.407   0.120   6.757
22387WAT     H167403   4.472   0.049   6.783
22387WAT     H267404   4.331   0.079   6.705
22388WAT      O67405   9.057   8.891   7.552
22388WAT     H167406   9.005   8.964   7.598
22388WAT     H267407   8.995   8.816   7.528
22389WAT      O67408   6.881   3.369   3.593
22389WAT     H167409   6.847   3.458   3.624
22389WAT     H267410   6.961   3.382   3.535
22390WAT      O67411   4.590   1.071   4.934
22390WAT     H167412   4.643   1.002   4.983
22390WAT     H267413   4.496   1.072   4.968
22391WAT      O67414   4.982   6.134   6.797
22391WAT     H167415   4.999   6.202   6.868
22391WAT     H267416   4.914   6.068   6.828
22392WAT      O67417   1.800   9.062   3.276
22392WAT     H167418   1.703   9.070   3.256
22392WAT     H267419   1.815   9.076   3.374
22393WAT      O67420   4.568   0.245   5.347
22393WAT     H167421   4.534   0.270   5.257
22393WAT     H267422   4.624   0.162   5.339
22394WAT      O67423   9.855   4.623   1.041
22394WAT     H167424   9.855   4.543   1.102
22394WAT     H267425   9.924   4.688   1.072
22395WAT      O67426   2.973   9.361   4.846
22395WAT     H167427   2.916   9.299   4.899
22395WAT     H267428   2.923   9.390   4.764
22396WAT      O67429   9.200   2.149   0.298
22396WAT     H167430   9.250   2.208   0.361
22396WAT     H267431   9.159   2.072   0.348
22397WAT      O67432   9.171   3.738   5.215
22397WAT     H167433   9.210   3.823   5.252
22397WAT     H267434   9.084   3.719   5.260
22398WAT      O67435   7.968   6.001   1.463
22398WAT     H167436   7.892   5.938   1.450
22398WAT     H267437   7.973   6.063   1.384
22399WAT      O67438   7.281   6.954   0.309
22399WAT     H167439   7.206   6.906   0.354
22399WAT     H267440   7.368   6.927   0.352
22400WAT      O67441   6.486   0.338   0.751
22400WAT     H167442   6.475   0.246   0.715
22400WAT     H267443   6.527   0.397   0.681
22401WAT      O67444   8.363   4.731   8.421
22401WAT     H167445   8.418   4.661   8.375
22401WAT     H267446   8.308   4.687   8.492
22402WAT      O67447   8.831   4.524   4.945
22402WAT     H167448   8.789   4.529   5.035
22402WAT     H267449   8.790   4.593   4.885
22403WAT      O67450   6.334   3.526   1.050
22403WAT     H167451   6.385   3.602   1.091
22403WAT     H267452   6.397   3.466   1.001
22404WAT      O67453   5.186   9.342   8.996
22404WAT     H167454   5.114   9.353   8.927
22404WAT     H267455   5.260   9.407   8.979
22405WAT      O67456   5.830   9.740   4.209
22405WAT     H167457   5.743   9.760   4.165
22405WAT     H267458   5.838   9.641   4.225
22406WAT      O67459   6.145   4.087   7.120
22406WAT     H167460   6.202   4.004   7.122
22406WAT     H267461   6.161   4.140   7.204
22407WAT      O67462   6.308   8.788   4.090
22407WAT     H167463   6.255   8.859   4.136
22407WAT     H267464   6.389   8.766   4.144
22408WAT      O67465   6.534   8.801   4.233
22408WAT     H167466   6.524   8.823   4.330
22408WAT     H267467   6.576   8.879   4.186
22409WAT      O67468   8.222   9.218   4.946
22409WAT     H167469   8.284   9.209   5.024
22409WAT     H267470   8.235   9.308   4.903
22410WAT      O67471   3.974   9.297   5.618
22410WAT     H167472   3.875   9.299   5.602
22410WAT     H267473   4.021   9.338   5.540
22411WAT      O67474   5.721   0.582   6.902
22411WAT     H167475   5.710   0.625   6.812
22411WAT     H267476   5.675   0.637   6.971
22412WAT      O67477   5.466   4.794   7.698
22412WAT     H167478   5.465   4.858   7.776
22412WAT     H267479   5.433   4.841   7.616
22413WAT      O67480   7.597   8.995   9.649
22413WAT     H167481   7.562   8.901   9.647
22413WAT     H267482   7.523   9.059   9.626
22414WAT      O67483   5.275   2.496   4.241
22414WAT     H167484   5.332   2.465   4.317
22414WAT     H267485   5.189   2.444   4.241
22415WAT      O67486   0.846   4.689   3.976
22415WAT     H167487   0.903   4.735   3.909
22415WAT     H267488   0.762   4.742   3.991
22416WAT      O67489   1.588   7.515   4.037
22416WAT     H167490   1.610   7.525   3.940
22416WAT     H267491   1.640   7.582   4.090
22417WAT      O67492   0.400   7.509   5.506
22417WAT     H167493   0.339   7.573   5.553
22417WAT     H267494   0.480   7.491   5.564
22418WAT      O67495   6.823   9.525   3.267
22418WAT     H167496   6.892   9.477   3.213
22418WAT     H267497   6.796   9.609   3.220
22419WAT      O67498   6.062   0.320   8.327
22419WAT     H167499   6.138   0.278   8.277
22419WAT     H267500   5.994   0.352   8.261
22420WAT      O67501   1.696   6.086   8.191
22420WAT     H167502   1.786   6.063   8.155
22420WAT     H267503   1.701   6.172   8.242
22421WAT      O67504   7.922   1.090   4.174
22421WAT     H167505   7.862   1.089   4.095
22421WAT     H267506   7.917   1.002   4.222
22422WAT      O67507   8.481   0.992   3.016
22422WAT     H167508   8.501   0.899   2.983
22422WAT     H267509   8.430   0.985   3.102
22423WAT      O67510   3.332   8.580   2.028
22423WAT     H167511   3.404   8.606   1.963
22423WAT     H267512   3.361   8.499   2.079
22424WAT      O67513   6.775   0.559   9.107
22424WAT     H167514   6.767   0.476   9.161
22424WAT     H267515   6.740   0.637   9.160
22425WAT      O67516   1.750   2.700   3.671
22425WAT     H167517   1.786   2.685   3.763
22425WAT     H267518   1.650   2.697   3.673
22426WAT      O67519   0.268   0.662   3.422
22426WAT     H167520   0.223   0.641   3.335
22426WAT     H267521   0.199   0.698   3.486
22427WAT      O67522   5.257   0.529   6.389
22427WAT     H167523   5.285   0.562   6.299
22427WAT     H267524   5.174   0.577   6.417
22428WAT      O67525   1.962   5.005   0.564
22428WAT     H167526   1.901   5.058   0.623
22428WAT     H267527   1.917   4.921   0.537
22429WAT      O67528   6.345   4.708   3.678
22429WAT     H167529   6.406   4.740   3.606
22429WAT     H267530   6.253   4.698   3.642
22430WAT      O67531   6.171   5.641   9.031
22430WAT     H167532   6.243   5.659   9.099
22430WAT     H267533   6.213   5.613   8.945
22431WAT      O67534   0.770   1.740   2.098
22431WAT     H167535   0.671   1.727   2.097
22431WAT     H267536   0.796   1.799   2.022
22432WAT      O67537   7.909   1.459   0.859
22432WAT     H167538   7.822   1.439   0.904
22432WAT     H267539   7.900   1.543   0.805
22433WAT      O67540   8.819   9.491   2.387
22433WAT     H167541   8.725   9.477   2.356
22433WAT     H267542   8.866   9.554   2.325
22434WAT      O67543   1.060   9.206   7.196
22434WAT     H167544   0.985   9.267   7.219
22434WAT     H267545   1.147   9.256   7.197
22435WAT      O67546   8.357   2.585   7.678
22435WAT     H167547   8.401   2.674   7.687
22435WAT     H267548   8.289   2.589   7.604
22436WAT      O67549   6.664   8.122   1.682
22436WAT     H167550   6.662   8.158   1.775
22436WAT     H267551   6.687   8.196   1.618
22437WAT      O67552   1.689   8.948   5.413
22437WAT     H167553   1.637   8.952   5.498
22437WAT     H267554   1.690   8.854   5.379
22438WAT      O67555   0.947   3.604   3.997
22438WAT     H167556   0.989   3.633   4.083
22438WAT     H267557   0.972   3.669   3.925
22439WAT      O67558   5.823   3.593   5.445
22439WAT     H167559   5.891   3.629   5.381
22439WAT     H267560   5.768   3.669   5.482
22440WAT      O67561   8.357   0.475   7.338
22440WAT     H167562   8.429   0.428   7.389
22440WAT     H267563   8.398   0.542   7.277
22441WAT      O67564   6.837   6.189   3.494
22441WAT     H167565   6.806   6.133   3.417
22441WAT     H267566   6.896   6.134   3.553
22442WAT      O67567   4.105   4.589   8.158
22442WAT     H167568   4.073   4.684   8.162
22442WAT     H267569   4.190   4.580   8.210
22443WAT      O67570   6.901   8.768   1.642
22443WAT     H167571   6.967   8.705   1.601
22443WAT     H267572   6.809   8.740   1.618
22444WAT      O67573   7.746   3.193   7.269
22444WAT     H167574   7.744   3.123   7.340
22444WAT     H267575   7.727   3.283   7.309
22445WAT      O67576   3.778   5.244   6.003
22445WAT     H167577   3.750   5.169   6.063
22445WAT     H267578   3.791   5.209   5.910
22446WAT      O67579   3.074   1.864   8.234
22446WAT     H167580   3.086   1.765   8.239
22446WAT     H267581   3.045   1.898   8.324
22447WAT      O67582   0.258   4.689   7.538
22447WAT     H167583   0.293   4.769   7.588
22447WAT     H267584   0.328   4.619   7.534
22448WAT      O67585   2.086   9.201   5.712
22448WAT     H167586   2.170   9.185   5.659
22448WAT     H267587   2.065   9.298   5.712
22449WAT      O67588   3.965   2.791   4.166
22449WAT     H167589   3.978   2.885   4.197
22449WAT     H267590   3.900   2.745   4.226
22450WAT      O67591   3.574   1.629   5.248
22450WAT     H167592   3.507   1.698   5.222
22450WAT     H267593   3.638   1.614   5.173
22451WAT      O67594   3.431   8.406   6.075
22451WAT     H167595   3.471   8.388   6.165
22451WAT     H267596   3.462   8.496   6.043
22452WAT      O67597   8.369   9.505   4.363
22452WAT     H167598   8.351   9.408   4.345
22452WAT     H267599   8.317   9.561   4.299
22453WAT      O67600   8.521   0.285   7.427
22453WAT     H167601   8.618   0.277   7.402
22453WAT     H267602   8.497   0.214   7.492
22454WAT      O67603   0.986   5.112   0.228
22454WAT     H167604   1.042   5.093   0.308
22454WAT     H267605   0.909   5.048   0.225
22455WAT      O67606   0.102   5.057   9.548
22455WAT     H167607   0.162   5.066   9.627
22455WAT     H267608   0.153   5.080   9.465
22456WAT      O67609   3.656   6.863   9.748
22456WAT     H167610   3.578   6.820   9.703
22456WAT     H267611   3.735   6.865   9.686
22457WAT      O67612   7.488   3.580   2.095
22457WAT     H167613   7.493   3.483   2.069
22457WAT     H267614   7.579   3.621   2.089
22458WAT      O67615   1.920   7.507   2.247
22458WAT     H167616   1.982   7.563   2.303
22458WAT     H267617   1.884   7.563   2.172
22459WAT      O67618   7.699   2.386   5.223
22459WAT     H167619   7.740   2.331   5.150
22459WAT     H267620   7.732   2.353   5.312
22460WAT      O67621   9.728   0.498   1.839
22460WAT     H167622   9.693   0.581   1.883
22460WAT     H267623   9.654   0.433   1.826
22461WAT      O67624   3.212   1.354   8.938
22461WAT     H167625   3.197   1.256   8.929
22461WAT     H267626   3.273   1.371   9.016
22462WAT      O67627   0.498   2.343   7.801
22462WAT     H167628   0.415   2.292   7.778
22462WAT     H267629   0.473   2.437   7.825
22463WAT      O67630   4.111   4.217   0.427
22463WAT     H167631   4.109   4.247   0.332
22463WAT     H267632   4.048   4.140   0.439
22464WAT      O67633   8.127   1.629   3.908
22464WAT     H167634   8.180   1.686   3.970
22464WAT     H267635   8.151   1.533   3.922
22465WAT      O67636   8.571   4.213   1.742
22465WAT     H167637   8.657   4.172   1.771
22465WAT     H267638   8.496   4.175   1.796
22466WAT      O67639   6.641   7.491   4.173
22466WAT     H167640   6.630   7.590   4.180
22466WAT     H267641   6.586   7.457   4.097
22467WAT      O67642   1.226   3.943   3.877
22467WAT     H167643   1.240   4.013   3.808
22467WAT     H267644   1.174   3.981   3.954
22468WAT      O67645   2.950   5.019   6.204
22468WAT     H167646   2.855   5.050   6.196
22468WAT     H267647   2.979   5.025   6.299
22469WAT      O67648   0.294   8.272   7.635
22469WAT     H167649   0.235   8.352   7.640
22469WAT     H267650   0.373   8.285   7.695
22470WAT      O67651   9.813   7.611   2.807
22470WAT     H167652   9.851   7.648   2.721
22470WAT     H267653   9.737   7.669   2.837
22471WAT      O67654   1.303   5.023   7.805
22471WAT     H167655   1.327   5.116   7.835
22471WAT     H267656   1.204   5.014   7.800
22472WAT      O67657   7.059   3.552   1.165
22472WAT     H167658   7.133   3.505   1.117
22472WAT     H267659   7.097   3.602   1.243
22473WAT      O67660   4.000   0.891   3.392
22473WAT     H167661   4.076   0.953   3.413
22473WAT     H267662   4.036   0.808   3.350
22474WAT      O67663   6.187   2.358   4.650
22474WAT     H167664   6.185   2.260   4.629
22474WAT     H267665   6.271   2.381   4.699
22475WAT      O67666   3.630   6.820   8.218
22475WAT     H167667   3.687   6.873   8.154
22475WAT     H267668   3.534   6.842   8.203
22476WAT      O67669   9.282   2.591   0.675
22476WAT     H167670   9.292   2.492   0.678
22476WAT     H267671   9.296   2.629   0.766
22477WAT      O67672   2.840   4.015   5.195
22477WAT     H167673   2.793   4.057   5.272
22477WAT     H267674   2.923   4.068   5.173
22478WAT      O67675   5.570   2.754   6.047
22478WAT     H167676   5.664   2.727   6.066
22478WAT     H267677   5.568   2.823   5.975
22479WAT      O67678   8.586   4.502   3.279
22479WAT     H167679   8.655   4.575   3.279
22479WAT     H267680   8.617   4.427   3.222
22480WAT      O67681   5.578   0.997   0.042
22480WAT     H167682   5.528   1.022  -0.040
22480WAT     H267683   5.665   0.954   0.017
22481WAT      O67684   2.459   7.068   9.504
22481WAT     H167685   2.543   7.121   9.519
22481WAT     H267686   2.455   7.040   9.408
22482WAT      O67687   1.298   5.310   8.289
22482WAT     H167688   1.361   5.385   8.270
22482WAT     H267689   1.302   5.243   8.216
22483WAT      O67690   4.424   4.283   5.524
22483WAT     H167691   4.359   4.306   5.452
22483WAT     H267692   4.376   4.239   5.600
22484WAT      O67693   1.158   3.887   2.934
22484WAT     H167694   1.222   3.817   2.966
22484WAT     H267695   1.209   3.958   2.885
22485WAT      O67696   6.638   3.992   4.731
22485WAT     H167697   6.686   3.942   4.658
22485WAT     H267698   6.692   4.072   4.757
22486WAT      O67699   8.419   4.998   9.140
22486WAT     H167700   8.321   4.976   9.149
22486WAT     H267701   8.446   5.059   9.214
22487WAT      O67702   2.092   2.869   3.191
22487WAT     H167703   2.008   2.832   3.152
22487WAT     H267704   2.139   2.923   3.122
22488WAT      O67705   4.991   6.002   2.303
22488WAT     H167706   5.077   5.998   2.253
22488WAT     H267707   4.974   5.914   2.348
22489WAT      O67708   4.521   0.054   1.314
22489WAT     H167709   4.485   0.111   1.240
22489WAT     H267710   4.494   0.094   1.402
22490WAT      O67711   7.749   8.780   4.732
22490WAT     H167712   7.794   8.849   4.675
22490WAT     H267713   7.678   8.824   4.787
22491WAT      O67714   6.297   7.646   9.090
22491WAT     H167715   6.366   7.586   9.050
22491WAT     H267716   6.207   7.619   9.057
22492WAT      O67717   3.578   0.310   1.585
22492WAT     H167718   3.531   0.366   1.653
22492WAT     H267719   3.552   0.215   1.597
22493WAT      O67720   1.307   1.426   9.875
22493WAT     H167721   1.267   1.420   9.966
22493WAT     H267722   1.405   1.403   9.880
22494WAT      O67723   2.372   1.715   3.390
22494WAT     H167724   2.299   1.648   3.403
22494WAT     H267725   2.339   1.806   3.415
22495WAT      O67726   1.898   7.528   8.522
22495WAT     H167727   1.838   7.457   8.484
22495WAT     H267728   1.975   7.541   8.460
22496WAT      O67729   3.802   0.701   0.654
22496WAT     H167730   3.765   0.697   0.561
22496WAT     H267731   3.899   0.679   0.652
22497WAT      O67732   9.641   6.524   7.416
22497WAT     H167733   9.560   6.484   7.372
22497WAT     H267734   9.664   6.610   7.371
22498WAT      O67735   8.901   5.482   0.788
22498WAT     H167736   8.808   5.482   0.823
22498WAT     H267737   8.927   5.574   0.760
22499WAT      O67738   7.973   2.701   2.667
22499WAT     H167739   7.902   2.681   2.735
22499WAT     H267740   8.050   2.746   2.712
22500WAT      O67741   7.981   6.345   6.745
22500WAT     H167742   7.945   6.293   6.823
22500WAT     H267743   8.046   6.288   6.694
22501WAT      O67744   4.929   7.784   8.109
22501WAT     H167745   5.002   7.740   8.161
22501WAT     H267746   4.968   7.855   8.050
22502WAT      O67747   7.375   3.208   4.085
22502WAT     H167748   7.388   3.306   4.072
22502WAT     H267749   7.289   3.180   4.043
22503WAT      O67750   3.951   6.883   2.082
22503WAT     H167751   4.036   6.896   2.133
22503WAT     H267752   3.953   6.936   1.998
22504WAT      O67753   7.735   4.041   4.663
22504WAT     H167754   7.726   3.943   4.649
22504WAT     H267755   7.831   4.064   4.679
22505WAT      O67756   8.475   5.593   9.558
22505WAT     H167757   8.513   5.618   9.647
22505WAT     H267758   8.380   5.622   9.552
22506WAT      O67759   5.228   0.697   7.566
22506WAT     H167760   5.183   0.778   7.529
22506WAT     H267761   5.236   0.705   7.665
22507WAT      O67762   8.108   3.581   9.143
22507WAT     H167763   8.082   3.637   9.221
22507WAT     H267764   8.121   3.639   9.063
22508WAT      O67765   6.205   9.704   9.361
22508WAT     H167766   6.180   9.651   9.442
22508WAT     H267767   6.157   9.792   9.363
22509WAT      O67768   7.179   8.048   2.443
22509WAT     H167769   7.146   8.106   2.368
22509WAT     H267770   7.277   8.062   2.455
22510WAT      O67771   3.084   7.474   0.926
22510WAT     H167772   3.091   7.460   0.827
22510WAT     H267773   3.096   7.571   0.947
22511WAT      O67774   3.483   3.434   8.611
22511WAT     H167775   3.500   3.339   8.584
22511WAT     H267776   3.524   3.451   8.700
22512WAT      O67777   9.677   6.460   8.624
22512WAT     H167778   9.734   6.383   8.652
22512WAT     H267779   9.580   6.435   8.632
22513WAT      O67780   0.092   2.173   3.839
22513WAT     H167781   0.063   2.089   3.794
22513WAT     H267782   0.015   2.237   3.845
22514WAT      O67783   5.563   9.498   8.234
22514WAT     H167784   5.638   9.508   8.169
22514WAT     H267785   5.530   9.588   8.261
22515WAT      O67786   4.432   5.447   7.241
22515WAT     H167787   4.339   5.426   7.272
22515WAT     H267788   4.463   5.376   7.177
22516WAT      O67789   3.667   8.890   7.414
22516WAT     H167790   3.711   8.952   7.479
22516WAT     H267791   3.576   8.924   7.392
22517WAT      O67792   0.772   3.141   4.151
22517WAT     H167793   0.871   3.129   4.140
22517WAT     H267794   0.754   3.230   4.193
22518WAT      O67795   0.830   6.282   3.958
22518WAT     H167796   0.810   6.201   4.012
22518WAT     H267797   0.806   6.265   3.862
22519WAT      O67798   9.777   8.613   9.676
22519WAT     H167799   9.756   8.693   9.732
22519WAT     H267800   9.697   8.553   9.672
22520WAT      O67801   4.517   8.698   1.425
22520WAT     H167802   4.588   8.686   1.355
22520WAT     H267803   4.541   8.775   1.484
22521WAT      O67804   6.052   9.165   4.001
22521WAT     H167805   6.066   9.106   4.081
22521WAT     H267806   5.974   9.133   3.948
22522WAT      O67807   0.208   2.087   2.281
22522WAT     H167808   0.165   2.050   2.364
22522WAT     H267809   0.301   2.115   2.302
22523WAT      O67810   8.020   1.202   9.073
22523WAT     H167811   7.961   1.126   9.100
22523WAT     H267812   7.975   1.255   9.002
22524WAT      O67813   8.834   0.298   7.396
22524WAT     H167814   8.803   0.363   7.327
22524WAT     H267815   8.934   0.288   7.392
22525WAT      O67816   6.150   7.193   6.046
22525WAT     H167817   6.052   7.188   6.031
22525WAT     H267818   6.172   7.160   6.138
22526WAT      O67819   4.568   7.588   7.275
22526WAT     H167820   4.487   7.558   7.224
22526WAT     H267821   4.627   7.642   7.216
22527WAT      O67822   8.680   1.966   6.854
22527WAT     H167823   8.742   1.942   6.929
22527WAT     H267824   8.681   2.066   6.841
22528WAT      O67825   7.931   5.693   1.017
22528WAT     H167826   7.877   5.773   0.990
22528WAT     H267827   7.951   5.697   1.115
22529WAT      O67828   7.186   1.254   9.598
22529WAT     H167829   7.118   1.180   9.605
22529WAT     H267830   7.139   1.339   9.571
22530WAT      O67831   6.789   4.952   6.131
22530WAT     H167832   6.771   4.900   6.214
22530WAT     H267833   6.848   5.030   6.152
22531WAT      O67834   1.547   2.400   2.916
22531WAT     H167835   1.522   2.459   2.992
22531WAT     H267836   1.484   2.413   2.840
22532WAT      O67837   4.941   7.517   3.264
22532WAT     H167838   4.951   7.557   3.355
22532WAT     H267839   4.996   7.434   3.258
22533WAT      O67840   4.072   7.562   1.433
22533WAT     H167841   4.007   7.505   1.483
22533WAT     H267842   4.163   7.522   1.439
22534WAT      O67843   7.488   3.129   9.645
22534WAT     H167844   7.540   3.044   9.644
22534WAT     H267845   7.539   3.200   9.597
22535WAT      O67846   8.417   1.693   1.874
22535WAT     H167847   8.343   1.626   1.869
22535WAT     H267848   8.435   1.715   1.970
22536WAT      O67849   0.819   0.913   8.399
22536WAT     H167850   0.916   0.936   8.409
22536WAT     H267851   0.810   0.839   8.332
22537WAT      O67852   7.866   5.905   5.287
22537WAT     H167853   7.860   6.005   5.290
22537WAT     H267854   7.937   5.878   5.222
22538WAT      O67855   4.592   5.277   2.362
22538WAT     H167856   4.587   5.188   2.408
22538WAT     H267857   4.509   5.329   2.380
22539WAT      O67858   0.715   2.831   4.822
22539WAT     H167859   0.800   2.828   4.875
22539WAT     H267860   0.735   2.862   4.729
22540WAT      O67861   6.448   4.568   9.463
22540WAT     H167862   6.522   4.599   9.523
22540WAT     H267863   6.464   4.473   9.436
22541WAT      O67864   9.561   6.834   9.229
22541WAT     H167865   9.575   6.933   9.228
22541WAT     H267866   9.484   6.810   9.170
22542WAT      O67867   6.220   7.533   1.933
22542WAT     H167868   6.274   7.588   1.870
22542WAT     H267869   6.269   7.525   2.020
22543WAT      O67870   6.279   2.049   3.708
22543WAT     H167871   6.304   2.066   3.803
22543WAT     H267872   6.318   2.119   3.650
22544WAT      O67873   1.698   0.646   7.471
22544WAT     H167874   1.796   0.664   7.483
22544WAT     H267875   1.647   0.684   7.548
22545WAT      O67876   0.624   7.987   7.359
22545WAT     H167877   0.600   7.936   7.441
22545WAT     H267878   0.716   8.026   7.369
22546WAT      O67879   3.349   8.998   0.184
22546WAT     H167880   3.403   8.994   0.100
22546WAT     H267881   3.402   8.961   0.260
22547WAT      O67882   4.135   0.944   2.628
22547WAT     H167883   4.156   0.950   2.530
22547WAT     H267884   4.115   0.849   2.652
22548WAT      O67885   1.726   0.128   3.140
22548WAT     H167886   1.800   0.128   3.074
22548WAT     H267887   1.703   0.223   3.165
22549WAT      O67888   6.703   6.272   7.470
22549WAT     H167889   6.705   6.252   7.568
22549WAT     H267890   6.619   6.321   7.447
22550WAT      O67891   2.883   0.359   7.733
22550WAT     H167892   2.787   0.330   7.736
22550WAT     H267893   2.905   0.389   7.641
22551WAT      O67894   1.666   5.553   3.167
22551WAT     H167895   1.704   5.599   3.087
22551WAT     H267896   1.724   5.475   3.191
22552WAT      O67897   9.801   2.316   5.952
22552WAT     H167898   9.793   2.385   5.880
22552WAT     H267899   9.710   2.294   5.987
22553WAT      O67900   5.202   5.522   4.457
22553WAT     H167901   5.287   5.531   4.509
22553WAT     H267902   5.211   5.572   4.371
22554WAT      O67903   0.224   4.286   8.596
22554WAT     H167904   0.263   4.313   8.684
22554WAT     H267905   0.265   4.199   8.567
22555WAT      O67906   6.078   6.570   3.487
22555WAT     H167907   6.077   6.659   3.533
22555WAT     H267908   6.142   6.573   3.411
22556WAT      O67909   3.899   8.769   5.441
22556WAT     H167910   3.889   8.848   5.501
22556WAT     H267911   3.885   8.685   5.493
22557WAT      O67912   9.365   6.249   8.880
22557WAT     H167913   9.306   6.182   8.835
22557WAT     H267914   9.355   6.241   8.979
22558WAT      O67915   8.055   1.686   5.246
22558WAT     H167916   8.069   1.595   5.285
22558WAT     H267917   8.143   1.732   5.235
22559WAT      O67918   8.405   5.849   8.386
22559WAT     H167919   8.341   5.775   8.408
22559WAT     H267920   8.372   5.934   8.427
22560WAT      O67921   9.340   7.433   9.827
22560WAT     H167922   9.244   7.458   9.814
22560WAT     H267923   9.398   7.504   9.788
22561WAT      O67924   0.667   9.709   6.399
22561WAT     H167925   0.748   9.651   6.406
22561WAT     H267926   0.689   9.790   6.345
22562WAT      O67927   8.672   8.804   9.569
22562WAT     H167928   8.684   8.709   9.598
22562WAT     H267929   8.615   8.853   9.635
22563WAT      O67930   8.999   7.967   5.284
22563WAT     H167931   9.015   7.874   5.317
22563WAT     H267932   9.065   8.030   5.325
22564WAT      O67933   0.830   9.370   5.096
22564WAT     H167934   0.740   9.346   5.134
22564WAT     H267935   0.900   9.311   5.136
22565WAT      O67936   5.346   6.924   1.997
22565WAT     H167937   5.335   6.867   2.079
22565WAT     H267938   5.441   6.920   1.966
22566WAT      O67939   0.401   7.772   1.880
22566WAT     H167940   0.496   7.782   1.853
22566WAT     H267941   0.371   7.852   1.932
22567WAT      O67942   9.687   5.579   4.172
22567WAT     H167943   9.774   5.547   4.134
22567WAT     H267944   9.682   5.679   4.166
22568WAT      O67945   2.248   1.214   2.684
22568WAT     H167946   2.180   1.144   2.705
22568WAT     H267947   2.228   1.255   2.595
22569WAT      O67948   6.811   5.655   7.084
22569WAT     H167949   6.786   5.690   6.993
22569WAT     H267950   6.903   5.617   7.080
22570WAT      O67951   2.821   7.353   4.543
22570WAT     H167952   2.898   7.316   4.594
22570WAT     H267953   2.765   7.410   4.604
22571WAT      O67954   4.665   6.303   8.883
22571WAT     H167955   4.739   6.329   8.944
22571WAT     H267956   4.611   6.384   8.859
22572WAT      O67957   0.548   0.005   9.316
22572WAT     H167958   0.628   0.064   9.303
22572WAT     H267959   0.529  -0.004   9.414
22573WAT      O67960   4.830   8.400   6.595
22573WAT     H167961   4.895   8.445   6.656
22573WAT     H267962   4.857   8.305   6.580
22574WAT      O67963   6.354   7.013   3.822
22574WAT     H167964   6.386   6.951   3.750
22574WAT     H267965   6.432   7.045   3.876
22575WAT      O67966   1.097   2.460   1.432
22575WAT     H167967   1.075   2.510   1.348
22575WAT     H267968   1.014   2.423   1.471
22576WAT      O67969   6.850   4.311   2.726
22576WAT     H167970   6.928   4.330   2.786
22576WAT     H267971   6.842   4.213   2.711
22577WAT      O67972   7.595   1.614   2.946
22577WAT     H167973   7.538   1.662   3.013
22577WAT     H267974   7.614   1.521   2.978
22578WAT      O67975   7.594   0.209   0.818
22578WAT     H167976   7.614   0.117   0.853
22578WAT     H267977   7.651   0.227   0.738
22579WAT      O67978   6.983   6.580   7.431
22579WAT     H167979   6.944   6.488   7.422
22579WAT     H267980   6.913   6.642   7.466
22580WAT      O67981   1.070   0.156   5.835
22580WAT     H167982   1.032   0.081   5.781
22580WAT     H267983   1.087   0.234   5.774
22581WAT      O67984   9.740   2.532   5.745
22581WAT     H167985   9.805   2.473   5.698
22581WAT     H267986   9.694   2.592   5.679
22582WAT      O67987   4.852   9.595   5.613
22582WAT     H167988   4.848   9.563   5.518
22582WAT     H267989   4.762   9.584   5.655
22583WAT      O67990   5.386   8.886   5.155
22583WAT     H167991   5.287   8.901   5.161
22583WAT     H267992   5.426   8.895   5.246
22584WAT      O67993   1.717   5.167   5.538
22584WAT     H167994   1.814   5.176   5.517
22584WAT     H267995   1.695   5.071   5.553
22585WAT      O67996   9.001   9.818   5.080
22585WAT     H167997   8.957   9.874   5.010
22585WAT     H267998   8.984   9.857   5.171
22586WAT      O67999   3.393   8.349   9.481
22586WAT     H168000   3.351   8.391   9.562
22586WAT     H268001   3.388   8.249   9.490
22587WAT      O68002   0.283   3.474   6.148
22587WAT     H168003   0.183   3.468   6.151
22587WAT     H268004   0.321   3.447   6.236
22588WAT      O68005   8.908   2.113   9.083
22588WAT     H168006   8.970   2.093   9.007
22588WAT     H268007   8.923   2.207   9.115
22589WAT      O68008   7.338   1.538   5.984
22589WAT     H168009   7.394   1.591   6.048
22589WAT     H268010   7.307   1.454   6.028
22590WAT      O68011   6.630   2.587   3.602
22590WAT     H168012   6.692   2.537   3.663
22590WAT     H268013   6.557   2.526   3.572
22591WAT      O68014   3.272   0.325   9.041
22591WAT     H168015   3.369   0.311   9.023
22591WAT     H268016   3.231   0.375   8.965
22592WAT      O68017   6.195   3.704   0.871
22592WAT     H168018   6.228   3.635   0.936
22592WAT     H268019   6.159   3.783   0.922
22593WAT      O68020   5.516   1.480   3.365
22593WAT     H168021   5.599   1.516   3.409
22593WAT     H268022   5.522   1.380   3.360
22594WAT      O68023   5.370   3.740   8.321
22594WAT     H168024   5.363   3.753   8.222
22594WAT     H268025   5.294   3.788   8.366
22595WAT      O68026   4.045   1.586   6.422
22595WAT     H168027   4.053   1.494   6.459
22595WAT     H268028   3.988   1.584   6.340
22596WAT      O68029   7.358   0.789   2.169
22596WAT     H168030   7.299   0.740   2.233
22596WAT     H268031   7.314   0.796   2.080
22597WAT      O68032   5.497   4.532   7.673
22597WAT     H168033   5.513   4.629   7.691
22597WAT     H268034   5.497   4.516   7.574
22598WAT      O68035   3.285   3.348   6.061
22598WAT     H168036   3.283   3.364   5.962
22598WAT     H268037   3.355   3.279   6.082
22599WAT      O68038   5.182   3.731   4.127
22599WAT     H168039   5.115   3.733   4.201
22599WAT     H268040   5.135   3.739   4.039
22600WAT      O68041   5.188   5.247   1.738
22600WAT     H168042   5.117   5.178   1.723
22600WAT     H268043   5.218   5.284   1.650
22601WAT      O68044   3.641   4.435   3.522
22601WAT     H168045   3.704   4.357   3.518
22601WAT     H268046   3.597   4.437   3.612
22602WAT      O68047   3.398   3.099   5.489
22602WAT     H168048   3.447   3.186   5.493
22602WAT     H268049   3.393   3.068   5.394
22603WAT      O68050   6.191   2.478   5.697
22603WAT     H168051   6.108   2.516   5.737
22603WAT     H268052   6.252   2.552   5.669
22604WAT      O68053   3.046   0.800   6.355
22604WAT     H168054   3.059   0.704   6.331
22604WAT     H268055   3.090   0.858   6.286
22605WAT      O68056   3.444   6.722   7.937
22605WAT     H168057   3.433   6.629   7.971
22605WAT     H268058   3.533   6.731   7.893
22606WAT      O68059   4.965   9.757   3.702
22606WAT     H168060   5.031   9.794   3.767
22606WAT     H268061   4.903   9.694   3.748
22607WAT      O68062   8.304   8.416   8.815
22607WAT     H168063   8.273   8.435   8.722
22607WAT     H268064   8.266   8.484   8.878
22608WAT      O68065   6.404   8.384   3.664
22608WAT     H168066   6.481   8.426   3.713
22608WAT     H268067   6.427   8.375   3.567
22609WAT      O68068   2.707   7.493   5.730
22609WAT     H168069   2.614   7.466   5.756
22609WAT     H268070   2.753   7.416   5.686
22610WAT      O68071   4.071   7.506   7.399
22610WAT     H168072   4.109   7.553   7.478
22610WAT     H268073   4.117   7.419   7.385
22611WAT      O68074   2.401   3.213   3.856
22611WAT     H168075   2.365   3.306   3.860
22611WAT     H268076   2.404   3.174   3.948
22612WAT      O68077   8.000   1.567   2.473
22612WAT     H168078   8.046   1.491   2.519
22612WAT     H268079   8.046   1.653   2.494
22613WAT      O68080   9.802   2.460   6.876
22613WAT     H168081   9.732   2.443   6.946
22613WAT     H268082   9.761   2.509   6.799
22614WAT      O68083   7.889   0.012   6.502
22614WAT     H168084   7.839  -0.073   6.517
22614WAT     H268085   7.958  -0.002   6.431
22615WAT      O68086   0.059   8.049   5.125
22615WAT     H168087  -0.005   8.020   5.054
22615WAT     H268088   0.107   8.131   5.096
22616WAT      O68089   9.180   2.030   4.360
22616WAT     H168090   9.193   2.061   4.454
22616WAT     H268091   9.189   2.109   4.298
22617WAT      O68092   5.457   0.357   6.629
22617WAT     H168093   5.515   0.281   6.658
22617WAT     H268094   5.377   0.363   6.689
22618WAT      O68095   7.370   4.291   0.086
22618WAT     H168096   7.358   4.377   0.137
22618WAT     H268097   7.422   4.226   0.141
22619WAT      O68098   0.264   2.300   2.078
22619WAT     H168099   0.197   2.302   2.004
22619WAT     H268100   0.243   2.223   2.139
22620WAT      O68101   0.777   0.022   2.727
22620WAT     H168102   0.876   0.035   2.727
22620WAT     H268103   0.732   0.104   2.762
22621WAT      O68104   3.593   5.835   5.403
22621WAT     H168105   3.531   5.761   5.429
22621WAT     H268106   3.544   5.901   5.345
22622WAT      O68107   4.806   1.552   2.202
22622WAT     H168108   4.862   1.600   2.135
22622WAT     H268109   4.858   1.538   2.285
22623WAT      O68110   2.365   4.060   7.243
22623WAT     H168111   2.314   4.021   7.320
22623WAT     H268112   2.352   4.002   7.163
22624WAT      O68113   5.646   2.317   1.754
22624WAT     H168114   5.662   2.415   1.767
22624WAT     H268115   5.565   2.289   1.804
22625WAT      O68116   5.102   7.801   6.665
22625WAT     H168117   5.126   7.759   6.578
22625WAT     H268118   5.012   7.768   6.694
22626WAT      O68119   7.879   1.368   4.823
22626WAT     H168120   7.784   1.380   4.853
22626WAT     H268121   7.940   1.383   4.901
22627WAT      O68122   2.705   5.294   1.805
22627WAT     H168123   2.794   5.252   1.817
22627WAT     H268124   2.635   5.239   1.850
22628WAT      O68125   6.647   4.292   3.531
22628WAT     H168126   6.746   4.294   3.549
22628WAT     H268127   6.632   4.282   3.432
22629WAT      O68128   0.410   9.715   0.495
22629WAT     H168129   0.430   9.809   0.465
22629WAT     H268130   0.426   9.652   0.419
22630WAT      O68131   8.158   2.096   3.202
22630WAT     H168132   8.183   2.094   3.105
22630WAT     H268133   8.237   2.125   3.256
22631WAT      O68134   7.984   9.731   1.930
22631WAT     H168135   8.005   9.783   1.847
22631WAT     H268136   7.933   9.789   1.994
22632WAT      O68137   0.541   0.952   3.861
22632WAT     H168138   0.627   0.902   3.876
22632WAT     H268139   0.466   0.901   3.903
22633WAT      O68140   8.670   0.827   3.214
22633WAT     H168141   8.677   0.735   3.252
22633WAT     H268142   8.722   0.833   3.129
22634WAT      O68143   0.234   5.722   9.808
22634WAT     H168144   0.176   5.781   9.864
22634WAT     H268145   0.188   5.634   9.795
22635WAT      O68146   4.579   7.371   1.462
22635WAT     H168147   4.628   7.407   1.383
22635WAT     H268148   4.613   7.414   1.545
22636WAT      O68149   9.407   3.514   6.840
22636WAT     H168150   9.323   3.560   6.813
22636WAT     H268151   9.418   3.521   6.939
22637WAT      O68152   2.780   4.544   3.456
22637WAT     H168153   2.818   4.584   3.373
22637WAT     H268154   2.788   4.445   3.451
22638WAT      O68155   3.629   0.781   7.678
22638WAT     H168156   3.593   0.831   7.599
22638WAT     H268157   3.640   0.843   7.755
22639WAT      O68158   0.449   2.149   1.926
22639WAT     H168159   0.373   2.202   1.963
22639WAT     H268160   0.419   2.055   1.908
22640WAT      O68161   0.901   9.150   1.902
22640WAT     H168162   0.803   9.146   1.882
22640WAT     H268163   0.915   9.154   2.001
22641WAT      O68164   3.163   0.961   3.819
22641WAT     H168165   3.225   1.039   3.818
22641WAT     H268166   3.100   0.967   3.742
22642WAT      O68167   7.793   7.205   7.442
22642WAT     H168168   7.697   7.225   7.458
22642WAT     H268169   7.802   7.119   7.392
22643WAT      O68170   6.182   9.522   9.589
22643WAT     H168171   6.278   9.494   9.582
22643WAT     H268172   6.125   9.460   9.535
22644WAT      O68173   9.854   3.541   1.174
22644WAT     H168174   9.909   3.541   1.258
22644WAT     H268175   9.881   3.618   1.117
22645WAT      O68176   8.477   0.223   1.993
22645WAT     H168177   8.559   0.280   1.988
22645WAT     H268178   8.431   0.237   2.080
22646WAT      O68179   6.887   8.403   0.802
22646WAT     H168180   6.849   8.410   0.710
22646WAT     H268181   6.826   8.349   0.860
22647WAT      O68182   3.340   0.689   0.797
22647WAT     H168183   3.340   0.782   0.832
22647WAT     H268184   3.289   0.685   0.711
22648WAT      O68185   7.235   9.470   5.314
22648WAT     H168186   7.316   9.430   5.356
22648WAT     H268187   7.217   9.423   5.227
22649WAT      O68188   9.571   0.393   9.694
22649WAT     H168189   9.641   0.418   9.627
22649WAT     H268190   9.556   0.295   9.692
22650WAT      O68191   3.393   3.301   6.911
22650WAT     H168192   3.340   3.255   6.982
22650WAT     H268193   3.484   3.322   6.946
22651WAT      O68194   7.854   3.442   9.124
22651WAT     H168195   7.933   3.503   9.120
22651WAT     H268196   7.883   3.348   9.109
22652WAT      O68197   9.739   6.474   6.401
22652WAT     H168198   9.800   6.454   6.478
22652WAT     H268199   9.785   6.534   6.336
22653WAT      O68200   1.234   2.687   5.499
22653WAT     H168201   1.240   2.588   5.490
22653WAT     H268202   1.161   2.721   5.440
22654WAT      O68203   0.026   2.455   4.989
22654WAT     H168204   0.012   2.552   5.010
22654WAT     H268205  -0.051   2.402   5.024
22655WAT      O68206   1.096   8.495   1.285
22655WAT     H168207   1.099   8.395   1.293
22655WAT     H268208   1.015   8.522   1.233
22656WAT      O68209   7.957   7.916   4.936
22656WAT     H168210   7.918   7.950   5.022
22656WAT     H268211   7.913   7.962   4.859
22657WAT      O68212   2.471   1.076   9.710
22657WAT     H168213   2.386   1.060   9.760
22657WAT     H268214   2.511   1.163   9.740
22658WAT      O68215   2.785   5.969   1.425
22658WAT     H168216   2.704   5.975   1.483
22658WAT     H268217   2.825   6.060   1.413
22659WAT      O68218   8.778   5.443   2.687
22659WAT     H168219   8.777   5.412   2.782
22659WAT     H268220   8.706   5.510   2.672
22660WAT      O68221   3.597   8.678   5.736
22660WAT     H168222   3.503   8.675   5.704
22660WAT     H268223   3.657   8.640   5.666
22661WAT      O68224   6.675   7.656   3.236
22661WAT     H168225   6.664   7.755   3.226
22661WAT     H268226   6.615   7.623   3.310
22662WAT      O68227   7.608   5.041   2.782
22662WAT     H168228   7.538   5.099   2.823
22662WAT     H268229   7.575   5.004   2.696
22663WAT      O68230   4.776   6.369   2.465
22663WAT     H168231   4.755   6.271   2.475
22663WAT     H268232   4.702   6.422   2.507
22664WAT      O68233   7.984   3.409   1.913
22664WAT     H168234   7.934   3.484   1.871
22664WAT     H268235   8.038   3.443   1.990
22665WAT      O68236   4.846   9.701   8.561
22665WAT     H168237   4.770   9.696   8.625
22665WAT     H268238   4.870   9.608   8.531
22666WAT      O68239   4.287   7.452   1.175
22666WAT     H168240   4.294   7.515   1.252
22666WAT     H268241   4.235   7.371   1.202
22667WAT      O68242   1.639   3.228   2.340
22667WAT     H168243   1.635   3.240   2.241
22667WAT     H268244   1.717   3.171   2.364
22668WAT      O68245   1.399   8.721   2.507
22668WAT     H168246   1.372   8.690   2.598
22668WAT     H268247   1.481   8.671   2.478
22669WAT      O68248   4.046   0.009   8.863
22669WAT     H168249   4.144   0.028   8.860
22669WAT     H268250   3.999   0.064   8.794
22670WAT      O68251   0.553   9.587   6.643
22670WAT     H168252   0.598   9.653   6.582
22670WAT     H268253   0.459   9.615   6.659
22671WAT      O68254   0.177   1.200   2.798
22671WAT     H168255   0.265   1.154   2.795
22671WAT     H268256   0.132   1.191   2.710
22672WAT      O68257   0.003   5.896   1.175
22672WAT     H168258  -0.070   5.906   1.243
22672WAT     H268259   0.043   5.986   1.156
22673WAT      O68260   3.300   3.425   0.748
22673WAT     H168261   3.226   3.477   0.791
22673WAT     H268262   3.266   3.384   0.663
22674WAT      O68263   6.505   1.295   4.892
22674WAT     H168264   6.577   1.306   4.960
22674WAT     H268265   6.448   1.215   4.915
22675WAT      O68266   1.822   5.615   2.637
22675WAT     H168267   1.887   5.690   2.638
22675WAT     H268268   1.813   5.580   2.544
22676WAT      O68269   0.862   7.695   9.097
22676WAT     H168270   0.903   7.626   9.156
22676WAT     H268271   0.930   7.728   9.031
22677WAT      O68272   6.498   7.798   0.328
22677WAT     H168273   6.412   7.818   0.375
22677WAT     H268274   6.531   7.708   0.356
22678WAT      O68275   9.868   6.338   2.790
22678WAT     H168276   9.829   6.423   2.825
22678WAT     H268277   9.912   6.355   2.702
22679WAT      O68278   2.855   7.966   3.714
22679WAT     H168279   2.836   8.058   3.678
22679WAT     H268280   2.922   7.921   3.655
22680WAT      O68281   0.584   7.115   3.306
22680WAT     H168282   0.572   7.123   3.207
22680WAT     H268283   0.657   7.176   3.336
22681WAT      O68284   7.488   4.965   7.821
22681WAT     H168285   7.552   5.005   7.886
22681WAT     H268286   7.537   4.905   7.758
22682WAT      O68287   2.614   8.576   6.597
22682WAT     H168288   2.539   8.611   6.653
22682WAT     H268289   2.667   8.653   6.560
22683WAT      O68290   3.548   9.424   1.553
22683WAT     H168291   3.572   9.349   1.615
22683WAT     H268292   3.617   9.496   1.560
22684WAT      O68293   6.287   6.423   5.594
22684WAT     H168294   6.215   6.462   5.537
22684WAT     H268295   6.290   6.324   5.581
22685WAT      O68296   9.779   6.457   9.511
22685WAT     H168297   9.808   6.520   9.583
22685WAT     H268298   9.730   6.509   9.440
22686WAT      O68299   3.196   4.848   5.000
22686WAT     H168300   3.098   4.829   5.005
22686WAT     H268301   3.247   4.766   5.026
22687WAT      O68302   9.477   6.391   9.381
22687WAT     H168303   9.460   6.327   9.306
22687WAT     H268304   9.540   6.348   9.447
22688WAT      O68305   9.573   4.829   4.158
22688WAT     H168306   9.587   4.903   4.223
22688WAT     H268307   9.533   4.750   4.205
22689WAT      O68308   4.210   2.591   0.049
22689WAT     H168309   4.271   2.531   0.102
22689WAT     H268310   4.265   2.644  -0.017
22690WAT      O68311   2.805   9.015   9.452
22690WAT     H168312   2.842   8.933   9.408
22690WAT     H268313   2.815   9.093   9.390
22691WAT      O68314   7.520   9.794   6.572
22691WAT     H168315   7.584   9.866   6.596
22691WAT     H268316   7.571   9.712   6.546
22692WAT      O68317   8.287   4.348   0.756
22692WAT     H168318   8.202   4.298   0.740
22692WAT     H268319   8.316   4.391   0.671
22693WAT      O68320   7.393   5.558   3.131
22693WAT     H168321   7.392   5.615   3.213
22693WAT     H268322   7.443   5.605   3.058
22694WAT      O68323   9.175   4.246   1.018
22694WAT     H168324   9.216   4.268   0.929
22694WAT     H268325   9.118   4.323   1.047
22695WAT      O68326   1.078   4.207   9.682
22695WAT     H168327   1.010   4.273   9.713
22695WAT     H268328   1.043   4.160   9.600
22696WAT      O68329   6.184   8.167   2.041
22696WAT     H168330   6.265   8.158   1.983
22696WAT     H268331   6.165   8.080   2.086
22697WAT      O68332   4.465   6.667   6.642
22697WAT     H168333   4.442   6.571   6.629
22697WAT     H268334   4.507   6.679   6.732
22698WAT      O68335   8.101   5.984   7.641
22698WAT     H168336   8.039   5.941   7.576
22698WAT     H268337   8.186   6.009   7.594
22699WAT      O68338   1.329   3.663   4.142
22699WAT     H168339   1.373   3.739   4.187
22699WAT     H268340   1.235   3.654   4.175
22700WAT      O68341   4.890   6.054   7.775
22700WAT     H168342   4.873   6.150   7.798
22700WAT     H268343   4.979   6.046   7.731
22701WAT      O68344   7.052   1.089   1.434
22701WAT     H168345   7.018   1.178   1.462
22701WAT     H268346   7.129   1.101   1.371
22702WAT      O68347   0.423   9.304   9.897
22702WAT     H168348   0.501   9.274   9.842
22702WAT     H268349   0.394   9.395   9.866
22703WAT      O68350   6.530   4.983   2.224
22703WAT     H168351   6.552   4.979   2.127
22703WAT     H268352   6.435   4.955   2.238
22704WAT      O68353   9.039   7.515   9.797
22704WAT     H168354   9.032   7.434   9.739
22704WAT     H268355   8.984   7.589   9.758
22705WAT      O68356   8.566   3.446   9.726
22705WAT     H168357   8.656   3.488   9.714
22705WAT     H268358   8.562   3.360   9.675
22706WAT      O68359   4.485   4.262   4.382
22706WAT     H168360   4.480   4.296   4.288
22706WAT     H268361   4.552   4.316   4.433
22707WAT      O68362   1.370   6.406   6.136
22707WAT     H168363   1.351   6.388   6.233
22707WAT     H268364   1.319   6.342   6.079
22708WAT      O68365   0.498   2.694   9.080
22708WAT     H168366   0.448   2.608   9.076
22708WAT     H268367   0.543   2.703   9.169
22709WAT      O68368   4.962   1.236   4.575
22709WAT     H168369   4.905   1.257   4.495
22709WAT     H268370   4.907   1.184   4.641
22710WAT      O68371   9.723   0.058   4.874
22710WAT     H168372   9.821   0.061   4.893
22710WAT     H268373   9.691   0.149   4.848
22711WAT      O68374   2.746   0.832   2.936
22711WAT     H168375   2.655   0.809   2.900
22711WAT     H268376   2.764   0.929   2.922
22712WAT      O68377   2.698   4.213   0.865
22712WAT     H168378   2.649   4.175   0.787
22712WAT     H268379   2.635   4.225   0.942
22713WAT      O68380   5.785   6.357   2.205
22713WAT     H168381   5.741   6.444   2.181
22713WAT     H268382   5.733   6.281   2.167
22714WAT      O68383   8.807   9.729   6.383
22714WAT     H168384   8.828   9.823   6.355
22714WAT     H268385   8.866   9.703   6.459
22715WAT      O68386   2.501   3.653   9.392
22715WAT     H168387   2.416   3.606   9.368
22715WAT     H268388   2.548   3.602   9.464
22716WAT      O68389   4.311   1.110   3.915
22716WAT     H168390   4.382   1.134   3.849
22716WAT     H268391   4.353   1.060   3.991
22717WAT      O68392   1.195   0.854   1.289
22717WAT     H168393   1.260   0.837   1.215
22717WAT     H268394   1.104   0.822   1.261
22718WAT      O68395   5.023   4.731   8.938
22718WAT     H168396   4.946   4.765   8.884
22718WAT     H268397   5.049   4.641   8.904
22719WAT      O68398   1.850   5.608   7.421
22719WAT     H168399   1.874   5.705   7.423
22719WAT     H268400   1.879   5.568   7.334
22720WAT      O68401   5.712   9.251   3.463
22720WAT     H168402   5.648   9.328   3.469
22720WAT     H268403   5.694   9.187   3.537
22721WAT      O68404   0.967   2.671   3.306
22721WAT     H168405   1.026   2.638   3.232
22721WAT     H268406   1.023   2.688   3.387
22722WAT      O68407   9.030   5.414   8.017
22722WAT     H168408   9.084   5.338   8.053
22722WAT     H268409   9.041   5.494   8.077
22723WAT      O68410   1.970   8.206   8.347
22723WAT     H168411   1.973   8.166   8.255
22723WAT     H268412   1.891   8.168   8.396
22724WAT      O68413   4.078   6.683   9.012
22724WAT     H168414   4.070   6.780   9.033
22724WAT     H268415   4.062   6.629   9.095
22725WAT      O68416   6.565   3.443   8.988
22725WAT     H168417   6.508   3.525   8.996
22725WAT     H268418   6.611   3.427   9.075
22726WAT      O68419   9.207   6.248   0.042
22726WAT     H168420   9.260   6.200   0.112
22726WAT     H268421   9.214   6.199  -0.045
22727WAT      O68422   3.291   9.292   2.125
22727WAT     H168423   3.280   9.368   2.062
22727WAT     H268424   3.216   9.293   2.192
22728WAT      O68425   4.234   4.037   7.063
22728WAT     H168426   4.144   4.069   7.031
22728WAT     H268427   4.303   4.107   7.043
22729WAT      O68428   4.153   9.062   2.941
22729WAT     H168429   4.242   9.042   2.982
22729WAT     H268430   4.081   9.035   3.004
22730WAT      O68431   6.159   6.459   7.712
22730WAT     H168432   6.150   6.375   7.766
22730WAT     H268433   6.219   6.523   7.759
22731WAT      O68434   9.040   5.219   3.237
22731WAT     H168435   9.114   5.159   3.268
22731WAT     H268436   9.062   5.314   3.260
22732WAT      O68437   5.119   6.635   5.089
22732WAT     H168438   5.105   6.547   5.044
22732WAT     H268439   5.041   6.655   5.149
22733WAT      O68440   3.074   3.424   8.387
22733WAT     H168441   3.139   3.372   8.332
22733WAT     H268442   3.103   3.423   8.483
22734WAT      O68443   0.096   3.247   9.650
22734WAT     H168444   0.186   3.286   9.634
22734WAT     H268445   0.078   3.245   9.748
22735WAT      O68446   4.764   9.118   3.787
22735WAT     H168447   4.853   9.127   3.831
22735WAT     H268448   4.776   9.088   3.692
22736WAT      O68449   1.403   8.109   5.722
22736WAT     H168450   1.311   8.146   5.730
22736WAT     H268451   1.420   8.081   5.627
22737WAT      O68452   1.017   5.523   6.943
22737WAT     H168453   0.944   5.455   6.944
22737WAT     H268454   1.103   5.479   6.917
22738WAT      O68455   2.338   4.362   0.975
22738WAT     H168456   2.321   4.342   0.879
22738WAT     H268457   2.434   4.384   0.988
22739WAT      O68458   8.302   7.585   8.987
22739WAT     H168459   8.202   7.587   8.999
22739WAT     H268460   8.326   7.636   8.904
22740WAT      O68461   7.175   1.852   3.191
22740WAT     H168462   7.109   1.870   3.118
22740WAT     H268463   7.154   1.766   3.236
22741WAT      O68464   3.905   5.328   1.256
22741WAT     H168465   3.957   5.305   1.174
22741WAT     H268466   3.867   5.245   1.297
22742WAT      O68467   3.819   2.729   0.631
22742WAT     H168468   3.858   2.820   0.622
22742WAT     H268469   3.804   2.709   0.728
22743WAT      O68470   1.679   4.692   8.854
22743WAT     H168471   1.582   4.682   8.834
22743WAT     H268472   1.721   4.601   8.859
22744WAT      O68473   1.385   8.816   4.504
22744WAT     H168474   1.430   8.884   4.562
22744WAT     H268475   1.287   8.820   4.518
22745WAT      O68476   4.843   0.211   2.920
22745WAT     H168477   4.813   0.124   2.960
22745WAT     H268478   4.851   0.279   2.993
22746WAT      O68479   3.801   1.615   3.853
22746WAT     H168480   3.764   1.706   3.873
22746WAT     H268481   3.838   1.614   3.761
22747WAT      O68482   4.402   3.410   7.988
22747WAT     H168483   4.357   3.481   8.042
22747WAT     H268484   4.443   3.450   7.906
22748WAT      O68485   8.552   8.823   3.431
22748WAT     H168486   8.580   8.810   3.336
22748WAT     H268487   8.509   8.740   3.465
22749WAT      O68488   9.236   7.808   3.123
22749WAT     H168489   9.168   7.841   3.188
22749WAT     H268490   9.269   7.719   3.151
22750WAT      O68491   9.617   7.345   1.312
22750WAT     H168492   9.709   7.317   1.282
22750WAT     H268493   9.567   7.265   1.345
22751WAT      O68494   5.534   5.270   7.226
22751WAT     H168495   5.458   5.288   7.288
22751WAT     H268496   5.511   5.304   7.135
22752WAT      O68497   0.668   6.443   2.774
22752WAT     H168498   0.717   6.362   2.744
22752WAT     H268499   0.698   6.469   2.866
22753WAT      O68500   9.247   9.736   8.124
22753WAT     H168501   9.168   9.747   8.184
22753WAT     H268502   9.321   9.796   8.155
22754WAT      O68503   8.975   5.993   6.565
22754WAT     H168504   9.002   6.022   6.657
22754WAT     H268505   8.957   5.895   6.565
22755WAT      O68506   6.156   4.959   8.293
22755WAT     H168507   6.227   4.915   8.348
22755WAT     H268508   6.121   5.039   8.341
22756WAT      O68509   0.364   4.626   4.354
22756WAT     H168510   0.400   4.694   4.418
22756WAT     H268511   0.264   4.625   4.359
22757WAT      O68512   4.245   5.055   8.462
22757WAT     H168513   4.276   5.085   8.372
22757WAT     H268514   4.158   5.099   8.484
22758WAT      O68515   9.780   8.660   5.181
22758WAT     H168516   9.690   8.696   5.209
22758WAT     H268517   9.836   8.735   5.146
22759WAT      O68518   9.374   6.932   8.961
22759WAT     H168519   9.470   6.937   8.932
22759WAT     H268520   9.360   6.991   9.040
22760WAT      O68521   0.854   7.268   5.746
22760WAT     H168522   0.810   7.301   5.830
22760WAT     H268523   0.953   7.279   5.754
22761WAT      O68524   0.718   4.852   2.697
22761WAT     H168525   0.635   4.816   2.738
22761WAT     H268526   0.744   4.794   2.619
22762WAT      O68527   1.452   5.967   3.899
22762WAT     H168528   1.462   6.058   3.940
22762WAT     H268529   1.534   5.946   3.845
22763WAT      O68530   7.984   1.275   0.477
22763WAT     H168531   7.998   1.195   0.419
22763WAT     H268532   8.072   1.314   0.502
22764WAT      O68533   6.321   6.165   4.764
22764WAT     H168534   6.235   6.211   4.786
22764WAT     H268535   6.395   6.233   4.757
22765WAT      O68536   5.543   1.743   3.032
22765WAT     H168537   5.536   1.713   2.937
22765WAT     H268538   5.462   1.797   3.055
22766WAT      O68539   0.731   0.950   4.318
22766WAT     H168540   0.775   0.939   4.229
22766WAT     H268541   0.774   1.025   4.368
22767WAT      O68542   2.329   6.579   4.862
22767WAT     H168543   2.265   6.503   4.863
22767WAT     H268544   2.334   6.620   4.953
22768WAT      O68545   0.724   6.968   4.457
22768WAT     H168546   0.763   6.959   4.365
22768WAT     H268547   0.795   6.956   4.525
22769WAT      O68548   2.567   6.817   6.961
22769WAT     H168549   2.666   6.822   6.951
22769WAT     H268550   2.523   6.875   6.893
22770WAT      O68551   4.601   2.641   1.807
22770WAT     H168552   4.521   2.583   1.797
22770WAT     H268553   4.681   2.595   1.770
22771WAT      O68554   6.822   1.215   7.494
22771WAT     H168555   6.768   1.135   7.520
22771WAT     H268556   6.858   1.258   7.577
22772WAT      O68557   0.623   7.454   9.029
22772WAT     H168558   0.696   7.388   9.014
22772WAT     H268559   0.535   7.407   9.033
22773WAT      O68560   7.558   3.982   7.781
22773WAT     H168561   7.525   3.923   7.855
22773WAT     H268562   7.480   4.014   7.727
22774WAT      O68563   7.505   4.151   1.734
22774WAT     H168564   7.427   4.101   1.696
22774WAT     H268565   7.561   4.187   1.659
22775WAT      O68566   6.485   7.511   8.581
22775WAT     H168567   6.519   7.570   8.654
22775WAT     H268568   6.483   7.416   8.612
22776WAT      O68569   6.472   4.140   1.002
22776WAT     H168570   6.528   4.059   0.989
22776WAT     H268571   6.397   4.139   0.935
22777WAT      O68572   3.276   8.940   9.014
22777WAT     H168573   3.282   8.951   8.915
22777WAT     H268574   3.288   8.844   9.039
22778WAT      O68575   2.646   0.955   8.005
22778WAT     H168576   2.676   0.913   8.091
22778WAT     H268577   2.559   1.002   8.020
22779WAT      O68578   1.303   9.196   3.400
22779WAT     H168579   1.282   9.283   3.444
22779WAT     H268580   1.258   9.191   3.311
22780WAT      O68581   2.910   0.747   0.600
22780WAT     H168582   2.934   0.830   0.549
22780WAT     H268583   2.991   0.692   0.615
22781WAT      O68584   0.925   7.818   3.214
22781WAT     H168585   0.895   7.749   3.148
22781WAT     H268586   1.025   7.818   3.218
22782WAT      O68587   5.922   6.367   8.901
22782WAT     H168588   5.894   6.295   8.963
22782WAT     H268589   5.919   6.455   8.948
22783WAT      O68590   3.042   0.584   7.230
22783WAT     H168591   3.066   0.676   7.261
22783WAT     H268592   2.993   0.590   7.143
22784WAT      O68593   4.124   0.961   3.700
22784WAT     H168594   4.148   1.005   3.613
22784WAT     H268595   4.189   0.990   3.770
22785WAT      O68596   7.524   2.421   1.188
22785WAT     H168597   7.481   2.484   1.253
22785WAT     H268598   7.464   2.408   1.110
22786WAT      O68599   5.251   5.027   4.339
22786WAT     H168600   5.227   5.124   4.345
22786WAT     H268601   5.245   4.985   4.430
22787WAT      O68602   5.635   8.192   9.156
22787WAT     H168603   5.676   8.104   9.179
22787WAT     H268604   5.635   8.250   9.238
22788WAT      O68605   6.809   2.149   7.509
22788WAT     H168606   6.783   2.116   7.600
22788WAT     H268607   6.809   2.249   7.508
22789WAT      O68608   9.556   3.483   7.112
22789WAT     H168609   9.644   3.435   7.109
22789WAT     H268610   9.484   3.419   7.138
22790WAT      O68611   9.794   0.008   5.623
22790WAT     H168612   9.826   0.098   5.652
22790WAT     H268613   9.838  -0.018   5.537
22791WAT      O68614   0.765   9.842   4.800
22791WAT     H168615   0.690   9.834   4.736
22791WAT     H268616   0.760   9.767   4.867
22792WAT      O68617   1.371   8.896   7.286
22792WAT     H168618   1.341   8.803   7.306
22792WAT     H268619   1.426   8.897   7.203
22793WAT      O68620   2.829   2.450   7.161
22793WAT     H168621   2.813   2.484   7.254
22793WAT     H268622   2.755   2.480   7.101
22794WAT      O68623   9.048   6.097   8.229
22794WAT     H168624   9.086   6.024   8.285
22794WAT     H268625   9.091   6.096   8.138
22795WAT      O68626   5.388   2.354   8.711
22795WAT     H168627   5.477   2.393   8.688
22795WAT     H268628   5.322   2.427   8.728
22796WAT      O68629   4.295   9.757   7.009
22796WAT     H168630   4.278   9.855   7.005
22796WAT     H268631   4.253   9.712   6.930
22797WAT      O68632   9.333   7.109   7.975
22797WAT     H168633   9.246   7.087   8.020
22797WAT     H268634   9.395   7.031   7.983
22798WAT      O68635   2.700   7.153   5.017
22798WAT     H168636   2.722   7.226   5.082
22798WAT     H268637   2.630   7.095   5.056
22799WAT      O68638   2.404   6.321   9.100
22799WAT     H168639   2.367   6.229   9.084
22799WAT     H268640   2.407   6.339   9.198
22800WAT      O68641   0.870   0.920   8.788
22800WAT     H168642   0.848   0.822   8.786
22800WAT     H268643   0.787   0.972   8.811
22801WAT      O68644   2.020   8.592   1.062
22801WAT     H168645   1.975   8.530   0.998
22801WAT     H268646   2.060   8.539   1.137
22802WAT      O68647   5.682   4.742   7.982
22802WAT     H168648   5.723   4.832   7.967
22802WAT     H268649   5.720   4.702   8.065
22803WAT      O68650   0.459   9.602   6.241
22803WAT     H168651   0.380   9.663   6.251
22803WAT     H268652   0.530   9.629   6.307
22804WAT      O68653   0.911   2.979   6.374
22804WAT     H168654   1.011   2.977   6.370
22804WAT     H268655   0.877   2.904   6.431
22805WAT      O68656   5.506   1.484   3.088
22805WAT     H168657   5.498   1.485   3.188
22805WAT     H268658   5.547   1.569   3.056
22806WAT      O68659   2.780   8.902   3.247
22806WAT     H168660   2.682   8.883   3.253
22806WAT     H268661   2.793   8.999   3.226
22807WAT      O68662   7.764   6.975   8.115
22807WAT     H168663   7.816   6.895   8.085
22807WAT     H268664   7.723   7.020   8.035
22808WAT      O68665   6.986   2.565   6.486
22808WAT     H168666   6.916   2.502   6.453
22808WAT     H268667   7.076   2.528   6.463
22809WAT      O68668   0.270   7.531   2.789
22809WAT     H168669   0.302   7.617   2.827
22809WAT     H268670   0.194   7.548   2.726
22810WAT      O68671   8.212   7.900   3.234
22810WAT     H168672   8.160   7.978   3.199
22810WAT     H268673   8.149   7.827   3.262
22811WAT      O68674   2.485   2.265   9.802
22811WAT     H168675   2.569   2.211   9.798
22811WAT     H268676   2.433   2.239   9.883
22812WAT      O68677   7.138   4.231   3.888
22812WAT     H168678   7.072   4.272   3.825
22812WAT     H268679   7.153   4.292   3.966
22813WAT      O68680   5.831   8.828   8.813
22813WAT     H168681   5.767   8.883   8.867
22813WAT     H268682   5.799   8.825   8.718
22814WAT      O68683   9.561   4.053   4.504
22814WAT     H168684   9.617   4.003   4.570
22814WAT     H268685   9.496   4.112   4.553
22815WAT      O68686   7.676   4.515   5.180
22815WAT     H168687   7.740   4.505   5.104
22815WAT     H268688   7.583   4.513   5.146
22816WAT      O68689   7.930   9.447   0.273
22816WAT     H168690   8.026   9.437   0.247
22816WAT     H268691   7.880   9.363   0.250
22817WAT      O68692   7.666   2.004   1.749
22817WAT     H168693   7.693   1.908   1.748
22817WAT     H268694   7.589   2.018   1.687
22818WAT      O68695   0.004   7.192   5.948
22818WAT     H168696  -0.061   7.194   6.024
22818WAT     H268697   0.077   7.258   5.965
22819WAT      O68698   9.665   6.543   0.483
22819WAT     H168699   9.578   6.542   0.434
22819WAT     H268700   9.700   6.637   0.486
22820WAT      O68701   6.007   2.137   8.026
22820WAT     H168702   5.993   2.191   7.943
22820WAT     H268703   5.920   2.124   8.074
22821WAT      O68704   1.013   8.995   8.662
22821WAT     H168705   0.917   9.005   8.688
22821WAT     H268706   1.062   8.945   8.734
22822WAT      O68707   2.477   1.609   8.372
22822WAT     H168708   2.398   1.597   8.312
22822WAT     H268709   2.540   1.674   8.330
22823WAT      O68710   8.321   8.694   9.823
22823WAT     H168711   8.301   8.625   9.753
22823WAT     H268712   8.413   8.678   9.860
22824WAT      O68713   3.689   3.831   3.370
22824WAT     H168714   3.735   3.901   3.315
22824WAT     H268715   3.610   3.795   3.319
22825WAT      O68716   6.350   7.789   9.597
22825WAT     H168717   6.275   7.826   9.543
22825WAT     H268718   6.326   7.792   9.694
22826WAT      O68719   0.743   7.142   3.668
22826WAT     H168720   0.695   7.056   3.684
22826WAT     H268721   0.727   7.172   3.574
22827WAT      O68722   1.384   9.165   5.150
22827WAT     H168723   1.480   9.183   5.170
22827WAT     H268724   1.375   9.128   5.057
22828WAT      O68725   9.502   6.047   9.497
22828WAT     H168726   9.553   6.012   9.419
22828WAT     H268727   9.536   6.137   9.522
22829WAT      O68728   8.503   0.679   1.341
22829WAT     H168729   8.420   0.626   1.357
22829WAT     H268730   8.554   0.638   1.265
22830WAT      O68731   3.314   1.054   4.922
22830WAT     H168732   3.331   1.000   4.839
22830WAT     H268733   3.305   0.992   5.000
22831WAT      O68734   0.906   2.923   7.575
22831WAT     H168735   0.974   2.936   7.647
22831WAT     H268736   0.921   2.835   7.531
22832WAT      O68737   3.099   6.697   2.985
22832WAT     H168738   3.093   6.616   3.042
22832WAT     H268739   3.119   6.671   2.891
22833WAT      O68740   3.300   0.209   2.286
22833WAT     H168741   3.224   0.214   2.352
22833WAT     H268742   3.266   0.169   2.201
22834WAT      O68743   9.461   6.877   0.518
22834WAT     H168744   9.447   6.960   0.572
22834WAT     H268745   9.472   6.902   0.421
22835WAT      O68746   1.206   9.548   1.235
22835WAT     H168747   1.129   9.575   1.292
22835WAT     H268748   1.255   9.472   1.278
22836WAT      O68749   2.878   1.408   7.517
22836WAT     H168750   2.870   1.488   7.458
22836WAT     H268751   2.952   1.421   7.582
22837WAT      O68752   7.259   3.127   5.441
22837WAT     H168753   7.286   3.171   5.527
22837WAT     H268754   7.248   3.197   5.370
22838WAT      O68755   6.842   6.924   4.405
22838WAT     H168756   6.782   6.915   4.484
22838WAT     H268757   6.801   6.986   4.338
22839WAT      O68758   0.900   6.477   2.524
22839WAT     H168759   0.942   6.531   2.451
22839WAT     H268760   0.920   6.519   2.612
22840WAT      O68761   7.514   2.246   1.482
22840WAT     H168762   7.509   2.204   1.391
22840WAT     H268763   7.603   2.289   1.494
22841WAT      O68764   2.556   2.806   1.700
22841WAT     H168765   2.486   2.853   1.647
22841WAT     H268766   2.549   2.707   1.686
22842WAT      O68767   0.608   3.697   0.586
22842WAT     H168768   0.512   3.715   0.562
22842WAT     H268769   0.613   3.669   0.682
22843WAT      O68770   3.746   5.875   4.304
22843WAT     H168771   3.662   5.821   4.301
22843WAT     H268772   3.772   5.901   4.212
22844WAT      O68773   9.409   3.206   7.273
22844WAT     H168774   9.496   3.175   7.310
22844WAT     H268775   9.343   3.216   7.348
22845WAT      O68776   8.864   0.483   8.054
22845WAT     H168777   8.871   0.508   7.958
22845WAT     H268778   8.941   0.423   8.078
22846WAT      O68779   5.045   6.561   8.994
22846WAT     H168780   5.028   6.547   8.896
22846WAT     H268781   5.130   6.613   9.005
22847WAT      O68782   6.197   7.774   2.802
22847WAT     H168783   6.266   7.845   2.786
22847WAT     H268784   6.172   7.732   2.714
22848WAT      O68785   8.265   2.274   9.644
22848WAT     H168786   8.237   2.189   9.599
22848WAT     H268787   8.341   2.315   9.593
22849WAT      O68788   9.111   6.495   8.583
22849WAT     H168789   9.051   6.417   8.569
22849WAT     H268790   9.070   6.558   8.649
22850WAT      O68791   3.182   7.103   8.000
22850WAT     H168792   3.124   7.093   7.919
22850WAT     H268793   3.244   7.181   7.986
22851WAT      O68794   6.629   7.881   5.332
22851WAT     H168795   6.575   7.885   5.247
22851WAT     H268796   6.681   7.966   5.343
22852WAT      O68797   8.427   7.625   0.316
22852WAT     H168798   8.509   7.569   0.321
22852WAT     H268799   8.388   7.620   0.224
22853WAT      O68800   8.971   4.736   3.644
22853WAT     H168801   9.024   4.818   3.664
22853WAT     H268802   8.957   4.684   3.729
22854WAT      O68803   0.822   8.353   2.062
22854WAT     H168804   0.816   8.267   2.113
22854WAT     H268805   0.823   8.333   1.964
22855WAT      O68806   3.261   1.714   7.791
22855WAT     H168807   3.234   1.659   7.870
22855WAT     H268808   3.273   1.654   7.712
22856WAT      O68809   0.165   6.984   8.463
22856WAT     H168810   0.176   7.011   8.558
22856WAT     H268811   0.146   6.886   8.458
22857WAT      O68812   5.174   6.135   8.889
22857WAT     H168813   5.097   6.177   8.841
22857WAT     H268814   5.254   6.134   8.828
22858WAT      O68815   7.191   2.290   2.272
22858WAT     H168816   7.186   2.350   2.193
22858WAT     H268817   7.107   2.235   2.277
22859WAT      O68818   3.548   7.265   1.050
22859WAT     H168819   3.492   7.252   0.969
22859WAT     H268820   3.494   7.246   1.132
22860WAT      O68821   3.323   2.028   1.311
22860WAT     H168822   3.308   2.082   1.228
22860WAT     H268823   3.248   2.045   1.375
22861WAT      O68824   7.701   7.812   0.430
22861WAT     H168825   7.711   7.718   0.397
22861WAT     H268826   7.608   7.824   0.465
22862WAT      O68827   0.801   2.180   3.569
22862WAT     H168828   0.762   2.258   3.617
22862WAT     H268829   0.799   2.196   3.471
22863WAT      O68830   8.204   2.015   6.343
22863WAT     H168831   8.200   1.916   6.353
22863WAT     H268832   8.297   2.043   6.322
22864WAT      O68833   9.736   3.331   9.196
22864WAT     H168834   9.710   3.253   9.139
22864WAT     H268835   9.765   3.298   9.286
22865WAT      O68836   0.966   6.235   6.091
22865WAT     H168837   0.891   6.290   6.128
22865WAT     H268838   0.932   6.145   6.064
22866WAT      O68839   5.687   4.278   8.017
22866WAT     H168840   5.640   4.193   7.995
22866WAT     H268841   5.626   4.337   8.070
22867WAT      O68842   3.595   8.365   0.975
22867WAT     H168843   3.514   8.336   1.026
22867WAT     H268844   3.675   8.366   1.035
22868WAT      O68845   3.897   2.443   9.113
22868WAT     H168846   3.910   2.501   9.034
22868WAT     H268847   3.799   2.440   9.136
22869WAT      O68848   1.408   2.038   5.984
22869WAT     H168849   1.374   1.968   5.921
22869WAT     H268850   1.508   2.043   5.977
22870WAT      O68851   0.075   5.947   4.878
22870WAT     H168852   0.016   6.011   4.828
22870WAT     H268853   0.103   5.873   4.817
22871WAT      O68854   8.907   8.880   9.473
22871WAT     H168855   8.813   8.848   9.491
22871WAT     H268856   8.904   8.971   9.432
22872WAT      O68857   7.052   1.407   1.868
22872WAT     H168858   7.105   1.409   1.784
22872WAT     H268859   7.108   1.445   1.943
22873WAT      O68860   8.027   5.413   4.375
22873WAT     H168861   7.972   5.391   4.456
22873WAT     H268862   8.063   5.506   4.383
22874WAT      O68863   3.145   1.991   4.836
22874WAT     H168864   3.211   2.025   4.768
22874WAT     H268865   3.165   2.030   4.925
22875WAT      O68866   1.748   4.210   8.751
22875WAT     H168867   1.808   4.136   8.720
22875WAT     H268868   1.681   4.173   8.816
22876WAT      O68869   6.263   6.903   4.146
22876WAT     H168870   6.295   6.906   4.240
22876WAT     H268871   6.228   6.993   4.119
22877WAT      O68872   8.591   2.673   8.221
22877WAT     H168873   8.509   2.619   8.237
22877WAT     H268874   8.574   2.769   8.244
22878WAT      O68875   4.420   1.508   1.875
22878WAT     H168876   4.337   1.452   1.876
22878WAT     H268877   4.467   1.495   1.787
22879WAT      O68878   9.238   5.534   0.640
22879WAT     H168879   9.242   5.459   0.706
22879WAT     H268880   9.248   5.498   0.547
22880WAT      O68881   3.801   3.457   4.562
22880WAT     H168882   3.808   3.550   4.525
22880WAT     H268883   3.708   3.441   4.594
22881WAT      O68884   4.213   6.851   8.715
22881WAT     H168885   4.253   6.777   8.769
22881WAT     H268886   4.200   6.931   8.773
22882WAT      O68887   9.291   1.480   1.945
22882WAT     H168888   9.264   1.401   2.001
22882WAT     H268889   9.390   1.490   1.947
22883WAT      O68890   1.741   7.639   7.100
22883WAT     H168891   1.752   7.730   7.059
22883WAT     H268892   1.770   7.644   7.196
22884WAT      O68893   6.318   5.683   6.202
22884WAT     H168894   6.321   5.783   6.206
22884WAT     H268895   6.276   5.654   6.117
22885WAT      O68896   5.312   6.452   9.667
22885WAT     H168897   5.389   6.512   9.644
22885WAT     H268898   5.236   6.508   9.700
22886WAT      O68899   9.703   3.868   5.764
22886WAT     H168900   9.605   3.862   5.783
22886WAT     H268901   9.721   3.837   5.671
22887WAT      O68902   2.488   5.904   5.904
22887WAT     H168903   2.473   5.931   5.999
22887WAT     H268904   2.402   5.870   5.866
22888WAT      O68905   8.869   4.536   4.306
22888WAT     H168906   8.909   4.445   4.298
22888WAT     H268907   8.927   4.602   4.258
22889WAT      O68908   2.860   3.366   6.168
22889WAT     H168909   2.880   3.463   6.179
22889WAT     H268910   2.945   3.315   6.159
22890WAT      O68911   0.698   1.613   1.267
22890WAT     H168912   0.769   1.642   1.202
22890WAT     H268913   0.741   1.591   1.354
22891WAT      O68914   2.952   9.405   8.071
22891WAT     H168915   3.010   9.431   7.994
22891WAT     H268916   3.008   9.400   8.154
22892WAT      O68917   9.758   7.203   6.566
22892WAT     H168918   9.693   7.127   6.567
22892WAT     H268919   9.822   7.192   6.490
22893WAT      O68920   7.235   6.675   9.672
22893WAT     H168921   7.279   6.722   9.595
22893WAT     H268922   7.143   6.712   9.684
22894WAT      O68923   8.605   4.932   1.624
22894WAT     H168924   8.604   4.833   1.608
22894WAT     H268925   8.530   4.975   1.573
22895WAT      O68926   4.603   3.909   4.614
22895WAT     H168927   4.679   3.904   4.549
22895WAT     H268928   4.630   3.966   4.691
22896WAT      O68929   0.811   6.884   8.711
22896WAT     H168930   0.770   6.972   8.689
22896WAT     H268931   0.872   6.856   8.636
22897WAT      O68932   3.276   2.031   7.140
22897WAT     H168933   3.207   1.977   7.094
22897WAT     H268934   3.232   2.094   7.204
22898WAT      O68935   4.437   5.639   0.368
22898WAT     H168936   4.436   5.707   0.442
22898WAT     H268937   4.441   5.547   0.408
22899WAT      O68938   2.567   4.416   2.426
22899WAT     H168939   2.525   4.489   2.481
22899WAT     H268940   2.667   4.429   2.425
22900WAT      O68941   3.941   7.303   8.114
22900WAT     H168942   3.897   7.213   8.107
22900WAT     H268943   4.040   7.291   8.105
22901WAT      O68944   5.220   6.292   5.778
22901WAT     H168945   5.192   6.257   5.688
22901WAT     H268946   5.153   6.263   5.846
22902WAT      O68947   9.710   4.191   0.403
22902WAT     H168948   9.703   4.091   0.400
22902WAT     H268949   9.803   4.216   0.430
22903WAT      O68950   2.281   8.784   6.459
22903WAT     H168951   2.296   8.686   6.445
22903WAT     H268952   2.187   8.799   6.492
22904WAT      O68953   8.841   8.592   9.182
22904WAT     H168954   8.866   8.685   9.157
22904WAT     H268955   8.891   8.527   9.124
22905WAT      O68956   3.375   5.543   7.629
22905WAT     H168957   3.442   5.549   7.703
22905WAT     H268958   3.315   5.623   7.631
22906WAT      O68959   5.903   0.740   4.362
22906WAT     H168960   5.992   0.785   4.376
22906WAT     H268961   5.833   0.809   4.345
22907WAT      O68962   3.725   6.410   7.192
22907WAT     H168963   3.729   6.320   7.148
22907WAT     H268964   3.643   6.459   7.160
22908WAT      O68965   6.806   1.134   5.845
22908WAT     H168966   6.889   1.078   5.842
22908WAT     H268967   6.727   1.078   5.821
22909WAT      O68968   3.359   9.709   1.695
22909WAT     H168969   3.327   9.621   1.730
22909WAT     H268970   3.323   9.723   1.602
22910WAT      O68971   2.519   5.231   5.625
22910WAT     H168972   2.559   5.291   5.556
22910WAT     H268973   2.593   5.189   5.679
22911WAT      O68974   3.490   9.696   0.970
22911WAT     H168975   3.564   9.760   0.951
22911WAT     H268976   3.454   9.659   0.884
22912WAT      O68977   5.946   1.335   5.490
22912WAT     H168978   6.039   1.306   5.512
22912WAT     H268979   5.887   1.255   5.484
22913WAT      O68980   0.321   4.731   0.258
22913WAT     H168981   0.277   4.713   0.346
22913WAT     H268982   0.268   4.799   0.208
22914WAT      O68983   6.665   5.532   5.353
22914WAT     H168984   6.625   5.592   5.422
22914WAT     H268985   6.760   5.512   5.379
22915WAT      O68986   6.997   3.188   8.025
22915WAT     H168987   6.961   3.272   7.985
22915WAT     H268988   7.084   3.207   8.071
22916WAT      O68989   5.507   7.312   7.911
22916WAT     H168990   5.500   7.408   7.940
22916WAT     H268991   5.415   7.273   7.903
22917WAT      O68992   4.608   1.480   1.612
22917WAT     H168993   4.637   1.411   1.545
22917WAT     H268994   4.685   1.506   1.670
22918WAT      O68995   4.184   8.632   3.184
22918WAT     H168996   4.116   8.559   3.187
22918WAT     H268997   4.152   8.710   3.237
22919WAT      O68998   7.479   8.761   5.008
22919WAT     H168999   7.424   8.772   4.925
22919WAT     H269000   7.449   8.679   5.057
22920WAT      O69001   9.495   4.367   5.218
22920WAT     H169002   9.421   4.410   5.269
22920WAT     H269003   9.531   4.432   5.150
22921WAT      O69004   4.108   9.610   9.205
22921WAT     H169005   4.141   9.629   9.297
22921WAT     H269006   4.008   9.610   9.205
22922WAT      O69007   2.105   6.499   2.781
22922WAT     H169008   2.200   6.501   2.751
22922WAT     H269009   2.072   6.593   2.793
22923WAT      O69010   2.372   3.153   5.624
22923WAT     H169011   2.455   3.177   5.575
22923WAT     H269012   2.319   3.235   5.644
22924WAT      O69013   0.429   8.672   5.380
22924WAT     H169014   0.503   8.735   5.359
22924WAT     H269015   0.374   8.656   5.298
22925WAT      O69016   3.170   4.754   6.365
22925WAT     H169017   3.079   4.775   6.401
22925WAT     H269018   3.163   4.726   6.269
22926WAT      O69019   2.447   6.385   9.368
22926WAT     H169020   2.366   6.352   9.417
22926WAT     H269021   2.527   6.334   9.398
22927WAT      O69022   3.975   0.030   2.688
22927WAT     H169023   4.045   0.086   2.731
22927WAT     H269024   3.898   0.019   2.750
22928WAT      O69025   9.681   6.386   4.341
22928WAT     H169026   9.609   6.403   4.274
22928WAT     H269027   9.720   6.473   4.372
22929WAT      O69028   0.200   7.599   1.766
22929WAT     H169029   0.240   7.685   1.797
22929WAT     H269030   0.113   7.584   1.814
22930WAT      O69031   8.950   2.851   7.142
22930WAT     H169032   8.870   2.907   7.122
22930WAT     H269033   8.982   2.808   7.058
22931WAT      O69034   2.650   9.305   9.140
22931WAT     H169035   2.735   9.272   9.180
22931WAT     H269036   2.670   9.373   9.069
22932WAT      O69037   9.769   5.601   7.550
22932WAT     H169038   9.693   5.652   7.510
22932WAT     H269039   9.736   5.545   7.626
22933WAT      O69040   6.543   6.464   7.652
22933WAT     H169041   6.505   6.435   7.740
22933WAT     H269042   6.503   6.407   7.579
22934WAT      O69043   1.266   0.717   5.956
22934WAT     H169044   1.292   0.636   5.902
22934WAT     H269045   1.334   0.732   6.028
22935WAT      O69046   0.178   1.145   8.031
22935WAT     H169047   0.115   1.223   8.030
22935WAT     H269048   0.221   1.136   7.941
22936WAT      O69049   8.411   4.706   4.390
22936WAT     H169050   8.501   4.678   4.423
22936WAT     H269051   8.363   4.626   4.353
22937WAT      O69052   8.434   9.428   1.254
22937WAT     H169053   8.531   9.415   1.275
22937WAT     H269054   8.417   9.522   1.226
22938WAT      O69055   8.064   9.355   4.399
22938WAT     H169056   8.047   9.366   4.497
22938WAT     H269057   8.094   9.261   4.382
22939WAT      O69058   4.123   1.585   0.994
22939WAT     H169059   4.195   1.563   0.928
22939WAT     H269060   4.108   1.684   0.996
22940WAT      O69061   1.616   1.732   1.394
22940WAT     H169062   1.570   1.821   1.393
22940WAT     H269063   1.549   1.659   1.376
22941WAT      O69064   3.796   2.086   0.703
22941WAT     H169065   3.755   2.177   0.707
22941WAT     H269066   3.810   2.052   0.796
22942WAT      O69067   3.687   0.060   2.061
22942WAT     H169068   3.699   0.023   2.153
22942WAT     H269069   3.591   0.053   2.034
22943WAT      O69070   7.239   5.897   4.428
22943WAT     H169071   7.225   5.809   4.383
22943WAT     H269072   7.155   5.923   4.477
22944WAT      O69073   3.887   0.306   9.027
22944WAT     H169074   3.866   0.364   9.105
22944WAT     H269075   3.942   0.357   8.961
22945WAT      O69076   3.818   8.155   0.675
22945WAT     H169077   3.757   8.077   0.680
22945WAT     H269078   3.898   8.131   0.620
22946WAT      O69079   8.791   8.800   0.072
22946WAT     H169080   8.877   8.753   0.055
22946WAT     H269081   8.809   8.897   0.089
22947WAT      O69082   1.078   7.683   0.994
22947WAT     H169083   1.022   7.619   0.942
22947WAT     H269084   1.126   7.634   1.067
22948WAT      O69085   9.292   6.465   2.502
22948WAT     H169086   9.387   6.497   2.498
22948WAT     H269087   9.233   6.532   2.458
22949WAT      O69088   7.366   1.246   3.763
22949WAT     H169089   7.294   1.297   3.716
22949WAT     H269090   7.446   1.306   3.777
22950WAT      O69091   7.018   8.719   7.080
22950WAT     H169092   6.957   8.774   7.136
22950WAT     H269093   7.011   8.623   7.108
22951WAT      O69094   9.683   8.934   5.735
22951WAT     H169095   9.714   8.839   5.744
22951WAT     H269096   9.608   8.950   5.799
22952WAT      O69097   7.331   9.012   6.219
22952WAT     H169098   7.408   9.049   6.270
22952WAT     H269099   7.254   9.075   6.224
22953WAT      O69100   9.780   0.523   8.952
22953WAT     H169101   9.742   0.546   9.042
22953WAT     H269102   9.776   0.424   8.938
22954WAT      O69103   5.903   8.149   4.062
22954WAT     H169104   5.845   8.213   4.011
22954WAT     H269105   5.998   8.181   4.059
22955WAT      O69106   8.042   9.756   2.938
22955WAT     H169107   8.078   9.743   3.031
22955WAT     H269108   8.062   9.675   2.883
22956WAT      O69109   6.763   0.592   6.831
22956WAT     H169110   6.745   0.586   6.733
22956WAT     H269111   6.795   0.683   6.854
22957WAT      O69112   2.810   1.098   2.904
22957WAT     H169113   2.783   1.189   2.873
22957WAT     H269114   2.878   1.106   2.976
22958WAT      O69115   8.601   9.375   8.665
22958WAT     H169116   8.655   9.426   8.733
22958WAT     H269117   8.658   9.304   8.624
22959WAT      O69118   5.217   9.052   8.765
22959WAT     H169119   5.252   9.145   8.760
22959WAT     H269120   5.292   8.988   8.782
22960WAT      O69121   4.812   2.876   6.082
22960WAT     H169122   4.750   2.929   6.023
22960WAT     H269123   4.861   2.938   6.142
22961WAT      O69124   2.356   1.836   7.366
22961WAT     H169125   2.290   1.774   7.324
22961WAT     H269126   2.308   1.916   7.402
22962WAT      O69127   0.744   6.182   9.370
22962WAT     H169128   0.790   6.159   9.284
22962WAT     H269129   0.740   6.282   9.380
22963WAT      O69130   6.471   2.826   5.869
22963WAT     H169131   6.428   2.791   5.952
22963WAT     H269132   6.568   2.801   5.868
22964WAT      O69133   2.495   1.646   9.288
22964WAT     H169134   2.462   1.740   9.276
22964WAT     H269135   2.416   1.584   9.295
22965WAT      O69136   7.822   5.025   1.971
22965WAT     H169137   7.879   5.107   1.968
22965WAT     H269138   7.867   4.955   2.025
22966WAT      O69139   9.133   7.977   2.632
22966WAT     H169140   9.118   7.888   2.589
22966WAT     H269141   9.076   7.985   2.714
22967WAT      O69142   6.079   2.350   7.507
22967WAT     H169143   6.095   2.327   7.411
22967WAT     H269144   6.106   2.274   7.565
22968WAT      O69145   2.076   7.969   9.766
22968WAT     H169146   2.123   8.053   9.737
22968WAT     H269147   2.120   7.933   9.848
22969WAT      O69148   3.118   3.868   5.028
22969WAT     H169149   3.050   3.859   4.955
22969WAT     H269150   3.118   3.962   5.062
22970WAT      O69151   5.474   2.979   4.986
22970WAT     H169152   5.477   2.898   4.928
22970WAT     H269153   5.400   2.970   5.053
22971WAT      O69154   0.301   7.047   7.070
22971WAT     H169155   0.222   7.090   7.113
22971WAT     H269156   0.383   7.066   7.123
22972WAT      O69157   3.350   9.473   7.767
22972WAT     H169158   3.418   9.412   7.807
22972WAT     H269159   3.307   9.428   7.688
22973WAT      O69160   5.562   4.516   7.377
22973WAT     H169161   5.648   4.563   7.397
22973WAT     H269162   5.541   4.524   7.280
22974WAT      O69163   3.656   0.902   2.173
22974WAT     H169164   3.616   0.994   2.174
22974WAT     H269165   3.616   0.848   2.248
22975WAT      O69166   0.417   8.529   9.475
22975WAT     H169167   0.499   8.552   9.528
22975WAT     H269168   0.336   8.545   9.530
22976WAT      O69169   9.162   4.133   6.928
22976WAT     H169170   9.242   4.078   6.950
22976WAT     H269171   9.192   4.224   6.898
22977WAT      O69172   5.638   0.664   1.401
22977WAT     H169173   5.567   0.602   1.435
22977WAT     H269174   5.713   0.610   1.362
22978WAT      O69175   6.276   8.418   2.169
22978WAT     H169176   6.237   8.327   2.154
22978WAT     H269177   6.217   8.486   2.126
22979WAT      O69178   3.631   2.979   1.530
22979WAT     H169179   3.640   3.046   1.456
22979WAT     H269180   3.720   2.963   1.572
22980WAT      O69181   7.308   9.802   9.723
22980WAT     H169182   7.253   9.725   9.690
22980WAT     H269183   7.250   9.883   9.733
22981WAT      O69184   5.844   1.253   4.826
22981WAT     H169185   5.834   1.352   4.818
22981WAT     H269186   5.872   1.229   4.919
22982WAT      O69187   0.091   2.461   8.280
22982WAT     H169188   0.039   2.382   8.310
22982WAT     H269189   0.059   2.543   8.327
22983WAT      O69190   1.815   6.014   3.927
22983WAT     H169191   1.843   6.026   4.022
22983WAT     H269192   1.784   5.921   3.912
22984WAT      O69193   5.633   3.363   5.781
22984WAT     H169194   5.707   3.371   5.715
22984WAT     H269195   5.609   3.267   5.794
22985WAT      O69196   0.419   1.811   2.791
22985WAT     H169197   0.452   1.855   2.874
22985WAT     H269198   0.495   1.792   2.730
22986WAT      O69199   5.426   0.912   1.562
22986WAT     H169200   5.494   0.849   1.600
22986WAT     H269201   5.440   1.003   1.599
22987WAT      O69202   6.170   2.716   3.676
22987WAT     H169203   6.071   2.707   3.687
22987WAT     H269204   6.216   2.651   3.736
22988WAT      O69205   0.659   0.278   4.283
22988WAT     H169206   0.712   0.260   4.366
22988WAT     H269207   0.586   0.210   4.275
22989WAT      O69208   9.655   2.849   1.074
22989WAT     H169209   9.584   2.904   1.033
22989WAT     H269210   9.616   2.794   1.148
22990WAT      O69211   8.918   6.591   0.009
22990WAT     H169212   8.985   6.571  -0.062
22990WAT     H269213   8.829   6.609  -0.033
22991WAT      O69214   1.669   9.305   9.366
22991WAT     H169215   1.670   9.235   9.295
22991WAT     H269216   1.678   9.395   9.324
22992WAT      O69217   7.752   5.181   4.251
22992WAT     H169218   7.699   5.136   4.179
22992WAT     H269219   7.776   5.274   4.222
22993WAT      O69220   9.388   5.170   4.720
22993WAT     H169221   9.422   5.239   4.784
22993WAT     H269222   9.288   5.170   4.722
22994WAT      O69223   5.781   9.010   5.166
22994WAT     H169224   5.685   9.036   5.176
22994WAT     H269225   5.831   9.081   5.116
22995WAT      O69226   0.114   2.328   2.761
22995WAT     H169227   0.133   2.313   2.664
22995WAT     H269228   0.200   2.335   2.811
22996WAT      O69229   6.428   1.183   2.259
22996WAT     H169230   6.458   1.161   2.166
22996WAT     H269231   6.335   1.151   2.273
22997WAT      O69232   2.329   2.602   6.418
22997WAT     H169233   2.336   2.572   6.323
22997WAT     H269234   2.248   2.660   6.429
22998WAT      O69235   8.265   7.949   9.086
22998WAT     H169236   8.259   8.046   9.061
22998WAT     H269237   8.360   7.923   9.099
22999WAT      O69238   8.859   5.917   2.264
22999WAT     H169239   8.956   5.916   2.242
22999WAT     H269240   8.805   5.910   2.180
23000WAT      O69241   9.817   9.159   5.032
23000WAT     H169242   9.881   9.135   4.960
23000WAT     H269243   9.844   9.246   5.074
23001WAT      O69244   8.038   3.198   4.232
23001WAT     H169245   8.067   3.245   4.148
23001WAT     H269246   7.947   3.231   4.258
23002WAT      O69247   9.560   0.317   6.327
23002WAT     H169248   9.609   0.285   6.408
23002WAT     H269249   9.597   0.406   6.299
23003WAT      O69250   5.934   5.744   5.385
23003WAT     H169251   5.948   5.723   5.482
23003WAT     H269252   5.992   5.820   5.358
23004WAT      O69253   2.399   4.123   8.399
23004WAT     H169254   2.465   4.168   8.460
23004WAT     H269255   2.342   4.192   8.355
23005WAT      O69256   8.322   5.275   0.039
23005WAT     H169257   8.391   5.237  -0.023
23005WAT     H269258   8.349   5.256   0.134
23006WAT      O69259   5.430   6.892   7.534
23006WAT     H169260   5.391   6.816   7.482
23006WAT     H269261   5.422   6.976   7.480
23007WAT      O69262   2.083   7.798   8.416
23007WAT     H169263   2.094   7.724   8.350
23007WAT     H269264   1.989   7.833   8.412
23008WAT      O69265   8.938   2.426   4.973
23008WAT     H169266   8.877   2.381   4.909
23008WAT     H269267   8.904   2.414   5.066
23009WAT      O69268   0.554   3.249   2.053
23009WAT     H169269   0.554   3.334   2.000
23009WAT     H269270   0.486   3.256   2.127
23010WAT      O69271   4.712   7.634   7.038
23010WAT     H169272   4.761   7.714   7.005
23010WAT     H269273   4.776   7.568   7.077
23011WAT      O69274   9.832   5.025   8.271
23011WAT     H169275   9.757   4.978   8.319
23011WAT     H269276   9.795   5.098   8.214
23012WAT      O69277   4.179   9.027   7.772
23012WAT     H169278   4.138   9.104   7.722
23012WAT     H269279   4.276   9.045   7.787
23013WAT      O69280   5.183   0.453   2.166
23013WAT     H169281   5.201   0.546   2.197
23013WAT     H269282   5.269   0.402   2.163
23014WAT      O69283   4.006   3.960   8.503
23014WAT     H169284   4.071   3.932   8.433
23014WAT     H269285   3.971   4.052   8.482
23015WAT      O69286   7.713   9.645   2.397
23015WAT     H169287   7.656   9.690   2.328
23015WAT     H269288   7.671   9.559   2.424
23016WAT      O69289   6.707   7.936   3.500
23016WAT     H169290   6.658   7.889   3.573
23016WAT     H269291   6.755   8.016   3.537
23017WAT      O69292   2.940   7.921   7.851
23017WAT     H169293   2.966   7.923   7.947
23017WAT     H269294   2.958   7.830   7.813
23018WAT      O69295   2.757   0.183   1.019
23018WAT     H169296   2.830   0.119   0.997
23018WAT     H269297   2.778   0.272   0.979
23019WAT      O69298   3.702   4.128   2.017
23019WAT     H169299   3.756   4.209   2.041
23019WAT     H269300   3.606   4.144   2.039
23020WAT      O69301   5.434   1.963   3.388
23020WAT     H169302   5.526   1.929   3.369
23020WAT     H269303   5.407   1.934   3.480
23021WAT      O69304   9.087   0.298   0.437
23021WAT     H169305   9.176   0.327   0.475
23021WAT     H269306   9.038   0.244   0.505
23022WAT      O69307   4.333   7.795   2.637
23022WAT     H169308   4.288   7.884   2.622
23022WAT     H269309   4.336   7.776   2.735
23023WAT      O69310   8.724   2.608   3.031
23023WAT     H169311   8.794   2.674   3.005
23023WAT     H269312   8.762   2.542   3.095
23024WAT      O69313   7.026   6.088   6.077
23024WAT     H169314   7.095   6.149   6.116
23024WAT     H269315   7.005   6.016   6.143
23025WAT      O69316   9.616   7.118   5.013
23025WAT     H169317   9.683   7.146   5.081
23025WAT     H269318   9.602   7.191   4.947
23026WAT      O69319   5.617   2.774   2.317
23026WAT     H169320   5.711   2.808   2.327
23026WAT     H269321   5.567   2.831   2.252
23027WAT      O69322   1.036   3.300   8.429
23027WAT     H169323   1.114   3.337   8.480
23027WAT     H269324   0.972   3.257   8.492
23028WAT      O69325   2.668   8.795   1.513
23028WAT     H169326   2.599   8.865   1.491
23028WAT     H269327   2.670   8.727   1.440
23029WAT      O69328   0.677   4.471   3.694
23029WAT     H169329   0.613   4.472   3.770
23029WAT     H269330   0.660   4.550   3.635
23030WAT      O69331   0.555   2.620   2.584
23030WAT     H169332   0.475   2.671   2.552
23030WAT     H269333   0.631   2.634   2.521
23031WAT      O69334   3.586   4.154   7.589
23031WAT     H169335   3.531   4.161   7.506
23031WAT     H269336   3.633   4.240   7.605
23032WAT      O69337   1.105   5.279   7.126
23032WAT     H169338   1.135   5.344   7.056
23032WAT     H269339   1.184   5.228   7.161
23033WAT      O69340   2.837   8.400   8.279
23033WAT     H169341   2.876   8.371   8.366
23033WAT     H269342   2.846   8.326   8.212
23034WAT      O69343   6.205   7.057   0.547
23034WAT     H169344   6.109   7.084   0.547
23034WAT     H269345   6.219   6.984   0.613
23035WAT      O69346   2.745   5.414   3.772
23035WAT     H169347   2.825   5.474   3.765
23035WAT     H269348   2.680   5.452   3.837
23036WAT      O69349   4.135   3.960   0.003
23036WAT     H169350   4.225   3.975   0.045
23036WAT     H269351   4.147   3.935  -0.093
23037WAT      O69352   8.714   8.121   4.839
23037WAT     H169353   8.799   8.132   4.787
23037WAT     H269354   8.722   8.045   4.902
23038WAT      O69355   6.064   2.870   6.116
23038WAT     H169356   6.101   2.785   6.080
23038WAT     H269357   6.025   2.854   6.207
23039WAT      O69358   3.123   0.608   9.149
23039WAT     H169359   3.074   0.524   9.173
23039WAT     H269360   3.221   0.593   9.159
23040WAT      O69361   5.919   0.337   0.810
23040WAT     H169362   5.921   0.437   0.819
23040WAT     H269363   6.012   0.301   0.815
23041WAT      O69364   6.675   9.042   1.596
23041WAT     H169365   6.771   9.039   1.568
23041WAT     H269366   6.669   9.024   1.694
23042WAT      O69367   8.388   3.977   2.960
23042WAT     H169368   8.485   3.989   2.980
23042WAT     H269369   8.361   3.883   2.979
23043WAT      O69370   8.694   4.399   9.751
23043WAT     H169371   8.784   4.384   9.792
23043WAT     H269372   8.635   4.321   9.771
23044WAT      O69373   3.037   8.059   2.001
23044WAT     H169374   2.961   8.098   1.949
23044WAT     H269375   3.118   8.116   1.989
23045WAT      O69376   4.192   9.609   9.511
23045WAT     H169377   4.144   9.589   9.596
23045WAT     H269378   4.196   9.708   9.497
23046WAT      O69379   0.158   3.233   3.071
23046WAT     H169380   0.081   3.234   3.135
23046WAT     H269381   0.215   3.153   3.089
23047WAT      O69382   9.836   7.205   3.789
23047WAT     H169383   9.916   7.241   3.838
23047WAT     H269384   9.839   7.235   3.694
23048WAT      O69385   5.805   4.175   4.124
23048WAT     H169386   5.898   4.169   4.087
23048WAT     H269387   5.758   4.254   4.084
23049WAT      O69388   6.111   1.562   0.142
23049WAT     H169389   6.084   1.644   0.192
23049WAT     H269390   6.204   1.575   0.106
23050WAT      O69391   7.285   0.663   1.298
23050WAT     H169392   7.287   0.740   1.234
23050WAT     H269393   7.263   0.697   1.390
23051WAT      O69394   4.180   7.972   3.371
23051WAT     H169395   4.241   7.947   3.295
23051WAT     H269396   4.235   8.004   3.448
23052WAT      O69397   8.373   2.921   4.646
23052WAT     H169398   8.444   2.902   4.579
23052WAT     H269399   8.283   2.915   4.602
23053WAT      O69400   7.810   4.402   4.153
23053WAT     H169401   7.730   4.379   4.207
23053WAT     H269402   7.871   4.324   4.148
23054WAT      O69403   5.563   5.462   1.955
23054WAT     H169404   5.594   5.527   1.886
23054WAT     H269405   5.544   5.374   1.911
23055WAT      O69406   6.256   4.154   8.167
23055WAT     H169407   6.202   4.072   8.151
23055WAT     H269408   6.319   4.168   8.090
23056WAT      O69409   9.859   2.468   2.070
23056WAT     H169410   9.784   2.465   2.136
23056WAT     H269411   9.939   2.509   2.114
23057WAT      O69412   2.482   0.580   5.762
23057WAT     H169413   2.563   0.609   5.814
23057WAT     H269414   2.505   0.571   5.665
23058WAT      O69415   1.779   3.494   0.479
23058WAT     H169416   1.749   3.540   0.396
23058WAT     H269417   1.877   3.474   0.472
23059WAT      O69418   7.404   0.412   8.064
23059WAT     H169419   7.342   0.491   8.067
23059WAT     H269420   7.478   0.425   8.130
23060WAT      O69421   2.583   4.152   3.741
23060WAT     H169422   2.571   4.116   3.834
23060WAT     H269423   2.513   4.221   3.723
23061WAT      O69424   5.757   8.339   5.986
23061WAT     H169425   5.806   8.394   6.053
23061WAT     H269426   5.809   8.256   5.965
23062WAT      O69427   8.407   3.197   1.980
23062WAT     H169428   8.361   3.243   1.904
23062WAT     H269429   8.375   3.234   2.067
23063WAT      O69430   0.597   2.283   9.191
23063WAT     H169431   0.611   2.347   9.266
23063WAT     H269432   0.498   2.269   9.177
23064WAT      O69433   2.813   4.308   3.803
23064WAT     H169434   2.733   4.253   3.782
23064WAT     H269435   2.802   4.399   3.763
23065WAT      O69436   9.503   1.833   5.211
23065WAT     H169437   9.557   1.779   5.147
23065WAT     H269438   9.492   1.926   5.176
23066WAT      O69439   9.637   5.547   5.018
23066WAT     H169440   9.583   5.598   5.086
23066WAT     H269441   9.678   5.466   5.061
23067WAT      O69442   9.820   6.140   6.700
23067WAT     H169443   9.796   6.082   6.622
23067WAT     H269444   9.785   6.099   6.784
23068WAT      O69445   1.260   8.381   9.005
23068WAT     H169446   1.199   8.453   8.972
23068WAT     H269447   1.266   8.385   9.105
23069WAT      O69448   3.050   7.547   8.086
23069WAT     H169449   3.056   7.493   8.002
23069WAT     H269450   3.102   7.632   8.075
23070WAT      O69451   7.507   8.969   6.693
23070WAT     H169452   7.541   8.900   6.630
23070WAT     H269453   7.458   9.040   6.642
23071WAT      O69454   0.688   5.485   9.310
23071WAT     H169455   0.677   5.472   9.211
23071WAT     H269456   0.689   5.396   9.355
23072WAT      O69457   5.858   6.116   9.843
23072WAT     H169458   5.760   6.135   9.837
23072WAT     H269459   5.897   6.120   9.751
23073WAT      O69460   4.607   7.560   0.920
23073WAT     H169461   4.629   7.644   0.969
23073WAT     H269462   4.691   7.518   0.886
23074WAT      O69463   1.358   8.810   6.797
23074WAT     H169464   1.340   8.804   6.699
23074WAT     H269465   1.418   8.887   6.815
23075WAT      O69466   5.132   9.112   4.173
23075WAT     H169467   5.064   9.177   4.207
23075WAT     H269468   5.147   9.041   4.243
23076WAT      O69469   4.861   5.988   0.828
23076WAT     H169470   4.898   5.973   0.920
23076WAT     H269471   4.792   5.920   0.807
23077WAT      O69472   0.477   0.114   6.027
23077WAT     H169473   0.558   0.110   6.084
23077WAT     H269474   0.504   0.116   5.930
23078WAT      O69475   7.684   8.561   5.480
23078WAT     H169476   7.683   8.567   5.580
23078WAT     H269477   7.772   8.593   5.446
23079WAT      O69478   3.301   9.642   7.467
23079WAT     H169479   3.252   9.557   7.445
23079WAT     H269480   3.239   9.720   7.456
23080WAT      O69481   4.539   3.799   7.015
23080WAT     H169482   4.511   3.856   6.937
23080WAT     H269483   4.634   3.820   7.038
23081WAT      O69484   5.146   1.608   9.357
23081WAT     H169485   5.078   1.586   9.287
23081WAT     H269486   5.118   1.567   9.444
23082WAT      O69487   6.224   5.905   3.531
23082WAT     H169488   6.272   5.948   3.454
23082WAT     H269489   6.157   5.840   3.496
23083WAT      O69490   3.209   8.086   6.535
23083WAT     H169491   3.123   8.050   6.499
23083WAT     H269492   3.276   8.092   6.462
23084WAT      O69493   3.127   8.996   2.361
23084WAT     H169494   3.081   8.923   2.412
23084WAT     H269495   3.217   8.965   2.330
23085WAT      O69496   6.140   8.569   1.006
23085WAT     H169497   6.086   8.504   1.059
23085WAT     H269498   6.237   8.557   1.027
23086WAT      O69499   8.070   4.041   5.730
23086WAT     H169500   8.065   3.999   5.639
23086WAT     H269501   7.977   4.062   5.762
23087WAT      O69502   3.856   7.782   7.159
23087WAT     H169503   3.790   7.830   7.101
23087WAT     H269504   3.825   7.786   7.254
23088WAT      O69505   7.399   8.312   5.741
23088WAT     H169506   7.409   8.324   5.642
23088WAT     H269507   7.450   8.231   5.770
23089WAT      O69508   4.004   1.817   7.725
23089WAT     H169509   4.077   1.873   7.765
23089WAT     H269510   3.954   1.771   7.798
23090WAT      O69511   5.392   5.906   6.058
23090WAT     H169512   5.311   5.860   6.094
23090WAT     H269513   5.463   5.908   6.127
23091WAT      O69514   8.852   7.127   8.389
23091WAT     H169515   8.811   7.086   8.308
23091WAT     H269516   8.803   7.212   8.412
23092WAT      O69517   2.838   2.463   1.526
23092WAT     H169518   2.819   2.424   1.616
23092WAT     H269519   2.753   2.496   1.485
23093WAT      O69520   2.285   5.980   5.125
23093WAT     H169521   2.338   5.929   5.193
23093WAT     H269522   2.233   5.916   5.068
23094WAT      O69523   3.380   5.732   9.773
23094WAT     H169524   3.374   5.694   9.681
23094WAT     H269525   3.475   5.756   9.794
23095WAT      O69526   1.144   2.134   1.521
23095WAT     H169527   1.182   2.041   1.522
23095WAT     H269528   1.155   2.175   1.611
23096WAT      O69529   2.281   6.528   1.676
23096WAT     H169530   2.280   6.442   1.626
23096WAT     H269531   2.247   6.601   1.616
23097WAT      O69532   3.971   6.602   5.344
23097WAT     H169533   4.026   6.591   5.261
23097WAT     H269534   3.932   6.514   5.370
23098WAT      O69535   6.454   8.148   8.354
23098WAT     H169536   6.458   8.181   8.259
23098WAT     H269537   6.483   8.052   8.357
23099WAT      O69538   6.634   8.304   1.874
23099WAT     H169539   6.544   8.328   1.912
23099WAT     H269540   6.652   8.360   1.793
23100WAT      O69541   5.602   2.348   9.701
23100WAT     H169542   5.680   2.409   9.685
23100WAT     H269543   5.583   2.342   9.799
23101WAT      O69544   2.236   7.305   7.680
23101WAT     H169545   2.192   7.216   7.665
23101WAT     H269546   2.335   7.293   7.686
23102WAT      O69547   7.040   4.727   5.419
23102WAT     H169548   7.069   4.823   5.423
23102WAT     H269549   7.119   4.668   5.431
23103WAT      O69550   6.206   6.760   9.172
23103WAT     H169551   6.251   6.778   9.260
23103WAT     H269552   6.155   6.842   9.144
23104WAT      O69553   1.230   0.663   8.462
23104WAT     H169554   1.184   0.669   8.373
23104WAT     H269555   1.165   0.632   8.531
23105WAT      O69556   1.009   6.205   5.036
23105WAT     H169557   0.941   6.247   4.977
23105WAT     H269558   0.981   6.215   5.132
23106WAT      O69559   0.186   1.304   1.354
23106WAT     H169560   0.132   1.373   1.305
23106WAT     H269561   0.125   1.249   1.411
23107WAT      O69562   1.006   1.669   5.422
23107WAT     H169563   0.956   1.690   5.506
23107WAT     H269564   0.942   1.636   5.353
23108WAT      O69565   9.187   2.107   2.325
23108WAT     H169566   9.137   2.025   2.297
23108WAT     H269567   9.263   2.122   2.262
23109WAT      O69568   2.798   4.338   3.240
23109WAT     H169569   2.813   4.268   3.171
23109WAT     H269570   2.708   4.379   3.227
23110WAT      O69571   2.978   8.614   3.039
23110WAT     H169572   2.958   8.616   3.136
23110WAT     H269573   2.901   8.573   2.989
23111WAT      O69574   0.321   1.718   5.536
23111WAT     H169575   0.383   1.651   5.578
23111WAT     H269576   0.330   1.713   5.437
23112WAT      O69577   2.958   8.419   4.456
23112WAT     H169578   3.026   8.483   4.492
23112WAT     H269579   2.960   8.335   4.510
23113WAT      O69580   7.911   5.884   2.204
23113WAT     H169581   7.940   5.934   2.285
23113WAT     H269582   7.848   5.941   2.151
23114WAT      O69583   4.822   1.537   7.593
23114WAT     H169584   4.731   1.579   7.591
23114WAT     H269585   4.849   1.522   7.688
23115WAT      O69586   5.757   2.403   8.989
23115WAT     H169587   5.771   2.493   8.947
23115WAT     H269588   5.701   2.412   9.070
23116WAT      O69589   5.627   0.148   8.707
23116WAT     H169590   5.626   0.247   8.725
23116WAT     H269591   5.721   0.114   8.714
23117WAT      O69592   7.200   7.069   7.419
23117WAT     H169593   7.213   7.020   7.333
23117WAT     H269594   7.231   7.011   7.495
23118WAT      O69595   7.975   5.978   4.043
23118WAT     H169596   7.972   5.975   4.143
23118WAT     H269597   7.996   6.070   4.013
23119WAT      O69598   2.969   2.727   1.193
23119WAT     H169599   2.950   2.708   1.097
23119WAT     H269600   2.891   2.700   1.249
23120WAT      O69601   6.916   3.882   6.006
23120WAT     H169602   6.944   3.787   6.022
23120WAT     H269603   6.824   3.897   6.042
23121WAT      O69604   0.011   5.381   6.774
23121WAT     H169605  -0.077   5.421   6.751
23121WAT     H269606  -0.003   5.300   6.831
23122WAT      O69607   6.563   7.878   3.892
23122WAT     H169608   6.571   7.863   3.990
23122WAT     H269609   6.513   7.964   3.876
23123WAT      O69610   5.343   8.839   0.469
23123WAT     H169611   5.250   8.829   0.504
23123WAT     H269612   5.374   8.932   0.483
23124WAT      O69613   5.174   0.353   2.802
23124WAT     H169614   5.114   0.273   2.793
23124WAT     H269615   5.227   0.344   2.886
23125WAT      O69616   4.619   1.609   8.499
23125WAT     H169617   4.661   1.695   8.470
23125WAT     H269618   4.672   1.532   8.462
23126WAT      O69619   0.878   8.761   2.865
23126WAT     H169620   0.956   8.816   2.894
23126WAT     H269621   0.900   8.714   2.780
23127WAT      O69622   7.897   0.633   3.778
23127WAT     H169623   7.923   0.641   3.682
23127WAT     H269624   7.802   0.602   3.785
23128WAT      O69625   4.051   0.704   9.524
23128WAT     H169626   4.010   0.639   9.588
23128WAT     H269627   4.145   0.724   9.553
23129WAT      O69628   0.367   0.526   9.237
23129WAT     H169629   0.452   0.566   9.202
23129WAT     H269630   0.305   0.599   9.266
23130WAT      O69631   4.832   7.863   0.107
23130WAT     H169632   4.800   7.950   0.068
23130WAT     H269633   4.931   7.866   0.119
23131WAT      O69634   6.951   1.561   4.118
23131WAT     H169635   7.043   1.552   4.079
23131WAT     H269636   6.883   1.532   4.050
23132WAT      O69637   7.465   1.988   3.507
23132WAT     H169638   7.401   1.992   3.430
23132WAT     H269639   7.500   2.080   3.527
23133WAT      O69640   3.358   2.862   4.218
23133WAT     H169641   3.338   2.770   4.184
23133WAT     H269642   3.370   2.859   4.317
23134WAT      O69643   6.462   2.458   7.696
23134WAT     H169644   6.376   2.481   7.741
23134WAT     H269645   6.460   2.492   7.602
23135WAT      O69646   4.675   4.235   3.421
23135WAT     H169647   4.675   4.326   3.380
23135WAT     H269648   4.750   4.228   3.487
23136WAT      O69649   5.924   0.589   0.919
23136WAT     H169650   5.963   0.603   1.010
23136WAT     H269651   5.916   0.677   0.873
23137WAT      O69652   8.573   3.345   6.729
23137WAT     H169653   8.626   3.322   6.648
23137WAT     H269654   8.505   3.273   6.746
23138WAT      O69655   6.678   0.720   4.453
23138WAT     H169656   6.691   0.636   4.400
23138WAT     H269657   6.649   0.697   4.545
23139WAT      O69658   8.594   1.161   7.954
23139WAT     H169659   8.573   1.191   8.047
23139WAT     H269660   8.692   1.170   7.937
23140WAT      O69661   5.156   5.810   0.887
23140WAT     H169662   5.071   5.829   0.936
23140WAT     H269663   5.193   5.722   0.917
23141WAT      O69664   8.715   0.950   2.783
23141WAT     H169665   8.767   0.957   2.698
23141WAT     H269666   8.712   1.039   2.828
23142WAT      O69667   4.972   1.109   8.338
23142WAT     H169668   5.005   1.042   8.405
23142WAT     H269669   4.872   1.114   8.344
23143WAT      O69670   0.400   9.193   2.925
23143WAT     H169671   0.430   9.156   2.837
23143WAT     H269672   0.409   9.123   2.995
23144WAT      O69673   1.158   7.622   9.253
23144WAT     H169674   1.241   7.576   9.283
23144WAT     H269675   1.081   7.596   9.311
23145WAT      O69676   0.245   1.994   1.203
23145WAT     H169677   0.201   1.954   1.284
23145WAT     H269678   0.184   1.987   1.125
23146WAT      O69679   0.176   2.790   9.420
23146WAT     H169680   0.180   2.702   9.467
23146WAT     H269681   0.187   2.864   9.487
23147WAT      O69682   5.681   0.994   7.308
23147WAT     H169683   5.607   1.013   7.243
23147WAT     H269684   5.667   1.050   7.391
23148WAT      O69685   2.228   3.233   7.392
23148WAT     H169686   2.156   3.164   7.389
23148WAT     H269687   2.189   3.321   7.422
23149WAT      O69688   0.057   6.458   0.562
23149WAT     H169689   0.134   6.432   0.620
23149WAT     H269690   0.024   6.377   0.513
23150WAT      O69691   4.517   0.763   8.201
23150WAT     H169692   4.473   0.818   8.272
23150WAT     H269693   4.480   0.788   8.112
23151WAT      O69694   7.505   7.224   2.241
23151WAT     H169695   7.581   7.250   2.181
23151WAT     H269696   7.536   7.228   2.336
23152WAT      O69697   8.283   7.187   7.394
23152WAT     H169698   8.289   7.245   7.312
23152WAT     H269699   8.370   7.139   7.406
23153WAT      O69700   8.878   1.525   5.817
23153WAT     H169701   8.832   1.453   5.869
23153WAT     H269702   8.932   1.484   5.744
23154WAT      O69703   6.455   5.750   5.461
23154WAT     H169704   6.464   5.788   5.369
23154WAT     H269705   6.542   5.758   5.510
23155WAT      O69706   3.225   0.568   4.463
23155WAT     H169707   3.285   0.549   4.385
23155WAT     H269708   3.215   0.485   4.518
23156WAT      O69709   4.580   8.765   3.694
23156WAT     H169710   4.567   8.675   3.735
23156WAT     H269711   4.556   8.836   3.760
23157WAT      O69712   6.541   7.033   4.252
23157WAT     H169713   6.458   7.025   4.307
23157WAT     H269714   6.579   6.942   4.234
23158WAT      O69715   4.478   0.322   7.574
23158WAT     H169716   4.405   0.254   7.572
23158WAT     H269717   4.562   0.281   7.537
23159WAT      O69718   7.114   6.788   0.486
23159WAT     H169719   7.066   6.701   0.472
23159WAT     H269720   7.046   6.861   0.496
23160WAT      O69721   2.419   5.088   8.349
23160WAT     H169722   2.393   5.184   8.349
23160WAT     H269723   2.368   5.039   8.420
23161WAT      O69724   8.115   7.155   1.308
23161WAT     H169725   8.090   7.058   1.300
23161WAT     H269726   8.038   7.212   1.283
23162WAT      O69727   0.284   8.009   5.674
23162WAT     H169728   0.269   8.030   5.770
23162WAT     H269729   0.220   8.062   5.618
23163WAT      O69730   5.200   4.085   7.462
23163WAT     H169731   5.149   4.003   7.435
23163WAT     H269732   5.292   4.081   7.423
23164WAT      O69733   1.994   6.520   6.845
23164WAT     H169734   1.911   6.555   6.800
23164WAT     H269735   2.056   6.484   6.776
23165WAT      O69736   8.920   1.956   5.018
23165WAT     H169737   8.928   1.900   4.935
23165WAT     H269738   8.989   2.028   5.016
23166WAT      O69739   2.388   9.798   5.840
23166WAT     H169740   2.441   9.785   5.756
23166WAT     H269741   2.315   9.864   5.824
23167WAT      O69742   9.144   7.016   1.543
23167WAT     H169743   9.051   6.980   1.539
23167WAT     H269744   9.209   6.941   1.536
23168WAT      O69745   6.391   0.728   1.074
23168WAT     H169746   6.356   0.639   1.104
23168WAT     H269747   6.391   0.792   1.151
23169WAT      O69748   9.804   8.640   3.273
23169WAT     H169749   9.720   8.685   3.242
23169WAT     H269750   9.780   8.562   3.331
23170WAT      O69751   4.554   7.846   5.277
23170WAT     H169752   4.497   7.909   5.329
23170WAT     H269753   4.498   7.796   5.212
23171WAT      O69754   0.164   4.840   1.606
23171WAT     H169755   0.237   4.776   1.631
23171WAT     H269756   0.075   4.796   1.619
23172WAT      O69757   3.051   4.602   3.718
23172WAT     H169758   3.021   4.532   3.654
23172WAT     H269759   3.149   4.619   3.706
23173WAT      O69760   8.976   6.196   7.459
23173WAT     H169761   8.942   6.103   7.471
23173WAT     H269762   8.939   6.235   7.374
23174WAT      O69763   6.655   5.006   5.766
23174WAT     H169764   6.678   5.047   5.677
23174WAT     H269765   6.561   5.029   5.789
23175WAT      O69766   1.696   0.052   5.047
23175WAT     H169767   1.634   0.001   4.986
23175WAT     H269768   1.723   0.138   5.003
23176WAT      O69769   5.843   7.499   6.886
23176WAT     H169770   5.882   7.590   6.901
23176WAT     H269771   5.797   7.497   6.797
23177WAT      O69772   6.075   0.178   9.854
23177WAT     H169773   5.992   0.229   9.831
23177WAT     H269774   6.072   0.149   9.949
23178WAT      O69775   9.530   8.782   3.282
23178WAT     H169776   9.455   8.719   3.265
23178WAT     H269777   9.552   8.832   3.198
23179WAT      O69778   6.945   9.160   8.665
23179WAT     H169779   7.033   9.161   8.712
23179WAT     H269780   6.952   9.212   8.581
23180WAT      O69781   4.343   4.848   8.615
23180WAT     H169782   4.311   4.927   8.562
23180WAT     H269783   4.264   4.793   8.642
23181WAT      O69784   7.630   5.208   6.544
23181WAT     H169785   7.553   5.200   6.607
23181WAT     H269786   7.713   5.173   6.588
23182WAT      O69787   0.475   6.059   0.877
23182WAT     H169788   0.443   5.993   0.944
23182WAT     H269789   0.409   6.134   0.869
23183WAT      O69790   9.152   1.567   8.240
23183WAT     H169791   9.153   1.477   8.283
23183WAT     H269792   9.246   1.596   8.221
23184WAT      O69793   0.317   9.200   5.034
23184WAT     H169794   0.228   9.226   5.071
23184WAT     H269795   0.346   9.267   4.966
23185WAT      O69796   0.688   9.192   9.113
23185WAT     H169797   0.752   9.256   9.070
23185WAT     H269798   0.694   9.103   9.068
23186WAT      O69799   6.463   2.037   2.528
23186WAT     H169800   6.505   2.103   2.591
23186WAT     H269801   6.364   2.048   2.531
23187WAT      O69802   2.951   6.763   8.225
23187WAT     H169803   3.017   6.831   8.258
23187WAT     H269804   2.873   6.810   8.184
23188WAT      O69805   0.625   7.451   8.120
23188WAT     H169806   0.624   7.528   8.184
23188WAT     H269807   0.604   7.483   8.028
23189WAT      O69808   3.866   2.374   6.996
23189WAT     H169809   3.913   2.440   6.939
23189WAT     H269810   3.925   2.294   7.011
23190WAT      O69811   3.125   1.545   2.710
23190WAT     H169812   3.190   1.507   2.776
23190WAT     H269813   3.171   1.615   2.655
23191WAT      O69814   6.468   7.129   7.206
23191WAT     H169815   6.415   7.209   7.180
23191WAT     H269816   6.407   7.051   7.218
23192WAT      O69817   6.308   5.371   2.006
23192WAT     H169818   6.279   5.445   1.945
23192WAT     H269819   6.408   5.367   2.007
23193WAT      O69820   2.156   3.349   2.142
23193WAT     H169821   2.216   3.298   2.079
23193WAT     H269822   2.180   3.325   2.237
23194WAT      O69823   9.437   8.110   9.321
23194WAT     H169824   9.511   8.055   9.361
23194WAT     H269825   9.349   8.070   9.347
23195WAT      O69826   8.058   7.850   9.225
23195WAT     H169827   7.981   7.904   9.258
23195WAT     H269828   8.119   7.909   9.171
23196WAT      O69829   0.920   4.177   0.558
23196WAT     H169830   0.825   4.174   0.590
23196WAT     H269831   0.922   4.215   0.466
23197WAT      O69832   8.492   9.317   6.698
23197WAT     H169833   8.537   9.276   6.778
23197WAT     H269834   8.540   9.401   6.672
23198WAT      O69835   3.904   3.657   3.323
23198WAT     H169836   3.828   3.713   3.353
23198WAT     H269837   3.959   3.630   3.402
23199WAT      O69838   4.986   0.422   7.674
23199WAT     H169839   5.071   0.431   7.726
23199WAT     H269840   4.980   0.497   7.608
23200WAT      O69841   9.412   4.273   2.882
23200WAT     H169842   9.356   4.330   2.821
23200WAT     H269843   9.419   4.317   2.972
23201WAT      O69844   2.316   3.395   7.801
23201WAT     H169845   2.344   3.300   7.785
23201WAT     H269846   2.372   3.435   7.873
23202WAT      O69847   7.338   2.051   9.834
23202WAT     H169848   7.364   1.978   9.772
23202WAT     H269849   7.421   2.090   9.876
23203WAT      O69850   8.653   5.728   2.679
23203WAT     H169851   8.601   5.810   2.705
23203WAT     H269852   8.737   5.756   2.632
23204WAT      O69853   1.837   4.293   9.733
23204WAT     H169854   1.744   4.317   9.761
23204WAT     H269855   1.893   4.376   9.730
23205WAT      O69856   7.875   9.835   2.723
23205WAT     H169857   7.914   9.836   2.815
23205WAT     H269858   7.776   9.822   2.729
23206WAT      O69859   7.279   7.068   4.544
23206WAT     H169860   7.186   7.086   4.513
23206WAT     H269861   7.303   7.131   4.618
23207WAT      O69862   0.948   8.609   4.578
23207WAT     H169863   0.887   8.615   4.657
23207WAT     H269864   1.007   8.690   4.575
23208WAT      O69865   1.659   3.568   0.718
23208WAT     H169866   1.670   3.505   0.795
23208WAT     H269867   1.715   3.537   0.641
23209WAT      O69868   4.412   9.141   7.810
23209WAT     H169869   4.489   9.083   7.782
23209WAT     H269870   4.428   9.176   7.902
23210WAT      O69871   9.493   2.994   2.280
23210WAT     H169872   9.413   2.938   2.300
23210WAT     H269873   9.575   2.947   2.313
23211WAT      O69874   2.956   6.271   4.514
23211WAT     H169875   2.881   6.244   4.576
23211WAT     H269876   3.010   6.190   4.491
23212WAT      O69877   0.718   8.980   9.824
23212WAT     H169878   0.789   9.041   9.859
23212WAT     H269879   0.749   8.885   9.831
23213WAT      O69880   2.402   0.044   0.211
23213WAT     H169881   2.472   0.031   0.141
23213WAT     H269882   2.344   0.122   0.187
23214WAT      O69883   7.490   8.434   3.403
23214WAT     H169884   7.563   8.367   3.391
23214WAT     H269885   7.516   8.521   3.361
23215WAT      O69886   9.703   5.939   1.338
23215WAT     H169887   9.698   5.932   1.438
23215WAT     H269888   9.623   5.895   1.298
23216WAT      O69889   4.005   6.081   0.002
23216WAT     H169890   4.079   6.079  -0.065
23216WAT     H269891   3.992   5.990   0.041
23217WAT      O69892   0.927   3.560   8.353
23217WAT     H169893   0.955   3.471   8.390
23217WAT     H269894   0.858   3.601   8.412
23218WAT      O69895   8.583   3.305   0.706
23218WAT     H169896   8.613   3.344   0.793
23218WAT     H269897   8.515   3.366   0.664
23219WAT      O69898   0.805   4.301   9.185
23219WAT     H169899   0.706   4.309   9.202
23219WAT     H269900   0.852   4.284   9.271
23220WAT      O69901   2.030   1.709   5.503
23220WAT     H169902   1.978   1.676   5.425
23220WAT     H269903   2.093   1.637   5.534
23221WAT      O69904   2.013   5.761   1.009
23221WAT     H169905   1.945   5.705   1.058
23221WAT     H269906   1.967   5.832   0.958
23222WAT      O69907   3.968   1.235   2.418
23222WAT     H169908   3.946   1.159   2.357
23222WAT     H269909   3.895   1.303   2.416
23223WAT      O69910   0.750   2.231   3.272
23223WAT     H169911   0.790   2.323   3.280
23223WAT     H269912   0.771   2.194   3.182
23224WAT      O69913   4.158   1.700   8.097
23224WAT     H169914   4.122   1.626   8.153
23224WAT     H269915   4.238   1.741   8.142
23225WAT      O69916   4.269   6.835   1.933
23225WAT     H169917   4.298   6.785   2.015
23225WAT     H269918   4.328   6.914   1.920
23226WAT      O69919   2.567   8.692   3.938
23226WAT     H169920   2.627   8.650   3.870
23226WAT     H269921   2.484   8.637   3.948
23227WAT      O69922   2.344   6.081   7.604
23227WAT     H169923   2.317   6.152   7.538
23227WAT     H269924   2.337   5.991   7.561
23228WAT      O69925   6.938   5.008   9.404
23228WAT     H169926   6.875   4.948   9.355
23228WAT     H269927   6.897   5.033   9.492
23229WAT      O69928   8.216   8.684   1.690
23229WAT     H169929   8.278   8.615   1.652
23229WAT     H269930   8.181   8.652   1.778
23230WAT      O69931   2.648   9.738   3.427
23230WAT     H169932   2.566   9.683   3.445
23230WAT     H269933   2.695   9.701   3.347
23231WAT      O69934   9.765   8.647   9.085
23231WAT     H169935   9.778   8.721   9.151
23231WAT     H269936   9.775   8.559   9.132
23232WAT      O69937   1.884   4.643   6.604
23232WAT     H169938   1.924   4.610   6.518
23232WAT     H269939   1.905   4.578   6.677
23233WAT      O69940   5.115   0.867   0.214
23233WAT     H169941   5.042   0.876   0.282
23233WAT     H269942   5.075   0.848   0.124
23234WAT      O69943   2.290   4.383   4.410
23234WAT     H169944   2.331   4.473   4.394
23234WAT     H269945   2.191   4.393   4.422
23235WAT      O69946   6.261   8.888   7.139
23235WAT     H169947   6.198   8.819   7.177
23235WAT     H269948   6.221   8.927   7.056
23236WAT      O69949   1.366   3.140   8.527
23236WAT     H169950   1.380   3.236   8.500
23236WAT     H269951   1.429   3.082   8.476
23237WAT      O69952   4.205   3.905   9.631
23237WAT     H169953   4.238   3.934   9.541
23237WAT     H269954   4.283   3.894   9.693
23238WAT      O69955   8.927   5.274   4.252
23238WAT     H169956   8.857   5.233   4.311
23238WAT     H269957   9.017   5.242   4.281
23239WAT      O69958   2.545   6.153   5.489
23239WAT     H169959   2.562   6.108   5.577
23239WAT     H269960   2.447   6.162   5.475
23240WAT      O69961   0.610   3.130   4.559
23240WAT     H169962   0.549   3.199   4.519
23240WAT     H269963   0.562   3.081   4.632
23241WAT      O69964   6.118   3.979   1.171
23241WAT     H169965   6.113   3.980   1.071
23241WAT     H269966   6.211   4.002   1.200
23242WAT      O69967   8.813   5.748   4.644
23242WAT     H169968   8.879   5.675   4.625
23242WAT     H269969   8.722   5.708   4.655
23243WAT      O69970   9.076   0.464   0.956
23243WAT     H169971   9.030   0.529   1.017
23243WAT     H269972   9.014   0.389   0.933
23244WAT      O69973   3.420   4.527   3.077
23244WAT     H169974   3.472   4.606   3.108
23244WAT     H269975   3.373   4.485   3.155
23245WAT      O69976   7.534   6.528   6.169
23245WAT     H169977   7.523   6.472   6.251
23245WAT     H269978   7.473   6.495   6.097
23246WAT      O69979   8.036   6.742   3.103
23246WAT     H169980   8.041   6.803   3.182
23246WAT     H269981   8.124   6.740   3.057
23247WAT      O69982   2.345   2.797   1.283
23247WAT     H169983   2.361   2.730   1.210
23247WAT     H269984   2.252   2.831   1.276
23248WAT      O69985   5.584   8.065   4.900
23248WAT     H169986   5.615   8.158   4.880
23248WAT     H269987   5.655   8.017   4.952
23249WAT      O69988   7.364   8.713   8.630
23249WAT     H169989   7.377   8.784   8.560
23249WAT     H269990   7.375   8.623   8.589
23250WAT      O69991   3.460   6.773   9.253
23250WAT     H169992   3.422   6.863   9.276
23250WAT     H269993   3.423   6.704   9.315
23251WAT      O69994   7.871   7.521   4.615
23251WAT     H169995   7.852   7.529   4.713
23251WAT     H269996   7.959   7.474   4.602
23252WAT      O69997   3.800   5.943   0.290
23252WAT     H169998   3.852   5.891   0.222
23252WAT     H269999   3.768   6.029   0.250
23253WAT      O70000   5.001   6.376   6.966
23253WAT     H170001   5.069   6.449   6.965
23253WAT     H270002   4.910   6.416   6.975
23254WAT      O70003   5.608   3.754   1.877
23254WAT     H170004   5.600   3.792   1.785
23254WAT     H270005   5.517   3.745   1.917
23255WAT      O70006   7.257   8.372   5.977
23255WAT     H170007   7.331   8.339   5.918
23255WAT     H270008   7.266   8.471   5.990
23256WAT      O70009   5.821   6.130   4.220
23256WAT     H170010   5.812   6.114   4.121
23256WAT     H270011   5.911   6.169   4.239
23257WAT      O70012   0.745   3.207   1.790
23257WAT     H170013   0.683   3.279   1.821
23257WAT     H270014   0.692   3.125   1.767
23258WAT      O70015   2.144   9.315   3.668
23258WAT     H170016   2.232   9.297   3.713
23258WAT     H270017   2.151   9.290   3.571
23259WAT      O70018   3.113   8.721   9.582
23259WAT     H170019   3.212   8.712   9.567
23259WAT     H270020   3.096   8.794   9.648
23260WAT      O70021   0.021   0.883   8.371
23260WAT     H170022  -0.042   0.858   8.298
23260WAT     H270023   0.022   0.982   8.383
23261WAT      O70024   3.182   6.180   2.466
23261WAT     H170025   3.105   6.221   2.515
23261WAT     H270026   3.187   6.218   2.374
23262WAT      O70027   6.485   2.179   1.589
23262WAT     H170028   6.501   2.150   1.683
23262WAT     H270029   6.546   2.128   1.528
23263WAT      O70030   9.251   1.862   7.645
23263WAT     H170031   9.210   1.953   7.651
23263WAT     H270032   9.299   1.841   7.730
23264WAT      O70033   8.576   4.263   8.787
23264WAT     H170034   8.491   4.217   8.761
23264WAT     H270035   8.556   4.332   8.856
23265WAT      O70036   3.388   9.506   6.555
23265WAT     H170037   3.450   9.585   6.556
23265WAT     H270038   3.295   9.537   6.572
23266WAT      O70039   3.495   7.741   0.625
23266WAT     H170040   3.530   7.668   0.684
23266WAT     H270041   3.395   7.737   0.623
23267WAT      O70042   0.338   4.167   2.621
23267WAT     H170043   0.315   4.093   2.685
23267WAT     H270044   0.436   4.182   2.623
23268WAT      O70045   1.281   5.988   7.874
23268WAT     H170046   1.337   6.007   7.954
23268WAT     H270047   1.335   5.938   7.806
23269WAT      O70048   9.240   8.703   1.086
23269WAT     H170049   9.332   8.741   1.100
23269WAT     H270050   9.201   8.741   1.002
23270WAT      O70051   9.807   7.109   1.014
23270WAT     H170052   9.777   7.198   0.982
23270WAT     H270053   9.815   7.109   1.113
23271WAT      O70054   3.070   7.250   4.631
23271WAT     H170055   3.126   7.315   4.683
23271WAT     H270056   3.128   7.174   4.599
23272WAT      O70057   1.267   1.698   3.068
23272WAT     H170058   1.362   1.685   3.095
23272WAT     H270059   1.257   1.786   3.021
23273WAT      O70060   8.916   6.064   0.928
23273WAT     H170061   8.857   6.060   0.846
23273WAT     H270062   8.950   6.157   0.939
23274WAT      O70063   2.761   4.586   1.156
23274WAT     H170064   2.683   4.648   1.169
23274WAT     H270065   2.837   4.637   1.116
23275WAT      O70066   1.955   6.753   3.570
23275WAT     H170067   1.905   6.812   3.633
23275WAT     H270068   2.032   6.710   3.618
23276WAT      O70069   4.303   4.548   7.578
23276WAT     H170070   4.314   4.459   7.535
23276WAT     H270071   4.371   4.612   7.541
23277WAT      O70072   3.935   1.236   2.057
23277WAT     H170073   4.029   1.204   2.063
23277WAT     H270074   3.881   1.198   2.132
23278WAT      O70075   8.354   3.289   2.246
23278WAT     H170076   8.263   3.311   2.282
23278WAT     H270077   8.418   3.278   2.322
23279WAT      O70078   4.865   3.786   9.587
23279WAT     H170079   4.782   3.809   9.537
23279WAT     H270080   4.869   3.837   9.672
23280WAT      O70081   6.578   4.699   5.733
23280WAT     H170082   6.656   4.744   5.690
23280WAT     H270083   6.550   4.620   5.679
23281WAT      O70084   9.502   0.956   7.851
23281WAT     H170085   9.404   0.940   7.863
23281WAT     H270086   9.532   1.028   7.915
23282WAT      O70087   8.121   5.188   1.703
23282WAT     H170088   8.212   5.228   1.708
23282WAT     H270089   8.118   5.120   1.630
23283WAT      O70090   2.615   8.063   6.173
23283WAT     H170091   2.552   8.004   6.124
23283WAT     H270092   2.688   8.009   6.214
23284WAT      O70093   1.223   5.398   3.972
23284WAT     H170094   1.156   5.453   4.023
23284WAT     H270095   1.210   5.301   3.993
23285WAT      O70096   8.164   6.117   3.734
23285WAT     H170097   8.164   6.147   3.829
23285WAT     H270098   8.143   6.195   3.675
23286WAT      O70099   4.675   3.650   7.345
23286WAT     H170100   4.701   3.676   7.438
23286WAT     H270101   4.575   3.656   7.335
23287WAT      O70102   2.326   0.473   9.229
23287WAT     H170103   2.277   0.422   9.158
23287WAT     H270104   2.295   0.442   9.319
23288WAT      O70105   5.222   2.778   0.408
23288WAT     H170106   5.163   2.808   0.334
23288WAT     H270107   5.167   2.754   0.488
23289WAT      O70108   1.216   7.848   9.090
23289WAT     H170109   1.177   7.838   8.998
23289WAT     H270110   1.191   7.769   9.146
23290WAT      O70111   9.356   8.812   9.037
23290WAT     H170112   9.307   8.873   9.100
23290WAT     H270113   9.444   8.852   9.014
23291WAT      O70114   1.264   3.425   4.668
23291WAT     H170115   1.233   3.462   4.755
23291WAT     H270116   1.208   3.346   4.643
23292WAT      O70117   8.735   5.642   3.765
23292WAT     H170118   8.673   5.719   3.752
23292WAT     H270119   8.684   5.563   3.799
23293WAT      O70120   5.187   5.844   6.210
23293WAT     H170121   5.116   5.778   6.186
23293WAT     H270122   5.172   5.877   6.303
23294WAT      O70123   4.112   9.736   2.509
23294WAT     H170124   4.045   9.795   2.554
23294WAT     H270125   4.199   9.740   2.558
23295WAT      O70126   2.441   2.753   3.016
23295WAT     H170127   2.496   2.771   2.934
23295WAT     H270128   2.463   2.662   3.052
23296WAT      O70129   5.212   7.979   5.869
23296WAT     H170130   5.249   8.066   5.836
23296WAT     H270131   5.114   7.976   5.852
23297WAT      O70132   6.376   8.240   9.746
23297WAT     H170133   6.317   8.237   9.665
23297WAT     H270134   6.471   8.253   9.718
23298WAT      O70135   7.235   5.527   8.678
23298WAT     H170136   7.316   5.469   8.670
23298WAT     H270137   7.166   5.480   8.733
23299WAT      O70138   1.852   0.146   3.866
23299WAT     H170139   1.877   0.052   3.890
23299WAT     H270140   1.930   0.207   3.881
23300WAT      O70141   6.888   0.617   5.292
23300WAT     H170142   6.977   0.571   5.281
23300WAT     H270143   6.815   0.556   5.263
23301WAT      O70144   5.998   8.085   1.453
23301WAT     H170145   5.982   8.078   1.552
23301WAT     H270146   6.055   8.165   1.435
23302WAT      O70147   5.118   3.687   6.442
23302WAT     H170148   5.101   3.665   6.538
23302WAT     H270149   5.213   3.670   6.420
23303WAT      O70150   7.185   3.238   5.916
23303WAT     H170151   7.235   3.181   5.982
23303WAT     H270152   7.175   3.330   5.954
23304WAT      O70153   2.129   3.248   9.374
23304WAT     H170154   2.211   3.283   9.418
23304WAT     H270155   2.152   3.168   9.318
23305WAT      O70156   6.950   5.606   6.045
23305WAT     H170157   6.996   5.626   6.132
23305WAT     H270158   7.008   5.545   5.990
23306WAT      O70159   8.336   9.537   3.092
23306WAT     H170160   8.250   9.555   3.139
23306WAT     H270161   8.399   9.490   3.154
23307WAT      O70162   8.954   2.637   7.566
23307WAT     H170163   8.858   2.658   7.581
23307WAT     H270164   8.987   2.687   7.485
23308WAT      O70165   5.152   8.181   0.168
23308WAT     H170166   5.250   8.199   0.179
23308WAT     H270167   5.126   8.100   0.221
23309WAT      O70168   0.767   5.712   8.155
23309WAT     H170169   0.824   5.641   8.199
23309WAT     H270170   0.714   5.759   8.225
23310WAT      O70171   3.420   4.672   0.679
23310WAT     H170172   3.429   4.665   0.580
23310WAT     H270173   3.394   4.765   0.704
23311WAT      O70174   5.882   0.345   3.632
23311WAT     H170175   5.835   0.429   3.603
23311WAT     H270176   5.969   0.370   3.676
23312WAT      O70177   4.732   4.375   8.065
23312WAT     H170178   4.728   4.393   7.967
23312WAT     H270179   4.828   4.362   8.092
23313WAT      O70180   9.498   5.836   4.694
23313WAT     H170181   9.460   5.800   4.778
23313WAT     H270182   9.537   5.762   4.640
23314WAT      O70183   3.932   4.410   5.439
23314WAT     H170184   3.995   4.382   5.511
23314WAT     H270185   3.919   4.509   5.442
23315WAT      O70186   7.490   9.508   5.979
23315WAT     H170187   7.583   9.544   5.989
23315WAT     H270188   7.495   9.410   5.961
23316WAT      O70189   5.211   5.727   7.309
23316WAT     H170190   5.253   5.681   7.231
23316WAT     H270191   5.133   5.674   7.341
23317WAT      O70192   4.896   4.011   2.415
23317WAT     H170193   4.979   4.068   2.412
23317WAT     H270194   4.870   3.986   2.322
23318WAT      O70195   8.035   1.836   4.468
23318WAT     H170196   8.112   1.772   4.466
23318WAT     H270197   8.025   1.872   4.561
23319WAT      O70198   9.569   0.802   3.120
23319WAT     H170199   9.571   0.777   3.217
23319WAT     H270200   9.604   0.895   3.109
23320WAT      O70201   5.094   5.404   4.690
23320WAT     H170202   5.189   5.376   4.694
23320WAT     H270203   5.040   5.333   4.645
23321WAT      O70204   8.669   1.794   8.994
23321WAT     H170205   8.579   1.787   8.950
23321WAT     H270206   8.740   1.804   8.924
23322WAT      O70207   2.276   8.445   9.561
23322WAT     H170208   2.192   8.393   9.574
23322WAT     H270209   2.310   8.477   9.649
23323WAT      O70210   8.034   2.084   4.729
23323WAT     H170211   8.043   2.041   4.820
23323WAT     H270212   7.944   2.063   4.692
23324WAT      O70213   4.225   6.380   4.597
23324WAT     H170214   4.296   6.450   4.602
23324WAT     H270215   4.219   6.332   4.685
23325WAT      O70216   5.091   8.056   9.242
23325WAT     H170217   5.037   8.093   9.317
23325WAT     H270218   5.188   8.059   9.265
23326WAT      O70219   0.557   2.112   9.512
23326WAT     H170220   0.608   2.144   9.433
23326WAT     H270221   0.619   2.061   9.573
23327WAT      O70222   1.945   6.968   5.046
23327WAT     H170223   2.010   6.894   5.063
23327WAT     H270224   1.866   6.932   4.995
23328WAT      O70225   1.725   3.679   1.955
23328WAT     H170226   1.791   3.614   1.918
23328WAT     H270227   1.683   3.730   1.880
23329WAT      O70228   4.367   7.009   7.908
23329WAT     H170229   4.413   6.966   7.985
23329WAT     H270230   4.434   7.054   7.849
23330WAT      O70231   0.468   4.024   0.401
23330WAT     H170232   0.552   4.047   0.450
23330WAT     H270233   0.432   3.938   0.435
23331WAT      O70234   4.500   6.149   0.738
23331WAT     H170235   4.587   6.148   0.788
23331WAT     H270236   4.516   6.119   0.644
23332WAT      O70237   2.544   6.117   0.307
23332WAT     H170238   2.463   6.106   0.249
23332WAT     H270239   2.515   6.155   0.395
23333WAT      O70240   2.130   4.513   9.205
23333WAT     H170241   2.209   4.547   9.257
23333WAT     H270242   2.067   4.466   9.268
23334WAT      O70243   0.509   4.779   8.556
23334WAT     H170244   0.553   4.809   8.471
23334WAT     H270245   0.558   4.699   8.593
23335WAT      O70246   1.320   3.350   6.688
23335WAT     H170247   1.230   3.358   6.646
23335WAT     H270248   1.310   3.319   6.783
23336WAT      O70249   1.829   2.145   2.012
23336WAT     H170250   1.906   2.117   2.070
23336WAT     H270251   1.782   2.223   2.054
23337WAT      O70252   2.761   0.085   0.302
23337WAT     H170253   2.708   0.127   0.228
23337WAT     H270254   2.702   0.026   0.357
23338WAT      O70255   8.383   8.257   6.429
23338WAT     H170256   8.333   8.210   6.502
23338WAT     H270257   8.420   8.343   6.464
23339WAT      O70258   1.796   1.719   6.766
23339WAT     H170259   1.877   1.667   6.793
23339WAT     H270260   1.819   1.816   6.758
23340WAT      O70261   2.438   0.455   4.427
23340WAT     H170262   2.463   0.481   4.520
23340WAT     H270263   2.397   0.364   4.428
23341WAT      O70264   7.571   3.477   1.805
23341WAT     H170265   7.625   3.400   1.841
23341WAT     H270266   7.631   3.556   1.794
23342WAT      O70267   6.640   3.358   1.305
23342WAT     H170268   6.726   3.409   1.309
23342WAT     H270269   6.659   3.262   1.286
23343WAT      O70270   3.666   7.309   7.037
23343WAT     H170271   3.744   7.257   7.074
23343WAT     H270272   3.660   7.295   6.939
23344WAT      O70273   1.824   6.080   0.503
23344WAT     H170274   1.731   6.068   0.539
23344WAT     H270275   1.865   5.990   0.488
23345WAT      O70276   6.656   5.868   8.562
23345WAT     H170277   6.646   5.891   8.465
23345WAT     H270278   6.611   5.937   8.618
23346WAT      O70279   7.954   1.297   6.049
23346WAT     H170280   8.010   1.342   6.119
23346WAT     H270281   7.906   1.366   5.995
23347WAT      O70282   0.979   7.979   1.326
23347WAT     H170283   0.950   7.951   1.234
23347WAT     H270284   1.025   8.067   1.321
23348WAT      O70285   7.155   9.565   7.235
23348WAT     H170286   7.163   9.493   7.166
23348WAT     H270287   7.182   9.528   7.324
23349WAT      O70288   2.798   7.059   0.551
23349WAT     H170289   2.834   6.972   0.520
23349WAT     H270290   2.705   7.071   0.517
23350WAT      O70291   4.570   8.558   4.696
23350WAT     H170292   4.610   8.567   4.787
23350WAT     H270293   4.509   8.480   4.693
23351WAT      O70294   4.795   2.519   2.082
23351WAT     H170295   4.866   2.589   2.083
23351WAT     H270296   4.815   2.452   2.012
23352WAT      O70297   4.934   1.323   7.155
23352WAT     H170298   4.878   1.243   7.132
23352WAT     H270299   4.942   1.330   7.255
23353WAT      O70300   1.738   2.083   3.597
23353WAT     H170301   1.686   2.168   3.606
23353WAT     H270302   1.681   2.014   3.553
23354WAT      O70303   1.470   0.992   6.589
23354WAT     H170304   1.420   1.069   6.550
23354WAT     H270305   1.568   1.010   6.583
23355WAT      O70306   5.774   4.893   7.017
23355WAT     H170307   5.693   4.951   7.020
23355WAT     H270308   5.770   4.834   6.936
23356WAT      O70309   2.919   2.276   6.972
23356WAT     H170310   2.883   2.335   7.044
23356WAT     H270311   2.852   2.268   6.899
23357WAT      O70312   1.039   8.110   0.569
23357WAT     H170313   0.969   8.112   0.640
23357WAT     H270314   1.076   8.017   0.562
23358WAT      O70315   4.117   0.321   8.147
23358WAT     H170316   4.186   0.248   8.151
23358WAT     H270317   4.158   0.403   8.107
23359WAT      O70318   4.973   4.548   3.759
23359WAT     H170319   4.918   4.494   3.822
23359WAT     H270320   4.952   4.645   3.770
23360WAT      O70321   8.869   0.522   4.649
23360WAT     H170322   8.849   0.517   4.747
23360WAT     H270323   8.855   0.616   4.617
23361WAT      O70324   7.059   2.923   0.076
23361WAT     H170325   7.016   2.834   0.059
23361WAT     H270326   7.055   2.943   0.174
23362WAT      O70327   1.307   9.790   7.097
23362WAT     H170328   1.259   9.715   7.142
23362WAT     H270329   1.323   9.864   7.163
23363WAT      O70330   5.471   0.690   0.436
23363WAT     H170331   5.442   0.694   0.341
23363WAT     H270332   5.457   0.598   0.472
23364WAT      O70333   4.864   6.687   2.180
23364WAT     H170334   4.916   6.658   2.261
23364WAT     H270335   4.789   6.622   2.165
23365WAT      O70336   2.087   7.048   7.762
23365WAT     H170337   1.999   7.019   7.798
23365WAT     H270338   2.160   7.012   7.820
23366WAT      O70339   0.776   6.941   7.839
23366WAT     H170340   0.746   6.851   7.870
23366WAT     H270341   0.736   7.011   7.899
23367WAT      O70342   4.564   3.815   9.816
23367WAT     H170343   4.618   3.827   9.899
23367WAT     H270344   4.525   3.723   9.814
23368WAT      O70345   9.591   5.508   2.679
23368WAT     H170346   9.571   5.436   2.746
23368WAT     H270347   9.668   5.563   2.712
23369WAT      O70348   2.423   3.986   3.056
23369WAT     H170349   2.345   4.045   3.075
23369WAT     H270350   2.391   3.895   3.030
23370WAT      O70351   2.808   1.823   0.025
23370WAT     H170352   2.751   1.748   0.060
23370WAT     H270353   2.791   1.836  -0.072
23371WAT      O70354   6.928   0.165   9.340
23371WAT     H170355   6.850   0.121   9.295
23371WAT     H270356   7.006   0.102   9.339
23372WAT      O70357   2.520   3.055   9.462
23372WAT     H170358   2.550   2.995   9.536
23372WAT     H270359   2.590   3.058   9.391
23373WAT      O70360   2.425   6.271   0.535
23373WAT     H170361   2.471   6.239   0.619
23373WAT     H270362   2.480   6.343   0.493
23374WAT      O70363   2.073   3.236   5.437
23374WAT     H170364   1.991   3.250   5.381
23374WAT     H270365   2.094   3.138   5.442
23375WAT      O70366   1.328   4.343   7.529
23375WAT     H170367   1.368   4.397   7.603
23375WAT     H270368   1.236   4.377   7.509
23376WAT      O70369   6.521   6.775   7.840
23376WAT     H170370   6.552   6.779   7.745
23376WAT     H270371   6.439   6.717   7.846
23377WAT      O70372   2.481   2.157   0.701
23377WAT     H170373   2.391   2.133   0.737
23377WAT     H270374   2.504   2.096   0.626
23378WAT      O70375   5.229   1.066   0.952
23378WAT     H170376   5.285   1.013   1.015
23378WAT     H270377   5.191   1.145   1.000
23379WAT      O70378   7.527   2.030   8.767
23379WAT     H170379   7.507   2.004   8.672
23379WAT     H270380   7.477   1.970   8.829
23380WAT      O70381   3.964   7.255   7.684
23380WAT     H170382   3.978   7.339   7.736
23380WAT     H270383   4.015   7.180   7.727
23381WAT      O70384   2.147   2.742   2.010
23381WAT     H170385   2.184   2.826   2.049
23381WAT     H270386   2.152   2.668   2.077
23382WAT      O70387   6.231   5.098   5.452
23382WAT     H170388   6.323   5.061   5.438
23382WAT     H270389   6.173   5.077   5.374
23383WAT      O70390   1.266   4.483   4.226
23383WAT     H170391   1.262   4.563   4.167
23383WAT     H270392   1.348   4.488   4.283
23384WAT      O70393   1.828   8.493   2.159
23384WAT     H170394   1.756   8.427   2.177
23384WAT     H270395   1.881   8.463   2.079
23385WAT      O70396   3.305   1.172   0.754
23385WAT     H170397   3.367   1.231   0.702
23385WAT     H270398   3.215   1.173   0.710
23386WAT      O70399   9.681   3.623   2.704
23386WAT     H170400   9.681   3.561   2.782
23386WAT     H270401   9.610   3.693   2.717
23387WAT      O70402   2.773   8.645   5.870
23387WAT     H170403   2.758   8.719   5.935
23387WAT     H270404   2.867   8.611   5.879
23388WAT      O70405   3.071   3.725   0.958
23388WAT     H170406   2.994   3.781   0.927
23388WAT     H270407   3.078   3.644   0.900
23389WAT      O70408   5.863   7.092   2.087
23389WAT     H170409   5.819   7.030   2.022
23389WAT     H270410   5.959   7.105   2.062
23390WAT      O70411   3.198   2.409   7.722
23390WAT     H170412   3.271   2.340   7.724
23390WAT     H270413   3.137   2.391   7.645
23391WAT      O70414   4.288   7.033   2.658
23391WAT     H170415   4.260   7.007   2.750
23391WAT     H270416   4.357   6.968   2.624
23392WAT      O70417   2.995   2.530   8.308
23392WAT     H170418   2.943   2.484   8.379
23392WAT     H270419   2.997   2.473   8.225
23393WAT      O70420   1.197   6.282   6.961
23393WAT     H170421   1.286   6.296   7.003
23393WAT     H270422   1.126   6.282   7.032
23394WAT      O70423   8.829   8.166   1.302
23394WAT     H170424   8.847   8.071   1.327
23394WAT     H270425   8.876   8.187   1.216
23395WAT      O70426   6.621   5.845   3.369
23395WAT     H170427   6.699   5.897   3.335
23395WAT     H270428   6.536   5.885   3.335
23396WAT      O70429   2.789   0.824   9.007
23396WAT     H170430   2.728   0.752   8.973
23396WAT     H270431   2.773   0.908   8.955
23397WAT      O70432   1.836   1.427   7.386
23397WAT     H170433   1.752   1.452   7.337
23397WAT     H270434   1.915   1.442   7.326
23398WAT      O70435   4.250   5.499   5.794
23398WAT     H170436   4.193   5.455   5.725
23398WAT     H270437   4.221   5.594   5.805
23399WAT      O70438   6.784   4.280   7.538
23399WAT     H170439   6.765   4.294   7.440
23399WAT     H270440   6.864   4.333   7.564
23400WAT      O70441   5.452   1.155   1.669
23400WAT     H170442   5.527   1.199   1.718
23400WAT     H270443   5.435   1.203   1.583
23401WAT      O70444   4.203   8.918   0.986
23401WAT     H170445   4.156   8.985   0.928
23401WAT     H270446   4.135   8.861   1.033
23402WAT      O70447   2.276   4.883   8.497
23402WAT     H170448   2.199   4.866   8.436
23402WAT     H270449   2.345   4.812   8.486
23403WAT      O70450   3.813   4.661   5.509
23403WAT     H170451   3.780   4.690   5.598
23403WAT     H270452   3.738   4.662   5.443
23404WAT      O70453   3.026   5.731   2.127
23404WAT     H170454   2.965   5.793   2.077
23404WAT     H270455   3.116   5.775   2.139
23405WAT      O70456   5.638   1.041   0.574
23405WAT     H170457   5.573   1.047   0.649
23405WAT     H270458   5.677   1.131   0.556
23406WAT      O70459   4.639   5.052   7.496
23406WAT     H170460   4.599   4.969   7.457
23406WAT     H270461   4.631   5.048   7.596
23407WAT      O70462   1.529   4.895   1.274
23407WAT     H170463   1.537   4.995   1.273
23407WAT     H270464   1.456   4.869   1.337
23408WAT      O70465   0.235   9.309   0.653
23408WAT     H170466   0.188   9.288   0.739
23408WAT     H270467   0.195   9.391   0.612
23409WAT      O70468   7.672   0.533   3.181
23409WAT     H170469   7.752   0.511   3.237
23409WAT     H270470   7.698   0.539   3.085
23410WAT      O70471   6.572   9.677   7.925
23410WAT     H170472   6.576   9.777   7.935
23410WAT     H270473   6.478   9.646   7.936
23411WAT      O70474   7.989   5.882   5.545
23411WAT     H170475   7.917   5.864   5.612
23411WAT     H270476   7.955   5.859   5.454
23412WAT      O70477   3.378   2.257   2.338
23412WAT     H170478   3.446   2.217   2.276
23412WAT     H270479   3.291   2.268   2.290
23413WAT      O70480   5.800   6.562   8.430
23413WAT     H170481   5.728   6.629   8.414
23413WAT     H270482   5.785   6.516   8.517
23414WAT      O70483   1.236   3.481   2.763
23414WAT     H170484   1.310   3.435   2.812
23414WAT     H270485   1.150   3.433   2.781
23415WAT      O70486   9.733   8.256   1.012
23415WAT     H170487   9.798   8.302   0.951
23415WAT     H270488   9.641   8.290   0.993
23416WAT      O70489   6.986   3.160   1.838
23416WAT     H170490   6.968   3.151   1.936
23416WAT     H270491   6.991   3.256   1.814
23417WAT      O70492   4.690   1.439   5.217
23417WAT     H170493   4.789   1.453   5.227
23417WAT     H270494   4.673   1.343   5.195
23418WAT      O70495   5.383   7.432   8.222
23418WAT     H170496   5.379   7.484   8.307
23418WAT     H270497   5.359   7.336   8.240
23419WAT      O70498   7.189   8.716   5.548
23419WAT     H170499   7.158   8.811   5.544
23419WAT     H270500   7.265   8.702   5.485
23420WAT      O70501   1.530   6.485   7.589
23420WAT     H170502   1.527   6.580   7.561
23420WAT     H270503   1.467   6.471   7.666
23421WAT      O70504   5.996   6.074   2.017
23421WAT     H170505   6.055   6.015   1.962
23421WAT     H270506   6.020   6.065   2.113
23422WAT      O70507   2.333   6.456   9.766
23422WAT     H170508   2.353   6.359   9.775
23422WAT     H270509   2.300   6.475   9.673
23423WAT      O70510   9.597   9.198   2.342
23423WAT     H170511   9.539   9.241   2.411
23423WAT     H270512   9.643   9.269   2.289
23424WAT      O70513   4.314   1.331   9.584
23424WAT     H170514   4.306   1.374   9.495
23424WAT     H270515   4.260   1.382   9.651
23425WAT      O70516   3.541   1.341   4.582
23425WAT     H170517   3.636   1.368   4.598
23425WAT     H270518   3.490   1.347   4.668
23426WAT      O70519   8.623   8.551   4.686
23426WAT     H170520   8.709   8.502   4.666
23426WAT     H270521   8.553   8.521   4.622
23427WAT      O70522   3.558   1.144   2.266
23427WAT     H170523   3.588   1.124   2.359
23427WAT     H270524   3.474   1.199   2.269
23428WAT      O70525   4.460   7.292   5.377
23428WAT     H170526   4.468   7.212   5.436
23428WAT     H270527   4.428   7.263   5.286
23429WAT      O70528   8.840   2.644   5.804
23429WAT     H170529   8.905   2.592   5.858
23429WAT     H270530   8.844   2.740   5.830
23430WAT      O70531   3.880   2.036   0.412
23430WAT     H170532   3.845   2.109   0.353
23430WAT     H270533   3.805   1.998   0.466
23431WAT      O70534   7.996   7.334   3.314
23431WAT     H170535   8.016   7.276   3.394
23431WAT     H270536   8.022   7.285   3.231
23432WAT      O70537   5.225   0.932   4.723
23432WAT     H170538   5.149   0.874   4.751
23432WAT     H270539   5.206   1.027   4.745
23433WAT      O70540   7.043   3.411   1.744
23433WAT     H170541   7.044   3.492   1.803
23433WAT     H270542   7.137   3.389   1.716
23434WAT      O70543   1.919   0.274   1.155
23434WAT     H170544   1.922   0.358   1.100
23434WAT     H270545   1.914   0.298   1.252
23435WAT      O70546   6.853   3.676   6.996
23435WAT     H170547   6.781   3.629   6.944
23435WAT     H270548   6.912   3.727   6.933
23436WAT      O70549   9.042   7.442   6.406
23436WAT     H170550   9.101   7.521   6.423
23436WAT     H270551   8.983   7.426   6.485
23437WAT      O70552   8.627   8.778   6.226
23437WAT     H170553   8.550   8.728   6.265
23437WAT     H270554   8.705   8.716   6.214
23438WAT      O70555   0.039   9.629   0.926
23438WAT     H170556   0.026   9.616   1.024
23438WAT     H270557  -0.030   9.692   0.891
23439WAT      O70558   1.601   5.031   6.746
23439WAT     H170559   1.600   4.986   6.657
23439WAT     H270560   1.507   5.057   6.771
23440WAT      O70561   6.291   3.542   8.783
23440WAT     H170562   6.357   3.516   8.713
23440WAT     H270563   6.199   3.518   8.751
23441WAT      O70564   4.097   5.666   6.198
23441WAT     H170565   4.014   5.686   6.145
23441WAT     H270566   4.171   5.726   6.168
23442WAT      O70567   3.418   1.760   3.351
23442WAT     H170568   3.441   1.805   3.265
23442WAT     H270569   3.465   1.672   3.357
23443WAT      O70570   8.132   6.689   7.102
23443WAT     H170571   8.124   6.644   7.013
23443WAT     H270572   8.070   6.767   7.106
23444WAT      O70573   1.882   0.753   5.124
23444WAT     H170574   1.848   0.847   5.117
23444WAT     H270575   1.834   0.706   5.197
23445WAT      O70576   2.610   3.557   8.547
23445WAT     H170577   2.543   3.625   8.517
23445WAT     H270578   2.614   3.482   8.481
23446WAT      O70579   0.031   5.998   4.303
23446WAT     H170580   0.093   6.022   4.377
23446WAT     H270581  -0.020   6.079   4.274
23447WAT      O70582   4.791   8.769   8.023
23447WAT     H170583   4.841   8.736   7.943
23447WAT     H270584   4.819   8.716   8.103
23448WAT      O70585   8.449   4.119   1.186
23448WAT     H170586   8.428   4.140   1.090
23448WAT     H270587   8.364   4.105   1.236
23449WAT      O70588   5.947   1.602   0.402
23449WAT     H170589   5.912   1.509   0.398
23449WAT     H270590   6.044   1.601   0.423
23450WAT      O70591   2.820   5.487   3.418
23450WAT     H170592   2.862   5.561   3.365
23450WAT     H270593   2.782   5.419   3.356
23451WAT      O70594   4.000   4.139   6.961
23451WAT     H170595   3.944   4.157   7.042
23451WAT     H270596   3.987   4.213   6.895
23452WAT      O70597   6.926   6.614   1.223
23452WAT     H170598   6.954   6.522   1.200
23452WAT     H270599   6.893   6.661   1.141
23453WAT      O70600   0.223   1.259   0.994
23453WAT     H170601   0.261   1.350   1.013
23453WAT     H270602   0.136   1.268   0.945
23454WAT      O70603   8.142   1.278   6.721
23454WAT     H170604   8.128   1.226   6.636
23454WAT     H270605   8.211   1.231   6.777
23455WAT      O70606   5.104   1.479   9.584
23455WAT     H170607   5.117   1.472   9.683
23455WAT     H270608   5.058   1.396   9.551
23456WAT      O70609   5.240   9.451   5.668
23456WAT     H170610   5.211   9.540   5.701
23456WAT     H270611   5.233   9.383   5.741
23457WAT      O70612   8.895   2.840   6.251
23457WAT     H170613   8.992   2.833   6.274
23457WAT     H270614   8.850   2.753   6.271
23458WAT      O70615   8.510   6.798   5.953
23458WAT     H170616   8.475   6.758   5.869
23458WAT     H270617   8.544   6.726   6.014
23459WAT      O70618   5.084   3.473   2.622
23459WAT     H170619   5.024   3.412   2.673
23459WAT     H270620   5.102   3.555   2.677
23460WAT      O70621   0.825   9.522   4.870
23460WAT     H170622   0.751   9.480   4.817
23460WAT     H270623   0.840   9.469   4.953
23461WAT      O70624   7.349   0.197   9.359
23461WAT     H170625   7.440   0.197   9.316
23461WAT     H270626   7.346   0.267   9.431
23462WAT      O70627   2.942   7.456   1.259
23462WAT     H170628   3.002   7.532   1.283
23462WAT     H270629   2.977   7.371   1.298
23463WAT      O70630   8.991   1.209   7.519
23463WAT     H170631   8.918   1.140   7.521
23463WAT     H270632   8.971   1.281   7.585
23464WAT      O70633   0.991   1.307   7.592
23464WAT     H170634   1.032   1.368   7.525
23464WAT     H270635   0.891   1.317   7.589
23465WAT      O70636   4.037   9.031   9.120
23465WAT     H170637   4.114   8.975   9.151
23465WAT     H270638   4.049   9.125   9.151
23466WAT      O70639   2.262   4.372   6.484
23466WAT     H170640   2.168   4.384   6.451
23466WAT     H270641   2.306   4.299   6.432
23467WAT      O70642   2.332   5.097   3.299
23467WAT     H170643   2.338   5.030   3.374
23467WAT     H270644   2.236   5.114   3.277
23468WAT      O70645   0.676   0.228   1.933
23468WAT     H170646   0.613   0.170   1.880
23468WAT     H270647   0.679   0.197   2.027
23469WAT      O70648   1.124   6.969   9.476
23469WAT     H170649   1.131   6.870   9.489
23469WAT     H270650   1.181   7.015   9.544
23470WAT      O70651   5.625   6.160   8.569
23470WAT     H170652   5.575   6.192   8.489
23470WAT     H270653   5.696   6.227   8.592
23471WAT      O70654   8.985   4.906   8.126
23471WAT     H170655   8.913   4.897   8.057
23471WAT     H270656   8.944   4.909   8.217
23472WAT      O70657   6.586   4.721   8.050
23472WAT     H170658   6.520   4.647   8.058
23472WAT     H270659   6.611   4.754   8.142
23473WAT      O70660   5.443   8.945   5.426
23473WAT     H170661   5.487   8.997   5.499
23473WAT     H270662   5.394   8.867   5.466
23474WAT      O70663   4.880   1.531   2.979
23474WAT     H170664   4.971   1.539   2.939
23474WAT     H270665   4.864   1.437   3.007
23475WAT      O70666   5.088   9.557   8.174
23475WAT     H170667   5.149   9.595   8.244
23475WAT     H270668   5.053   9.631   8.116
23476WAT      O70669   5.878   4.319   3.352
23476WAT     H170670   5.944   4.246   3.334
23476WAT     H270671   5.912   4.377   3.425
23477WAT      O70672   8.470   6.221   1.687
23477WAT     H170673   8.441   6.315   1.667
23477WAT     H270674   8.463   6.165   1.605
23478WAT      O70675   0.821   2.148   3.002
23478WAT     H170676   0.849   2.059   3.037
23478WAT     H270677   0.900   2.199   2.969
23479WAT      O70678   1.653   5.403   2.696
23479WAT     H170679   1.700   5.487   2.669
23479WAT     H270680   1.554   5.419   2.696
23480WAT      O70681   4.651   6.864   2.097
23480WAT     H170682   4.668   6.898   2.005
23480WAT     H270683   4.726   6.803   2.124
23481WAT      O70684   6.720   4.223   3.919
23481WAT     H170685   6.644   4.262   3.970
23481WAT     H270686   6.797   4.205   3.980
23482WAT      O70687   7.825   3.529   5.465
23482WAT     H170688   7.883   3.476   5.403
23482WAT     H270689   7.729   3.514   5.442
23483WAT      O70690   6.189   7.911   2.165
23483WAT     H170691   6.133   7.875   2.090
23483WAT     H270692   6.268   7.851   2.180
23484WAT      O70693   5.111   6.850   9.352
23484WAT     H170694   5.064   6.766   9.323
23484WAT     H270695   5.195   6.827   9.400
23485WAT      O70696   9.318   6.804   8.369
23485WAT     H170697   9.263   6.796   8.286
23485WAT     H270698   9.336   6.900   8.388
23486WAT      O70699   7.282   6.889   7.599
23486WAT     H170700   7.226   6.860   7.676
23486WAT     H270701   7.265   6.830   7.521
23487WAT      O70702   7.876   4.324   7.790
23487WAT     H170703   7.888   4.227   7.810
23487WAT     H270704   7.793   4.336   7.734
23488WAT      O70705   6.972   1.893   0.105
23488WAT     H170706   7.024   1.815   0.141
23488WAT     H270707   6.875   1.881   0.128
23489WAT      O70708   2.552   3.035   4.937
23489WAT     H170709   2.503   2.949   4.921
23489WAT     H270710   2.560   3.051   5.035
23490WAT      O70711   9.597   9.610   0.796
23490WAT     H170712   9.603   9.607   0.696
23490WAT     H270713   9.541   9.689   0.823
23491WAT      O70714   1.050   1.618   8.335
23491WAT     H170715   1.087   1.535   8.377
23491WAT     H270716   1.003   1.594   8.250
23492WAT      O70717   7.739   6.888   0.932
23492WAT     H170718   7.740   6.792   0.903
23492WAT     H270719   7.651   6.910   0.973
23493WAT      O70720   1.777   5.659   9.076
23493WAT     H170721   1.822   5.631   9.160
23493WAT     H270722   1.820   5.614   8.998
23494WAT      O70723   6.762   5.800   6.033
23494WAT     H170724   6.802   5.868   5.973
23494WAT     H270725   6.824   5.721   6.040
23495WAT      O70726   4.242   5.050   1.190
23495WAT     H170727   4.215   5.033   1.285
23495WAT     H270728   4.320   4.992   1.166
23496WAT      O70729   1.789   5.475   8.622
23496WAT     H170730   1.862   5.407   8.615
23496WAT     H270731   1.821   5.561   8.583
23497WAT      O70732   3.901   3.409   9.052
23497WAT     H170733   3.944   3.450   8.971
23497WAT     H270734   3.876   3.314   9.031
23498WAT      O70735   9.265   4.020   5.732
23498WAT     H170736   9.349   4.056   5.691
23498WAT     H270737   9.207   4.096   5.760
23499WAT      O70738   9.830   5.570   4.822
23499WAT     H170739   9.744   5.546   4.865
23499WAT     H270740   9.870   5.489   4.779
23500WAT      O70741   7.435   7.457   4.432
23500WAT     H170742   7.411   7.393   4.358
23500WAT     H270743   7.530   7.443   4.458
23501WAT      O70744   4.325   4.875   0.120
23501WAT     H170745   4.242   4.836   0.161
23501WAT     H270746   4.342   4.964   0.161
23502WAT      O70747   6.568   4.174   0.527
23502WAT     H170748   6.528   4.085   0.505
23502WAT     H270749   6.594   4.177   0.623
23503WAT      O70750   8.640   2.001   9.169
23503WAT     H170751   8.665   1.922   9.113
23503WAT     H270752   8.717   2.065   9.174
23504WAT      O70753   7.919   1.429   9.260
23504WAT     H170754   7.897   1.332   9.257
23504WAT     H270755   8.014   1.441   9.289
23505WAT      O70756   0.813   5.076   9.598
23505WAT     H170757   0.895   5.095   9.652
23505WAT     H270758   0.827   4.993   9.544
23506WAT      O70759   7.844   6.881   5.520
23506WAT     H170760   7.922   6.854   5.463
23506WAT     H270761   7.876   6.939   5.595
23507WAT      O70762   7.508   3.829   4.390
23507WAT     H170763   7.444   3.874   4.452
23507WAT     H270764   7.461   3.756   4.341
23508WAT      O70765   8.882   7.715   3.543
23508WAT     H170766   8.784   7.736   3.534
23508WAT     H270767   8.893   7.616   3.554
23509WAT      O70768   8.284   2.766   4.332
23509WAT     H170769   8.369   2.787   4.380
23509WAT     H270770   8.272   2.666   4.327
23510WAT      O70771   9.012   0.738   4.972
23510WAT     H170772   8.922   0.701   4.949
23510WAT     H270773   9.055   0.680   5.041
23511WAT      O70774   9.580   0.287   3.832
23511WAT     H170775   9.589   0.211   3.768
23511WAT     H270776   9.485   0.296   3.860
23512WAT      O70777   7.694   1.738   1.183
23512WAT     H170778   7.762   1.807   1.206
23512WAT     H270779   7.613   1.750   1.241
23513WAT      O70780   2.433   2.881   8.268
23513WAT     H170781   2.386   2.804   8.310
23513WAT     H270782   2.438   2.957   8.332
23514WAT      O70783   4.544   1.094   6.208
23514WAT     H170784   4.492   1.079   6.293
23514WAT     H270785   4.631   1.137   6.230
23515WAT      O70786   9.169   2.533   4.332
23515WAT     H170787   9.239   2.462   4.322
23515WAT     H270788   9.078   2.492   4.334
23516WAT      O70789   3.959   5.255   0.470
23516WAT     H170790   3.944   5.213   0.380
23516WAT     H270791   4.038   5.316   0.466
23517WAT      O70792   0.509   8.494   4.615
23517WAT     H170793   0.499   8.498   4.515
23517WAT     H270794   0.590   8.441   4.638
23518WAT      O70795   0.513   0.712   4.918
23518WAT     H170796   0.548   0.664   4.837
23518WAT     H270797   0.589   0.758   4.964
23519WAT      O70798   6.945   5.107   0.391
23519WAT     H170799   7.022   5.106   0.328
23519WAT     H270800   6.969   5.056   0.474
23520WAT      O70801   6.318   8.696   9.773
23520WAT     H170802   6.369   8.652   9.848
23520WAT     H270803   6.377   8.762   9.727
23521WAT      O70804   9.584   6.243   6.328
23521WAT     H170805   9.641   6.318   6.361
23521WAT     H270806   9.628   6.201   6.249
23522WAT      O70807   4.139   3.436   0.498
23522WAT     H170808   4.143   3.405   0.593
23522WAT     H270809   4.228   3.470   0.469
23523WAT      O70810   5.230   0.993   3.808
23523WAT     H170811   5.299   1.053   3.848
23523WAT     H270812   5.248   0.984   3.709
23524WAT      O70813   3.395   6.270   0.240
23524WAT     H170814   3.467   6.315   0.187
23524WAT     H270815   3.313   6.261   0.183
23525WAT      O70816   0.896   7.108   9.413
23525WAT     H170817   0.972   7.057   9.453
23525WAT     H270818   0.931   7.176   9.349
23526WAT      O70819   1.385   5.814   1.296
23526WAT     H170820   1.344   5.796   1.385
23526WAT     H270821   1.454   5.745   1.276
23527WAT      O70822   9.591   8.040   7.889
23527WAT     H170823   9.644   8.119   7.921
23527WAT     H270824   9.550   8.062   7.800
23528WAT      O70825   6.025   3.932   4.507
23528WAT     H170826   5.995   3.945   4.412
23528WAT     H270827   5.959   3.874   4.554
23529WAT      O70828   8.256   3.225   3.632
23529WAT     H170829   8.183   3.163   3.661
23529WAT     H270830   8.226   3.320   3.643
23530WAT      O70831   5.799   8.616   5.263
23530WAT     H170832   5.717   8.667   5.237
23530WAT     H270833   5.853   8.598   5.181
23531WAT      O70834   9.624   7.797   7.516
23531WAT     H170835   9.704   7.850   7.488
23531WAT     H270836   9.630   7.705   7.479
23532WAT      O70837   1.928   5.923   5.884
23532WAT     H170838   1.936   5.978   5.800
23532WAT     H270839   1.842   5.945   5.929
23533WAT      O70840   4.223   2.803   6.624
23533WAT     H170841   4.204   2.710   6.655
23533WAT     H270842   4.196   2.813   6.528
23534WAT      O70843   0.015   5.399   7.131
23534WAT     H170844  -0.027   5.473   7.079
23534WAT     H270845  -0.051   5.325   7.144
23535WAT      O70846   8.960   9.321   9.889
23535WAT     H170847   8.911   9.242   9.924
23535WAT     H270848   8.938   9.333   9.792
23536WAT      O70849   4.357   2.545   7.012
23536WAT     H170850   4.446   2.504   7.032
23536WAT     H270851   4.287   2.502   7.069
23537WAT      O70852   2.684   0.022   2.210
23537WAT     H170853   2.660   0.069   2.125
23537WAT     H270854   2.695  -0.076   2.193
23538WAT      O70855   1.052   3.366   4.285
23538WAT     H170856   1.127   3.300   4.291
23538WAT     H270857   1.067   3.440   4.351
23539WAT      O70858   0.083   1.802   4.264
23539WAT     H170859   0.005   1.845   4.310
23539WAT     H270860   0.124   1.735   4.326
23540WAT      O70861   5.528   1.005   5.298
23540WAT     H170862   5.477   0.979   5.216
23540WAT     H270863   5.519   1.103   5.313
23541WAT      O70864   3.908   4.244   7.602
23541WAT     H170865   3.853   4.322   7.631
23541WAT     H270866   3.906   4.174   7.674
23542WAT      O70867   7.609   7.738   1.748
23542WAT     H170868   7.520   7.699   1.772
23542WAT     H270869   7.634   7.806   1.817
23543WAT      O70870   1.022   8.320   4.097
23543WAT     H170871   1.063   8.356   4.013
23543WAT     H270872   1.019   8.392   4.167
23544WAT      O70873   1.498   3.937   3.000
23544WAT     H170874   1.464   3.846   2.976
23544WAT     H270875   1.455   4.005   2.942
23545WAT      O70876   5.758   8.729   6.964
23545WAT     H170877   5.834   8.791   6.944
23545WAT     H270878   5.769   8.644   6.913
23546WAT      O70879   5.030   2.645   1.454
23546WAT     H170880   5.114   2.616   1.407
23546WAT     H270881   5.049   2.728   1.506
23547WAT      O70882   8.255   4.256   6.938
23547WAT     H170883   8.323   4.201   6.890
23547WAT     H270884   8.252   4.229   7.034
23548WAT      O70885   1.508   0.201   1.934
23548WAT     H170886   1.446   0.163   1.865
23548WAT     H270887   1.497   0.152   2.020
23549WAT      O70888   1.769   1.459   3.117
23549WAT     H170889   1.807   1.454   3.209
23549WAT     H270890   1.770   1.368   3.075
23550WAT      O70891   0.405   0.777   9.045
23550WAT     H170892   0.327   0.724   9.015
23550WAT     H270893   0.473   0.783   8.972
23551WAT      O70894   4.244   8.668   1.481
23551WAT     H170895   4.307   8.717   1.420
23551WAT     H270896   4.273   8.573   1.489
23552WAT      O70897   4.920   5.924   8.168
23552WAT     H170898   4.970   5.837   8.167
23552WAT     H270899   4.973   5.992   8.218
23553WAT      O70900   9.759   8.660   8.802
23553WAT     H170901   9.700   8.589   8.763
23553WAT     H270902   9.748   8.661   8.902
23554WAT      O70903   1.070   5.958   2.814
23554WAT     H170904   0.976   5.936   2.787
23554WAT     H270905   1.094   6.048   2.780
23555WAT      O70906   5.073   4.021   3.404
23555WAT     H170907   5.150   3.961   3.425
23555WAT     H270908   5.034   3.995   3.315
23556WAT      O70909   5.212   8.909   8.519
23556WAT     H170910   5.228   8.962   8.602
23556WAT     H270911   5.250   8.957   8.440
23557WAT      O70912   4.318   3.753   9.009
23557WAT     H170913   4.275   3.795   8.929
23557WAT     H270914   4.251   3.698   9.058
23558WAT      O70915   7.797   2.428   9.845
23558WAT     H170916   7.761   2.338   9.823
23558WAT     H270917   7.726   2.497   9.832
23559WAT      O70918   1.972   5.552   1.917
23559WAT     H170919   2.014   5.596   1.838
23559WAT     H270920   1.884   5.513   1.890
23560WAT      O70921   3.878   3.556   4.996
23560WAT     H170922   3.932   3.540   5.078
23560WAT     H270923   3.938   3.556   4.916
23561WAT      O70924   3.597   2.773   5.110
23561WAT     H170925   3.520   2.802   5.168
23561WAT     H270926   3.626   2.850   5.054
23562WAT      O70927   3.130   1.670   1.802
23562WAT     H170928   3.216   1.630   1.768
23562WAT     H270929   3.148   1.719   1.887
23563WAT      O70930   0.583   6.919   3.546
23563WAT     H170931   0.514   6.858   3.506
23563WAT     H270932   0.583   7.005   3.497
23564WAT      O70933   7.056   6.899   0.060
23564WAT     H170934   7.114   6.931  -0.015
23564WAT     H270935   7.085   6.943   0.146
23565WAT      O70936   3.780   2.892   2.985
23565WAT     H170937   3.858   2.928   3.036
23565WAT     H270938   3.739   2.965   2.932
23566WAT      O70939   3.593   4.794   5.996
23566WAT     H170940   3.532   4.873   5.995
23566WAT     H270941   3.546   4.715   6.034
23567WAT      O70942   1.803   6.782   1.297
23567WAT     H170943   1.827   6.733   1.381
23567WAT     H270944   1.886   6.809   1.249
23568WAT      O70945   7.332   4.606   6.593
23568WAT     H170946   7.318   4.520   6.543
23568WAT     H270947   7.344   4.681   6.528
23569WAT      O70948   6.335   6.274   0.008
23569WAT     H170949   6.242   6.304   0.026
23569WAT     H270950   6.375   6.236   0.091
23570WAT      O70951   2.323   1.904   2.768
23570WAT     H170952   2.301   1.991   2.812
23570WAT     H270953   2.259   1.834   2.800
23571WAT      O70954   1.807   6.982   0.972
23571WAT     H170955   1.884   7.009   0.915
23571WAT     H270956   1.836   6.980   1.068
23572WAT      O70957   9.063   7.842   8.047
23572WAT     H170958   9.074   7.825   8.145
23572WAT     H270959   9.013   7.766   8.006
23573WAT      O70960   3.207   7.251   3.690
23573WAT     H170961   3.237   7.232   3.784
23573WAT     H270962   3.264   7.199   3.626
23574WAT      O70963   6.781   2.640   1.032
23574WAT     H170964   6.801   2.542   1.023
23574WAT     H270965   6.719   2.667   0.958
23575WAT      O70966   6.525   2.208   7.540
23575WAT     H170967   6.518   2.285   7.603
23575WAT     H270968   6.620   2.194   7.515
23576WAT      O70969   6.987   3.508   6.659
23576WAT     H170970   6.899   3.549   6.636
23576WAT     H270971   6.991   3.414   6.625
23577WAT      O70972   0.697   6.268   1.897
23577WAT     H170973   0.764   6.194   1.892
23577WAT     H270974   0.694   6.316   1.809
23578WAT      O70975   6.353   7.295   0.514
23578WAT     H170976   6.275   7.357   0.526
23578WAT     H270977   6.327   7.203   0.544
23579WAT      O70978   0.700   6.029   1.514
23579WAT     H170979   0.611   5.999   1.549
23579WAT     H270980   0.690   6.115   1.465
23580WAT      O70981   6.133   7.336   4.936
23580WAT     H170982   6.081   7.251   4.950
23580WAT     H270983   6.178   7.362   5.021
23581WAT      O70984   1.510   7.384   4.275
23581WAT     H170985   1.524   7.454   4.344
23581WAT     H270986   1.560   7.408   4.192
23582WAT      O70987   2.452   8.427   4.686
23582WAT     H170988   2.367   8.375   4.678
23582WAT     H270989   2.483   8.425   4.781
23583WAT      O70990   1.277   8.129   0.918
23583WAT     H170991   1.189   8.166   0.947
23583WAT     H270992   1.281   8.032   0.941
23584WAT      O70993   4.587   4.766   4.423
23584WAT     H170994   4.681   4.761   4.389
23584WAT     H270995   4.564   4.860   4.446
23585WAT      O70996   4.269   1.556   6.215
23585WAT     H170997   4.347   1.544   6.154
23585WAT     H270998   4.185   1.559   6.161
23586WAT      O70999   4.061   7.163   1.556
23586WAT     H171000   4.012   7.250   1.549
23586WAT     H271001   4.142   7.175   1.612
23587WAT      O71002   5.476   4.825   1.029
23587WAT     H171003   5.491   4.904   1.088
23587WAT     H271004   5.512   4.743   1.073
23588WAT      O71005   9.517   4.390   7.100
23588WAT     H171006   9.570   4.388   7.015
23588WAT     H271007   9.572   4.351   7.174
23589WAT      O71008   7.322   5.533   5.834
23589WAT     H171009   7.376   5.548   5.917
23589WAT     H271010   7.225   5.527   5.858
23590WAT      O71011   5.843   6.632   7.784
23590WAT     H171012   5.926   6.679   7.754
23590WAT     H271013   5.786   6.695   7.836
23591WAT      O71014   0.627   0.316   5.438
23591WAT     H171015   0.676   0.232   5.459
23591WAT     H271016   0.652   0.348   5.347
23592WAT      O71017   7.694   5.955   9.033
23592WAT     H171018   7.737   5.882   8.978
23592WAT     H271019   7.600   5.929   9.054
23593WAT      O71020   9.028   9.558   3.173
23593WAT     H171021   8.935   9.596   3.166
23593WAT     H271022   9.082   9.615   3.234
23594WAT      O71023   8.287   0.664   5.382
23594WAT     H171024   8.237   0.712   5.309
23594WAT     H271025   8.369   0.716   5.406
23595WAT      O71026   1.168   6.732   8.970
23595WAT     H171027   1.078   6.720   8.928
23595WAT     H271028   1.187   6.655   9.030
23596WAT      O71029   4.855   8.646   9.233
23596WAT     H171030   4.880   8.631   9.328
23596WAT     H271031   4.908   8.723   9.196
23597WAT      O71032   3.884   6.367   6.356
23597WAT     H171033   3.802   6.314   6.379
23597WAT     H271034   3.877   6.459   6.394
23598WAT      O71035   8.724   6.936   4.763
23598WAT     H171036   8.763   7.024   4.737
23598WAT     H271037   8.719   6.877   4.682
23599WAT      O71038   8.827   8.989   6.766
23599WAT     H171039   8.870   8.942   6.689
23599WAT     H271040   8.738   8.949   6.784
23600WAT      O71041   6.304   9.186   4.307
23600WAT     H171042   6.300   9.179   4.407
23600WAT     H271043   6.373   9.255   4.282
23601WAT      O71044   8.556   6.820   4.255
23601WAT     H171045   8.526   6.738   4.304
23601WAT     H271046   8.651   6.841   4.278
23602WAT      O71047   7.756   1.727   8.719
23602WAT     H171048   7.739   1.699   8.814
23602WAT     H271049   7.734   1.824   8.708
23603WAT      O71050   9.649   0.237   0.621
23603WAT     H171051   9.607   0.211   0.534
23603WAT     H271052   9.638   0.335   0.636
23604WAT      O71053   7.713   3.520   4.092
23604WAT     H171054   7.737   3.579   4.169
23604WAT     H271055   7.736   3.566   4.007
23605WAT      O71056   3.703   1.184   0.731
23605WAT     H171057   3.703   1.276   0.692
23605WAT     H271058   3.627   1.175   0.795
23606WAT      O71059   3.000   1.043   9.419
23606WAT     H171060   2.953   0.995   9.345
23606WAT     H271061   2.933   1.070   9.489
23607WAT      O71062   3.388   9.807   7.169
23607WAT     H171063   3.366   9.841   7.261
23607WAT     H271064   3.393   9.884   7.105
23608WAT      O71065   1.386   3.045   6.825
23608WAT     H171066   1.373   3.125   6.883
23608WAT     H271067   1.375   3.072   6.729
23609WAT      O71068   6.298   5.558   7.727
23609WAT     H171069   6.289   5.476   7.783
23609WAT     H271070   6.376   5.612   7.759
23610WAT      O71071   2.433   0.967   8.731
23610WAT     H171072   2.418   0.886   8.788
23610WAT     H271073   2.529   0.994   8.736
23611WAT      O71074   6.240   9.554   0.560
23611WAT     H171075   6.251   9.647   0.527
23611WAT     H271076   6.193   9.555   0.648
23612WAT      O71077   5.006   8.287   6.026
23612WAT     H171078   4.993   8.195   5.992
23612WAT     H271079   4.969   8.294   6.119
23613WAT      O71080   5.404   9.168   0.517
23613WAT     H171081   5.428   9.257   0.556
23613WAT     H271082   5.309   9.171   0.485
23614WAT      O71083   6.242   1.558   5.422
23614WAT     H171084   6.236   1.514   5.511
23614WAT     H271085   6.321   1.619   5.420
23615WAT      O71086   2.661   6.949   4.270
23615WAT     H171087   2.674   7.001   4.355
23615WAT     H271088   2.724   6.872   4.269
23616WAT      O71089   0.225   9.592   5.980
23616WAT     H171090   0.181   9.641   5.905
23616WAT     H271091   0.173   9.607   6.064
23617WAT      O71092   8.620   6.440   2.886
23617WAT     H171093   8.688   6.400   2.825
23617WAT     H271094   8.529   6.427   2.847
23618WAT      O71095   0.573   7.316   7.381
23618WAT     H171096   0.608   7.362   7.300
23618WAT     H271097   0.649   7.269   7.428
23619WAT      O71098   9.539   0.874   0.986
23619WAT     H171099   9.524   0.807   1.059
23619WAT     H271100   9.633   0.867   0.953
23620WAT      O71101   9.521   0.744   0.745
23620WAT     H171102   9.539   0.790   0.833
23620WAT     H271103   9.527   0.811   0.671
23621WAT      O71104   8.862   1.447   3.849
23621WAT     H171105   8.789   1.418   3.911
23621WAT     H271106   8.949   1.448   3.899
23622WAT      O71107   8.808   1.225   4.582
23622WAT     H171108   8.813   1.129   4.608
23622WAT     H271109   8.867   1.280   4.641
23623WAT      O71110   7.642   5.266   5.240
23623WAT     H171111   7.719   5.224   5.193
23623WAT     H271112   7.653   5.365   5.243
23624WAT      O71113   9.808   4.293   1.653
23624WAT     H171114   9.793   4.335   1.564
23624WAT     H271115   9.853   4.357   1.714
23625WAT      O71116   3.886   6.616   6.462
23625WAT     H171117   3.876   6.701   6.411
23625WAT     H271118   3.962   6.625   6.527
23626WAT      O71119   9.218   6.508   7.465
23626WAT     H171120   9.221   6.552   7.555
23626WAT     H271121   9.233   6.577   7.394
23627WAT      O71122   7.814   0.327   1.247
23627WAT     H171123   7.878   0.252   1.227
23627WAT     H271124   7.724   0.304   1.210
23628WAT      O71125   7.456   3.833   9.512
23628WAT     H171126   7.368   3.875   9.533
23628WAT     H271127   7.524   3.904   9.494
23629WAT      O71128   9.041   1.734   5.864
23629WAT     H171129   9.122   1.745   5.806
23629WAT     H271130   8.980   1.666   5.824
23630WAT      O71131   5.681   0.665   7.707
23630WAT     H171132   5.725   0.725   7.641
23630WAT     H271133   5.749   0.602   7.746
23631WAT      O71134   8.925   0.001   4.516
23631WAT     H171135   8.866   0.082   4.525
23631WAT     H271136   8.906  -0.043   4.428
23632WAT      O71137   3.813   2.706   9.706
23632WAT     H171138   3.781   2.695   9.800
23632WAT     H271139   3.878   2.633   9.685
23633WAT      O71140   5.067   0.952   5.342
23633WAT     H171141   5.053   1.042   5.301
23633WAT     H271142   5.062   0.882   5.270
23634WAT      O71143   6.677   6.785   6.541
23634WAT     H171144   6.769   6.808   6.572
23634WAT     H271145   6.682   6.716   6.469
23635WAT      O71146   1.382   8.989   9.176
23635WAT     H171147   1.341   9.080   9.181
23635WAT     H271148   1.417   8.962   9.266
23636WAT      O71149   4.558   8.949   1.238
23636WAT     H171150   4.610   8.928   1.155
23636WAT     H271151   4.475   8.894   1.240
23637WAT      O71152   6.405   0.897   0.611
23637WAT     H171153   6.492   0.946   0.610
23637WAT     H271154   6.356   0.920   0.695
23638WAT      O71155   6.149   7.814   7.895
23638WAT     H171156   6.165   7.835   7.798
23638WAT     H271157   6.096   7.888   7.936
23639WAT      O71158   9.769   2.140   6.274
23639WAT     H171159   9.742   2.234   6.251
23639WAT     H271160   9.761   2.083   6.192
23640WAT      O71161   2.628   2.317   6.537
23640WAT     H171162   2.682   2.245   6.492
23640WAT     H271163   2.552   2.343   6.478
23641WAT      O71164   4.244   1.338   8.608
23641WAT     H171165   4.237   1.250   8.654
23641WAT     H271166   4.223   1.326   8.511
23642WAT      O71167   4.095   8.317   7.550
23642WAT     H171168   4.089   8.292   7.646
23642WAT     H271169   4.138   8.243   7.498
23643WAT      O71170   5.420   8.057   1.895
23643WAT     H171171   5.454   8.138   1.848
23643WAT     H271172   5.320   8.057   1.894
23644WAT      O71173   2.447   4.740   8.910
23644WAT     H171174   2.418   4.647   8.890
23644WAT     H271175   2.373   4.789   8.957
23645WAT      O71176   2.971   7.997   3.078
23645WAT     H171177   2.927   7.908   3.089
23645WAT     H271178   3.057   7.998   3.128
23646WAT      O71179   1.469   4.385   3.299
23646WAT     H171180   1.394   4.337   3.344
23646WAT     H271181   1.496   4.335   3.217
23647WAT      O71182   1.260   1.799   8.316
23647WAT     H171183   1.245   1.828   8.222
23647WAT     H271184   1.185   1.739   8.344
23648WAT      O71185   4.936   4.753   9.436
23648WAT     H171186   4.967   4.779   9.344
23648WAT     H271187   5.008   4.702   9.482
23649WAT      O71188   0.762   2.500   5.366
23649WAT     H171189   0.806   2.545   5.444
23649WAT     H271190   0.808   2.528   5.281
23650WAT      O71191   4.023   4.821   6.240
23650WAT     H171192   3.996   4.910   6.278
23650WAT     H271193   3.944   4.778   6.196
23651WAT      O71194   3.482   0.814   1.590
23651WAT     H171195   3.541   0.876   1.642
23651WAT     H271196   3.537   0.738   1.555
23652WAT      O71197   3.654   3.971   0.310
23652WAT     H171198   3.639   3.877   0.278
23652WAT     H271199   3.670   4.031   0.232
23653WAT      O71200   5.136   3.634   3.131
23653WAT     H171201   5.080   3.561   3.090
23653WAT     H271202   5.076   3.707   3.164
23654WAT      O71203   7.644   1.375   9.715
23654WAT     H171204   7.652   1.474   9.704
23654WAT     H271205   7.734   1.333   9.698
23655WAT      O71206   5.188   6.229   6.267
23655WAT     H171207   5.166   6.325   6.281
23655WAT     H271208   5.272   6.222   6.212
23656WAT      O71209   2.808   8.544   1.928
23656WAT     H171210   2.813   8.639   1.959
23656WAT     H271211   2.830   8.482   2.004
23657WAT      O71212   6.622   1.757   9.807
23657WAT     H171213   6.524   1.776   9.820
23657WAT     H271214   6.669   1.768   9.894
23658WAT      O71215   0.330   3.790   5.129
23658WAT     H171216   0.422   3.825   5.142
23658WAT     H271217   0.328   3.728   5.051
23659WAT      O71218   2.815   4.059   9.228
23659WAT     H171219   2.803   3.960   9.236
23659WAT     H271220   2.911   4.080   9.213
23660WAT      O71221   2.575   9.324   0.456
23660WAT     H171222   2.659   9.304   0.507
23660WAT     H271223   2.513   9.246   0.464
23661WAT      O71224   9.843   0.070   0.670
23661WAT     H171225   9.784   0.145   0.641
23661WAT     H271226   9.814   0.038   0.760
23662WAT      O71227   0.028   0.647   2.811
23662WAT     H171228  -0.061   0.636   2.855
23662WAT     H271229   0.046   0.568   2.752
23663WAT      O71230   1.277   2.616   2.097
23663WAT     H171231   1.190   2.586   2.137
23663WAT     H271232   1.332   2.663   2.165
23664WAT      O71233   8.164   3.352   0.421
23664WAT     H171234   8.200   3.444   0.405
23664WAT     H271235   8.119   3.348   0.510
23665WAT      O71236   4.601   8.492   6.903
23665WAT     H171237   4.600   8.543   6.989
23665WAT     H271238   4.514   8.506   6.855
23666WAT      O71239   6.893   4.192   3.704
23666WAT     H171240   6.952   4.119   3.742
23666WAT     H271241   6.823   4.215   3.771
23667WAT      O71242   9.071   5.854   7.704
23667WAT     H171243   9.018   5.784   7.751
23667WAT     H271244   9.106   5.920   7.772
23668WAT      O71245   7.158   2.187   1.239
23668WAT     H171246   7.257   2.178   1.242
23668WAT     H271247   7.134   2.274   1.196
23669WAT      O71248   7.888   5.458   3.585
23669WAT     H171249   7.877   5.369   3.541
23669WAT     H271250   7.941   5.518   3.525
23670WAT      O71251   1.263   4.213   6.788
23670WAT     H171252   1.235   4.228   6.883
23670WAT     H271253   1.341   4.151   6.786
23671WAT      O71254   0.073   5.386   6.036
23671WAT     H171255   0.135   5.313   6.009
23671WAT     H271256   0.067   5.454   5.962
23672WAT      O71257   5.651   6.134   2.875
23672WAT     H171258   5.675   6.189   2.955
23672WAT     H271259   5.680   6.181   2.792
23673WAT      O71260   6.494   2.707   8.175
23673WAT     H171261   6.531   2.789   8.130
23673WAT     H271262   6.452   2.647   8.107
23674WAT      O71263   0.790   6.866   5.018
23674WAT     H171264   0.699   6.831   4.997
23674WAT     H271265   0.825   6.916   4.939
23675WAT      O71266   3.406   2.883   5.278
23675WAT     H171267   3.408   2.795   5.326
23675WAT     H271268   3.312   2.903   5.248
23676WAT      O71269   2.994   2.230   0.096
23676WAT     H171270   3.065   2.262   0.159
23676WAT     H271271   3.015   2.137   0.068
23677WAT      O71272   5.314   4.775   1.665
23677WAT     H171273   5.392   4.747   1.721
23677WAT     H271274   5.298   4.705   1.594
23678WAT      O71275   4.764   4.550   2.849
23678WAT     H171276   4.761   4.465   2.796
23678WAT     H271277   4.673   4.590   2.854
23679WAT      O71278   8.884   1.226   0.488
23679WAT     H171279   8.886   1.126   0.494
23679WAT     H271280   8.935   1.265   0.565
23680WAT      O71281   2.115   3.175   4.723
23680WAT     H171282   2.113   3.261   4.775
23680WAT     H271283   2.210   3.146   4.711
23681WAT      O71284   9.760   2.184   2.472
23681WAT     H171285   9.824   2.114   2.506
23681WAT     H271286   9.737   2.247   2.545
23682WAT      O71287   8.987   5.635   5.750
23682WAT     H171288   8.897   5.674   5.733
23682WAT     H271289   9.058   5.699   5.720
23683WAT      O71290   7.863   7.102   8.789
23683WAT     H171291   7.902   7.041   8.858
23683WAT     H271292   7.917   7.186   8.786
23684WAT      O71293   2.839   7.232   5.603
23684WAT     H171294   2.742   7.211   5.599
23684WAT     H271295   2.889   7.172   5.541
23685WAT      O71296   1.153   2.196   1.250
23685WAT     H171297   1.145   2.213   1.348
23685WAT     H271298   1.249   2.179   1.227
23686WAT      O71299   0.298   9.124   4.718
23686WAT     H171300   0.289   9.090   4.624
23686WAT     H271301   0.393   9.112   4.748
23687WAT      O71302   9.079   2.827   1.239
23687WAT     H171303   8.993   2.800   1.195
23687WAT     H271304   9.148   2.756   1.225
23688WAT      O71305   2.461   0.724   1.825
23688WAT     H171306   2.530   0.664   1.784
23688WAT     H271307   2.477   0.819   1.795
23689WAT      O71308   4.539   7.975   7.471
23689WAT     H171309   4.607   8.048   7.483
23689WAT     H271310   4.503   7.949   7.561
23690WAT      O71311   8.696   9.187   3.201
23690WAT     H171312   8.636   9.130   3.146
23690WAT     H271313   8.777   9.135   3.228
23691WAT      O71314   2.079   0.195   3.340
23691WAT     H171315   2.160   0.195   3.399
23691WAT     H271316   2.034   0.284   3.347
23692WAT      O71317   8.668   5.468   0.928
23692WAT     H171318   8.643   5.417   1.011
23692WAT     H271319   8.607   5.441   0.854
23693WAT      O71320   7.727   1.424   3.365
23693WAT     H171321   7.714   1.410   3.267
23693WAT     H271322   7.647   1.470   3.403
23694WAT      O71323   5.568   1.915   7.070
23694WAT     H171324   5.653   1.862   7.061
23694WAT     H271325   5.588   2.006   7.105
23695WAT      O71326   7.788   6.327   3.680
23695WAT     H171327   7.769   6.408   3.625
23695WAT     H271328   7.742   6.248   3.640
23696WAT      O71329   6.489   4.408   5.906
23696WAT     H171330   6.457   4.466   5.831
23696WAT     H271331   6.580   4.374   5.885
23697WAT      O71332   5.938   9.773   5.722
23697WAT     H171333   5.929   9.700   5.789
23697WAT     H271334   5.953   9.860   5.769
23698WAT      O71335   6.888   6.301   9.471
23698WAT     H171336   6.953   6.279   9.399
23698WAT     H271337   6.808   6.241   9.463
23699WAT      O71338   8.003   7.288   6.154
23699WAT     H171339   8.047   7.260   6.239
23699WAT     H271340   8.026   7.225   6.081
23700WAT      O71341   0.751   5.048   1.056
23700WAT     H171342   0.769   5.091   0.968
23700WAT     H271343   0.672   4.987   1.048
23701WAT      O71344   5.482   0.338   7.007
23701WAT     H171345   5.578   0.317   6.987
23701WAT     H271346   5.436   0.369   6.924
23702WAT      O71347   0.012   6.740   5.691
23702WAT     H171348   0.016   6.751   5.791
23702WAT     H271349  -0.063   6.793   5.654
23703WAT      O71350   8.169   5.754   9.302
23703WAT     H171351   8.073   5.773   9.321
23703WAT     H271352   8.197   5.805   9.220
23704WAT      O71353   4.363   8.358   3.543
23704WAT     H171354   4.337   8.265   3.518
23704WAT     H271355   4.449   8.382   3.497
23705WAT      O71356   9.030   7.135   3.607
23705WAT     H171357   9.113   7.101   3.563
23705WAT     H271358   8.955   7.072   3.589
23706WAT      O71359   6.045   5.050   5.252
23706WAT     H171360   5.962   5.017   5.296
23706WAT     H271361   6.064   4.995   5.171
23707WAT      O71362   1.866   3.450   4.919
23707WAT     H171363   1.888   3.496   4.833
23707WAT     H271364   1.770   3.422   4.918
23708WAT      O71365   7.888   0.259   8.800
23708WAT     H171366   7.848   0.229   8.713
23708WAT     H271367   7.834   0.334   8.837
23709WAT      O71368   3.008   1.737   9.581
23709WAT     H171369   2.952   1.814   9.550
23709WAT     H271370   3.086   1.727   9.521
23710WAT      O71371   2.531   4.819   9.281
23710WAT     H171372   2.458   4.884   9.302
23710WAT     H271373   2.597   4.816   9.356
23711WAT      O71374   9.094   4.240   0.601
23711WAT     H171375   9.100   4.274   0.508
23711WAT     H271376   9.070   4.143   0.601
23712WAT      O71377   4.695   8.654   1.216
23712WAT     H171378   4.679   8.565   1.173
23712WAT     H271379   4.674   8.727   1.151
23713WAT      O71380   8.491   5.323   3.385
23713WAT     H171381   8.567   5.342   3.447
23713WAT     H271382   8.505   5.370   3.298
23714WAT      O71383   4.205   6.565   1.165
23714WAT     H171384   4.181   6.603   1.076
23714WAT     H271385   4.126   6.517   1.203
23715WAT      O71386   2.786   9.228   7.912
23715WAT     H171387   2.823   9.135   7.906
23715WAT     H271388   2.853   9.287   7.956
23716WAT      O71389   2.738   7.517   6.164
23716WAT     H171390   2.736   7.606   6.118
23716WAT     H271391   2.779   7.449   6.103
23717WAT      O71392   3.483   5.587   7.326
23717WAT     H171393   3.427   5.569   7.407
23717WAT     H271394   3.567   5.533   7.331
23718WAT      O71395   9.277   4.452   0.058
23718WAT     H171396   9.188   4.427   0.097
23718WAT     H271397   9.283   4.419  -0.036
23719WAT      O71398   0.654   0.303   8.200
23719WAT     H171399   0.602   0.228   8.239
23719WAT     H271400   0.646   0.302   8.101
23720WAT      O71401   6.856   4.614   1.557
23720WAT     H171402   6.759   4.636   1.564
23720WAT     H271403   6.892   4.593   1.648
23721WAT      O71404   1.418   2.747   8.161
23721WAT     H171405   1.490   2.678   8.175
23721WAT     H271406   1.426   2.785   8.069
23722WAT      O71407   6.748   4.253   4.813
23722WAT     H171408   6.727   4.265   4.910
23722WAT     H271409   6.703   4.326   4.761
23723WAT      O71410   5.186   5.416   6.829
23723WAT     H171411   5.152   5.328   6.861
23723WAT     H271412   5.181   5.483   6.904
23724WAT      O71413   6.976   2.221   3.990
23724WAT     H171414   6.968   2.320   3.983
23724WAT     H271415   7.054   2.198   4.048
23725WAT      O71416   0.925   0.346   9.725
23725WAT     H171417   0.962   0.281   9.791
23725WAT     H271418   0.972   0.434   9.734
23726WAT      O71419   8.605   2.746   4.040
23726WAT     H171420   8.592   2.842   4.065
23726WAT     H271421   8.699   2.719   4.059
23727WAT      O71422   7.750   5.814   1.556
23727WAT     H171423   7.813   5.783   1.485
23727WAT     H271424   7.796   5.812   1.645
23728WAT      O71425   3.647   1.565   8.789
23728WAT     H171426   3.608   1.653   8.817
23728WAT     H271427   3.687   1.573   8.698
23729WAT      O71428   5.591   6.201   3.479
23729WAT     H171429   5.549   6.161   3.560
23729WAT     H271430   5.529   6.191   3.401
23730WAT      O71431   7.287   3.903   7.713
23730WAT     H171432   7.280   3.853   7.627
23730WAT     H271433   7.235   3.855   7.784
23731WAT      O71434   2.193   8.327   4.674
23731WAT     H171435   2.149   8.370   4.595
23731WAT     H271436   2.203   8.229   4.658
23732WAT      O71437   3.987   7.678   4.174
23732WAT     H171438   4.080   7.716   4.181
23732WAT     H271439   3.971   7.616   4.251
23733WAT      O71440   8.968   3.080   0.259
23733WAT     H171441   8.958   3.084   0.160
23733WAT     H271442   8.904   3.012   0.296
23734WAT      O71443   9.865   7.711   4.120
23734WAT     H171444   9.956   7.729   4.083
23734WAT     H271445   9.810   7.663   4.052
23735WAT      O71446   6.566   7.480   4.545
23735WAT     H171447   6.658   7.454   4.573
23735WAT     H271448   6.545   7.571   4.582
23736WAT      O71449   3.948   9.469   6.407
23736WAT     H171450   3.875   9.407   6.436
23736WAT     H271451   3.996   9.428   6.329
23737WAT      O71452   2.793   6.402   8.713
23737WAT     H171453   2.879   6.395   8.663
23737WAT     H271454   2.767   6.312   8.748
23738WAT      O71455   5.739   1.972   1.467
23738WAT     H171456   5.692   1.934   1.388
23738WAT     H271457   5.742   2.071   1.460
23739WAT      O71458   6.576   8.476   2.949
23739WAT     H171459   6.574   8.526   3.036
23739WAT     H271460   6.484   8.472   2.911
23740WAT      O71461   5.309   2.273   2.426
23740WAT     H171462   5.381   2.325   2.470
23740WAT     H271463   5.226   2.330   2.419
23741WAT      O71464   7.938   7.005   1.063
23741WAT     H171465   7.875   6.945   1.014
23741WAT     H271466   7.901   7.098   1.065
23742WAT      O71467   9.604   4.617   0.760
23742WAT     H171468   9.575   4.624   0.665
23742WAT     H271469   9.703   4.602   0.764
23743WAT      O71470   1.810   5.856   5.084
23743WAT     H171471   1.833   5.869   4.987
23743WAT     H271472   1.825   5.942   5.133
23744WAT      O71473   3.905   5.040   8.265
23744WAT     H171474   3.806   5.043   8.279
23744WAT     H271475   3.952   5.038   8.353
23745WAT      O71476   5.427   6.132   5.933
23745WAT     H171477   5.442   6.212   5.990
23745WAT     H271478   5.408   6.053   5.991
23746WAT      O71479   0.812   5.118   5.864
23746WAT     H171480   0.835   5.094   5.958
23746WAT     H271481   0.876   5.072   5.801
23747WAT      O71482   6.215   1.165   6.912
23747WAT     H171483   6.144   1.233   6.930
23747WAT     H271484   6.297   1.188   6.965
23748WAT      O71485   8.888   6.308   8.263
23748WAT     H171486   8.803   6.318   8.211
23748WAT     H271487   8.952   6.251   8.210
23749WAT      O71488   8.885   7.623   1.096
23749WAT     H171489   8.812   7.664   1.041
23749WAT     H271490   8.954   7.692   1.118
23750WAT      O71491   6.009   1.398   3.026
23750WAT     H171492   6.042   1.397   2.932
23750WAT     H271493   5.992   1.305   3.057
23751WAT      O71494   9.783   8.261   5.683
23751WAT     H171495   9.749   8.184   5.737
23751WAT     H271496   9.715   8.285   5.614
23752WAT      O71497   5.108   3.419   3.862
23752WAT     H171498   5.025   3.397   3.811
23752WAT     H271499   5.085   3.442   3.956
23753WAT      O71500   0.913   7.379   6.828
23753WAT     H171501   0.815   7.381   6.807
23753WAT     H271502   0.937   7.459   6.882
23754WAT      O71503   4.705   6.215   0.905
23754WAT     H171504   4.759   6.282   0.956
23754WAT     H271505   4.755   6.129   0.899
23755WAT      O71506   7.838   2.278   7.522
23755WAT     H171507   7.897   2.221   7.464
23755WAT     H271508   7.821   2.230   7.609
23756WAT      O71509   6.774   5.812   2.831
23756WAT     H171510   6.727   5.778   2.914
23756WAT     H271511   6.819   5.735   2.786
23757WAT      O71512   0.227   5.014   7.019
23757WAT     H171513   0.195   4.981   6.930
23757WAT     H271514   0.318   4.977   7.037
23758WAT      O71515   0.039   6.789   8.215
23758WAT     H171516   0.061   6.883   8.190
23758WAT     H271517   0.044   6.778   8.314
23759WAT      O71518   3.700   8.637   1.550
23759WAT     H171519   3.601   8.622   1.554
23759WAT     H271520   3.747   8.566   1.602
23760WAT      O71521   2.262   7.853   8.037
23760WAT     H171522   2.339   7.915   8.051
23760WAT     H271523   2.297   7.760   8.021
23761WAT      O71524   2.181   0.553   6.157
23761WAT     H171525   2.163   0.475   6.218
23761WAT     H271526   2.250   0.527   6.090
23762WAT      O71527   7.818   2.418   3.173
23762WAT     H171528   7.836   2.331   3.127
23762WAT     H271529   7.733   2.458   3.137
23763WAT      O71530   6.261   9.534   2.504
23763WAT     H171531   6.280   9.437   2.522
23763WAT     H271532   6.283   9.587   2.585
23764WAT      O71533   7.472   0.136   5.265
23764WAT     H171534   7.409   0.063   5.291
23764WAT     H271535   7.524   0.165   5.345
23765WAT      O71536   9.738   7.587   1.246
23765WAT     H171537   9.687   7.503   1.264
23765WAT     H271538   9.757   7.594   1.148
23766WAT      O71539   2.799   5.789   1.956
23766WAT     H171540   2.860   5.827   1.887
23766WAT     H271541   2.732   5.728   1.911
23767WAT      O71542   3.003   0.483   6.627
23767WAT     H171543   2.940   0.470   6.703
23767WAT     H271544   2.955   0.465   6.541
23768WAT      O71545   9.186   4.605   9.066
23768WAT     H171546   9.239   4.689   9.079
23768WAT     H271547   9.234   4.544   9.003
23769WAT      O71548   0.045   5.990   0.463
23769WAT     H171549   0.056   5.973   0.365
23769WAT     H271550   0.056   5.904   0.513
23770WAT      O71551   9.646   6.942   4.067
23770WAT     H171552   9.671   6.918   4.161
23770WAT     H271553   9.729   6.955   4.013
23771WAT      O71554   2.596   4.262   8.532
23771WAT     H171555   2.613   4.283   8.629
23771WAT     H271556   2.672   4.209   8.496
23772WAT      O71557   6.502   6.093   3.758
23772WAT     H171558   6.481   6.029   3.833
23772WAT     H271559   6.424   6.153   3.743
23773WAT      O71560   3.295   9.709   7.899
23773WAT     H171561   3.344   9.791   7.872
23773WAT     H271562   3.303   9.639   7.828
23774WAT      O71563   3.193   5.505   5.717
23774WAT     H171564   3.176   5.413   5.682
23774WAT     H271565   3.108   5.544   5.752
23775WAT      O71566   0.209   4.741   1.126
23775WAT     H171567   0.267   4.796   1.065
23775WAT     H271568   0.261   4.662   1.159
23776WAT      O71569   5.253   3.502   0.821
23776WAT     H171570   5.301   3.416   0.837
23776WAT     H271571   5.303   3.556   0.753
23777WAT      O71572   9.719   6.325   5.013
23777WAT     H171573   9.759   6.319   4.921
23777WAT     H271574   9.641   6.264   5.020
23778WAT      O71575   7.555   7.240   0.842
23778WAT     H171576   7.485   7.311   0.840
23778WAT     H271577   7.646   7.283   0.840
23779WAT      O71578   9.504   4.637   6.638
23779WAT     H171579   9.470   4.699   6.709
23779WAT     H271580   9.597   4.608   6.661
23780WAT      O71581   6.984   6.756   5.853
23780WAT     H171582   7.079   6.788   5.851
23780WAT     H271583   6.959   6.720   5.763
23781WAT      O71584   7.416   6.510   7.912
23781WAT     H171585   7.333   6.564   7.926
23781WAT     H271586   7.411   6.463   7.824
23782WAT      O71587   5.661   5.451   7.383
23782WAT     H171588   5.651   5.541   7.340
23782WAT     H271589   5.616   5.382   7.326
23783WAT      O71590   2.936   3.287   5.000
23783WAT     H171591   2.978   3.197   4.989
23783WAT     H271592   2.978   3.351   4.935
23784WAT      O71593   7.833   6.533   0.066
23784WAT     H171594   7.753   6.540   0.006
23784WAT     H271595   7.915   6.559   0.016
23785WAT      O71596   6.467   5.446   8.863
23785WAT     H171597   6.563   5.471   8.851
23785WAT     H271598   6.409   5.515   8.820
23786WAT      O71599   6.550   5.054   0.609
23786WAT     H171600   6.480   4.986   0.590
23786WAT     H271601   6.538   5.089   0.702
23787WAT      O71602   2.772   5.419   6.501
23787WAT     H171603   2.756   5.321   6.514
23787WAT     H271604   2.770   5.440   6.404
23788WAT      O71605   0.248   7.005   0.652
23788WAT     H171606   0.301   6.928   0.687
23788WAT     H271607   0.305   7.061   0.592
23789WAT      O71608   7.687   3.653   3.848
23789WAT     H171609   7.632   3.732   3.821
23789WAT     H271610   7.763   3.642   3.784
23790WAT      O71611   9.752   6.949   4.306
23790WAT     H171612   9.852   6.950   4.310
23790WAT     H271613   9.714   6.976   4.395
23791WAT      O71614   5.962   4.461   7.592
23791WAT     H171615   6.039   4.490   7.649
23791WAT     H271616   5.898   4.407   7.647
23792WAT      O71617   2.559   3.919   7.895
23792WAT     H171618   2.509   3.944   7.977
23792WAT     H271619   2.645   3.874   7.920
23793WAT      O71620   3.499   2.712   0.300
23793WAT     H171621   3.484   2.708   0.399
23793WAT     H271622   3.445   2.641   0.255
23794WAT      O71623   8.085   1.719   2.885
23794WAT     H171624   7.985   1.708   2.891
23794WAT     H271625   8.107   1.813   2.863
23795WAT      O71626   5.475   9.556   9.502
23795WAT     H171627   5.506   9.647   9.474
23795WAT     H271628   5.464   9.554   9.601
23796WAT      O71629   9.202   5.589   9.144
23796WAT     H171630   9.247   5.505   9.173
23796WAT     H271631   9.121   5.605   9.200
23797WAT      O71632   6.413   3.571   1.847
23797WAT     H171633   6.412   3.637   1.923
23797WAT     H271634   6.336   3.590   1.786
23798WAT      O71635   8.677   2.113   0.070
23798WAT     H171636   8.762   2.064   0.051
23798WAT     H271637   8.649   2.094   0.164
23799WAT      O71638   1.267   8.087   6.870
23799WAT     H171639   1.299   7.995   6.893
23799WAT     H271640   1.264   8.097   6.771
23800WAT      O71641   4.385   1.032   6.421
23800WAT     H171642   4.330   1.081   6.489
23800WAT     H271643   4.337   0.949   6.393
23801WAT      O71644   3.537   4.836   2.506
23801WAT     H171645   3.441   4.826   2.532
23801WAT     H271646   3.570   4.926   2.535
23802WAT      O71647   1.022   6.863   3.099
23802WAT     H171648   1.064   6.794   3.040
23802WAT     H271649   0.992   6.940   3.044
23803WAT      O71650   4.692   4.743   9.108
23803WAT     H171651   4.753   4.669   9.136
23803WAT     H271652   4.640   4.775   9.188
23804WAT      O71653   0.814   3.972   5.012
23804WAT     H171654   0.897   3.925   4.982
23804WAT     H271655   0.812   4.064   4.972
23805WAT      O71656   9.032   8.841   1.484
23805WAT     H171657   9.124   8.802   1.489
23805WAT     H271658   9.033   8.920   1.423
23806WAT      O71659   8.989   5.610   3.976
23806WAT     H171660   8.911   5.637   3.920
23806WAT     H271661   8.964   5.614   4.072
23807WAT      O71662   6.691   6.889   0.391
23807WAT     H171663   6.693   6.795   0.357
23807WAT     H271664   6.618   6.940   0.344
23808WAT      O71665   7.814   3.888   0.535
23808WAT     H171666   7.801   3.974   0.585
23808WAT     H271667   7.753   3.885   0.457
23809WAT      O71668   2.665   7.037   6.434
23809WAT     H171669   2.649   6.946   6.472
23809WAT     H271670   2.637   7.107   6.499
23810WAT      O71671   9.392   2.380   8.486
23810WAT     H171672   9.467   2.445   8.490
23810WAT     H271673   9.427   2.287   8.496
23811WAT      O71674   4.728   7.498   1.690
23811WAT     H171675   4.758   7.471   1.781
23811WAT     H271676   4.789   7.569   1.655
23812WAT      O71677   6.328   6.715   3.957
23812WAT     H171678   6.356   6.643   4.021
23812WAT     H271679   6.311   6.799   4.008
23813WAT      O71680   7.361   7.452   5.475
23813WAT     H171681   7.298   7.498   5.537
23813WAT     H271682   7.342   7.480   5.381
23814WAT      O71683   8.542   8.682   5.115
23814WAT     H171684   8.633   8.645   5.096
23814WAT     H271685   8.518   8.748   5.045
23815WAT      O71686   9.766   6.031   2.069
23815WAT     H171687   9.860   6.063   2.082
23815WAT     H271688   9.707   6.108   2.046
23816WAT      O71689   2.974   0.103   4.157
23816WAT     H171690   2.983   0.139   4.250
23816WAT     H271691   2.890   0.049   4.150
23817WAT      O71692   1.180   4.581   1.899
23817WAT     H171693   1.241   4.654   1.869
23817WAT     H271694   1.095   4.620   1.934
23818WAT      O71695   3.951   3.272   6.224
23818WAT     H171696   3.994   3.321   6.148
23818WAT     H271697   3.941   3.334   6.302
23819WAT      O71698   9.379   4.894   8.512
23819WAT     H171699   9.427   4.939   8.586
23819WAT     H271700   9.350   4.962   8.445
23820WAT      O71701   0.660   0.895   2.591
23820WAT     H171702   0.676   0.977   2.535
23820WAT     H271703   0.695   0.911   2.683
23821WAT      O71704   9.388   0.253   5.141
23821WAT     H171705   9.316   0.288   5.201
23821WAT     H271706   9.417   0.326   5.078
23822WAT      O71707   0.677   1.012   9.085
23822WAT     H171708   0.579   1.024   9.098
23822WAT     H271709   0.716   1.098   9.051
23823WAT      O71710   3.806   1.436   1.473
23823WAT     H171711   3.760   1.355   1.438
23823WAT     H271712   3.876   1.466   1.408
23824WAT      O71713   8.145   0.288   6.471
23824WAT     H171714   8.152   0.357   6.399
23824WAT     H271715   8.060   0.303   6.522
23825WAT      O71716   4.282   3.144   8.497
23825WAT     H171717   4.244   3.146   8.405
23825WAT     H271718   4.237   3.214   8.553
23826WAT      O71719   6.656   2.069   0.526
23826WAT     H171720   6.681   2.160   0.558
23826WAT     H271721   6.734   2.007   0.537
23827WAT      O71722   4.082   2.767   0.219
23827WAT     H171723   4.040   2.834   0.158
23827WAT     H271724   4.096   2.681   0.170
23828WAT      O71725   7.779   4.106   0.063
23828WAT     H171726   7.733   4.086  -0.023
23828WAT     H271727   7.876   4.121   0.047
23829WAT      O71728   2.911   8.669   9.889
23829WAT     H171729   3.001   8.705   9.916
23829WAT     H271730   2.916   8.570   9.878
23830WAT      O71731   5.794   2.819   1.517
23830WAT     H171732   5.730   2.806   1.592
23830WAT     H271733   5.877   2.765   1.533
23831WAT      O71734   9.800   5.215   6.151
23831WAT     H171735   9.861   5.273   6.097
23831WAT     H271736   9.820   5.119   6.132
23832WAT      O71737   7.097   3.860   4.446
23832WAT     H171738   7.051   3.895   4.528
23832WAT     H271739   7.112   3.762   4.456
23833WAT      O71740   5.737   4.602   3.695
23833WAT     H171741   5.678   4.658   3.751
23833WAT     H271742   5.739   4.638   3.601
23834WAT      O71743   6.633   9.631   0.017
23834WAT     H171744   6.676   9.685   0.089
23834WAT     H271745   6.621   9.537   0.049
23835WAT      O71746   8.338   4.166   8.680
23835WAT     H171747   8.258   4.111   8.704
23835WAT     H271748   8.314   4.230   8.607
23836WAT      O71749   2.221   5.852   4.286
23836WAT     H171750   2.296   5.886   4.344
23836WAT     H271751   2.134   5.886   4.323
23837WAT      O71752   3.993   6.141   1.491
23837WAT     H171753   3.939   6.089   1.426
23837WAT     H271754   3.970   6.239   1.482
23838WAT      O71755   6.368   9.299   5.922
23838WAT     H171756   6.341   9.392   5.895
23838WAT     H271757   6.286   9.243   5.933
23839WAT      O71758   8.143   1.810   3.206
23839WAT     H171759   8.052   1.772   3.189
23839WAT     H271760   8.145   1.905   3.176
23840WAT      O71761   1.962   3.420   2.995
23840WAT     H171762   1.941   3.392   2.901
23840WAT     H271763   1.884   3.470   3.032
23841WAT      O71764   5.761   9.378   9.500
23841WAT     H171765   5.698   9.415   9.432
23841WAT     H271766   5.854   9.384   9.466
23842WAT      O71767   5.742   7.207   6.559
23842WAT     H171768   5.706   7.254   6.479
23842WAT     H271769   5.842   7.200   6.552
23843WAT      O71770   2.920   2.922   8.875
23843WAT     H171771   2.885   2.883   8.960
23843WAT     H271772   2.876   3.010   8.858
23844WAT      O71773   3.288   1.689   6.823
23844WAT     H171774   3.194   1.678   6.791
23844WAT     H271775   3.341   1.607   6.801
23845WAT      O71776   1.206   5.138   4.826
23845WAT     H171777   1.244   5.116   4.736
23845WAT     H271778   1.152   5.222   4.820
23846WAT      O71779   0.755   5.578   8.750
23846WAT     H171780   0.700   5.511   8.699
23846WAT     H271781   0.786   5.650   8.689
23847WAT      O71782   6.537   1.830   3.268
23847WAT     H171783   6.597   1.809   3.345
23847WAT     H271784   6.593   1.861   3.191
23848WAT      O71785   7.598   2.881   7.183
23848WAT     H171786   7.575   2.791   7.220
23848WAT     H271787   7.525   2.912   7.122
23849WAT      O71788   1.206   7.212   2.970
23849WAT     H171789   1.115   7.184   2.939
23849WAT     H271790   1.213   7.200   3.069
23850WAT      O71791   0.914   5.084   9.234
23850WAT     H171792   0.947   5.073   9.141
23850WAT     H271793   0.944   5.172   9.270
23851WAT      O71794   1.742   5.119   4.342
23851WAT     H171795   1.704   5.028   4.358
23851WAT     H271796   1.682   5.188   4.383
23852WAT      O71797   4.302   6.109   5.883
23852WAT     H171798   4.252   6.131   5.800
23852WAT     H271799   4.396   6.144   5.876
23853WAT      O71800   1.526   4.446   1.369
23853WAT     H171801   1.508   4.361   1.319
23853WAT     H271802   1.622   4.472   1.357
23854WAT      O71803   0.682   9.263   1.259
23854WAT     H171804   0.676   9.221   1.169
23854WAT     H271805   0.721   9.197   1.324
23855WAT      O71806   5.783   5.914   1.834
23855WAT     H171807   5.827   5.826   1.850
23855WAT     H271808   5.835   5.966   1.766
23856WAT      O71809   8.942   2.918   2.428
23856WAT     H171810   9.007   2.992   2.413
23856WAT     H271811   8.875   2.918   2.353
23857WAT      O71812   1.484   2.322   6.869
23857WAT     H171813   1.471   2.227   6.899
23857WAT     H271814   1.417   2.380   6.914
23858WAT      O71815   7.258   8.117   6.130
23858WAT     H171816   7.208   8.203   6.133
23858WAT     H271817   7.356   8.135   6.140
23859WAT      O71818   9.207   7.226   5.644
23859WAT     H171819   9.268   7.185   5.575
23859WAT     H271820   9.240   7.317   5.666
23860WAT      O71821   5.999   1.848   7.936
23860WAT     H171822   5.984   1.818   8.030
23860WAT     H271823   6.061   1.926   7.935
23861WAT      O71824   5.078   3.524   4.312
23861WAT     H171825   5.029   3.456   4.368
23861WAT     H271826   5.135   3.581   4.371
23862WAT      O71827   9.869   1.026   1.715
23862WAT     H171828   9.773   1.049   1.732
23862WAT     H271829   9.887   0.932   1.743
23863WAT      O71830   7.975   5.283   3.907
23863WAT     H171831   8.042   5.319   3.972
23863WAT     H271832   7.897   5.345   3.901
23864WAT      O71833   4.034   8.505   6.133
23864WAT     H171834   3.936   8.526   6.138
23864WAT     H271835   4.051   8.417   6.178
23865WAT      O71836   6.836   0.879   7.287
23865WAT     H171837   6.927   0.858   7.321
23865WAT     H271838   6.841   0.951   7.218
23866WAT      O71839   4.514   8.767   4.528
23866WAT     H171840   4.442   8.819   4.573
23866WAT     H271841   4.552   8.700   4.592
23867WAT      O71842   6.828   2.775   2.976
23867WAT     H171843   6.904   2.762   2.911
23867WAT     H271844   6.777   2.857   2.952
23868WAT      O71845   1.854   2.452   3.315
23868WAT     H171846   1.951   2.437   3.297
23868WAT     H271847   1.805   2.364   3.310
23869WAT      O71848   1.316   0.005   8.130
23869WAT     H171849   1.396   0.016   8.189
23869WAT     H271850   1.272   0.094   8.118
23870WAT      O71851   6.098   5.359   7.086
23870WAT     H171852   6.185   5.380   7.129
23870WAT     H271853   6.027   5.347   7.156
23871WAT      O71854   8.537   2.256   7.938
23871WAT     H171855   8.601   2.195   7.987
23871WAT     H271856   8.444   2.238   7.969
23872WAT      O71857   8.585   0.690   1.078
23872WAT     H171858   8.595   0.782   1.039
23872WAT     H271859   8.673   0.661   1.116
23873WAT      O71860   8.432   7.506   4.760
23873WAT     H171861   8.374   7.467   4.832
23873WAT     H271862   8.474   7.590   4.794
23874WAT      O71863   8.201   6.443   9.367
23874WAT     H171864   8.198   6.343   9.362
23874WAT     H271865   8.140   6.482   9.298
23875WAT      O71866   1.404   5.485   2.669
23875WAT     H171867   1.412   5.545   2.589
23875WAT     H271868   1.329   5.421   2.655
23876WAT      O71869   0.753   6.009   5.743
23876WAT     H171870   0.661   6.009   5.782
23876WAT     H271871   0.747   6.007   5.643
23877WAT      O71872   0.342   5.630   2.267
23877WAT     H171873   0.309   5.712   2.315
23877WAT     H271874   0.374   5.655   2.176
23878WAT      O71875   7.240   3.235   9.584
23878WAT     H171876   7.332   3.194   9.587
23878WAT     H271877   7.191   3.210   9.668
23879WAT      O71878   0.973   3.446   2.624
23879WAT     H171879   0.987   3.527   2.680
23879WAT     H271880   1.061   3.401   2.607
23880WAT      O71881   4.907   6.588   8.009
23880WAT     H171882   4.920   6.631   7.920
23880WAT     H271883   4.997   6.571   8.051
23881WAT      O71884   5.669   4.296   3.164
23881WAT     H171885   5.743   4.294   3.232
23881WAT     H271886   5.687   4.367   3.097
23882WAT      O71887   9.161   3.264   6.021
23882WAT     H171888   9.211   3.177   6.023
23882WAT     H271889   9.126   3.280   5.929
23883WAT      O71890   5.682   0.666   2.578
23883WAT     H171891   5.722   0.646   2.668
23883WAT     H271892   5.643   0.758   2.578
23884WAT      O71893   7.160   9.332   9.676
23884WAT     H171894   7.180   9.422   9.636
23884WAT     H271895   7.177   9.335   9.774
23885WAT      O71896   0.627   0.849   2.005
23885WAT     H171897   0.673   0.920   1.952
23885WAT     H271898   0.658   0.853   2.100
23886WAT      O71899   6.691   4.849   1.762
23886WAT     H171900   6.781   4.825   1.799
23886WAT     H271901   6.654   4.771   1.712
23887WAT      O71902   7.609   9.385   1.341
23887WAT     H171903   7.644   9.318   1.407
23887WAT     H271904   7.538   9.341   1.285
23888WAT      O71905   4.018   7.338   2.388
23888WAT     H171906   4.052   7.398   2.460
23888WAT     H271907   3.998   7.248   2.426
23889WAT      O71908   7.990   5.754   7.998
23889WAT     H171909   7.902   5.713   7.976
23889WAT     H271910   7.993   5.848   7.963
23890WAT      O71911   5.439   6.068   3.695
23890WAT     H171912   5.449   6.089   3.792
23890WAT     H271913   5.343   6.082   3.669
23891WAT      O71914   0.144   6.994   4.407
23891WAT     H171915   0.154   6.953   4.498
23891WAT     H271916   0.205   7.072   4.398
23892WAT      O71917   1.946   7.060   7.526
23892WAT     H171918   1.859   7.100   7.556
23892WAT     H271919   2.005   7.046   7.605
23893WAT      O71920   5.732   5.433   6.910
23893WAT     H171921   5.761   5.350   6.956
23893WAT     H271922   5.812   5.493   6.896
23894WAT      O71923   6.742   7.992   2.671
23894WAT     H171924   6.642   7.989   2.676
23894WAT     H271925   6.780   7.908   2.711
23895WAT      O71926   1.734   1.566   9.836
23895WAT     H171927   1.645   1.610   9.853
23895WAT     H271928   1.785   1.561   9.922
23896WAT      O71929   9.524   2.186   0.802
23896WAT     H171930   9.553   2.104   0.754
23896WAT     H271931   9.582   2.263   0.775
23897WAT      O71932   3.278   2.210   3.441
23897WAT     H171933   3.268   2.110   3.436
23897WAT     H271934   3.259   2.240   3.535
23898WAT      O71935   4.063   4.423   4.616
23898WAT     H171936   4.011   4.455   4.537
23898WAT     H271937   4.155   4.397   4.587
23899WAT      O71938   2.744   7.293   9.016
23899WAT     H171939   2.784   7.237   8.944
23899WAT     H271940   2.669   7.347   8.977
23900WAT      O71941   6.278   2.522   1.945
23900WAT     H171942   6.323   2.542   2.032
23900WAT     H271943   6.200   2.583   1.932
23901WAT      O71944   8.854   6.325   8.817
23901WAT     H171945   8.944   6.290   8.840
23901WAT     H271946   8.832   6.303   8.722
23902WAT      O71947   8.376   3.988   5.596
23902WAT     H171948   8.440   3.911   5.597
23902WAT     H271949   8.327   3.993   5.683
23903WAT      O71950   4.434   0.656   5.064
23903WAT     H171951   4.406   0.713   4.987
23903WAT     H271952   4.356   0.599   5.093
23904WAT      O71953   7.785   2.940   4.377
23904WAT     H171954   7.729   2.978   4.303
23904WAT     H271955   7.779   3.000   4.457
23905WAT      O71956   5.186   3.758   9.123
23905WAT     H171957   5.124   3.679   9.116
23905WAT     H271958   5.270   3.731   9.169
23906WAT      O71959   6.402   6.416   8.705
23906WAT     H171960   6.450   6.385   8.623
23906WAT     H271961   6.368   6.337   8.756
23907WAT      O71962   8.323   2.757   7.932
23907WAT     H171963   8.420   2.748   7.954
23907WAT     H271964   8.276   2.671   7.953
23908WAT      O71965   5.940   3.274   3.514
23908WAT     H171966   5.899   3.298   3.602
23908WAT     H271967   5.900   3.188   3.480
23909WAT      O71968   9.188   8.537   0.148
23909WAT     H171969   9.221   8.547   0.242
23909WAT     H271970   9.162   8.626   0.112
23910WAT      O71971   7.814   5.498   3.846
23910WAT     H171972   7.849   5.488   3.753
23910WAT     H271973   7.847   5.584   3.885
23911WAT      O71974   9.270   0.070   0.298
23911WAT     H171975   9.276   0.081   0.199
23911WAT     H271976   9.228   0.152   0.338
23912WAT      O71977   9.574   0.496   4.637
23912WAT     H171978   9.501   0.432   4.660
23912WAT     H271979   9.550   0.587   4.669
23913WAT      O71980   7.678   0.148   6.078
23913WAT     H171981   7.773   0.121   6.062
23913WAT     H271982   7.666   0.169   6.175
23914WAT      O71983   0.395   6.029   9.895
23914WAT     H171984   0.313   6.065   9.851
23914WAT     H271985   0.476   6.055   9.842
23915WAT      O71986   3.741   6.407   8.464
23915WAT     H171987   3.679   6.368   8.532
23915WAT     H271988   3.754   6.342   8.389
23916WAT      O71989   9.052   7.462   5.339
23916WAT     H171990   9.114   7.522   5.390
23916WAT     H271991   9.106   7.393   5.290
23917WAT      O71992   5.500   0.018   6.103
23917WAT     H171993   5.524   0.079   6.178
23917WAT     H271994   5.435  -0.051   6.135
23918WAT      O71995   1.605   5.983   7.509
23918WAT     H171996   1.601   5.933   7.422
23918WAT     H271997   1.622   6.080   7.490
23919WAT      O71998   9.376   4.173   6.302
23919WAT     H171999   9.334   4.109   6.365
23919WAT     H272000   9.475   4.172   6.314
23920WAT      O72001   0.220   3.390   1.753
23920WAT     H172002   0.155   3.455   1.713
23920WAT     H272003   0.312   3.409   1.717
23921WAT      O72004   6.058   0.448   6.317
23921WAT     H172005   6.012   0.398   6.244
23921WAT     H272006   6.128   0.389   6.358
23922WAT      O72007   6.794   5.120   4.847
23922WAT     H172008   6.744   5.069   4.917
23922WAT     H272009   6.740   5.123   4.763
23923WAT      O72010   7.882   7.233   7.739
23923WAT     H172011   7.853   7.206   7.647
23923WAT     H272012   7.968   7.187   7.762
23924WAT      O72013   4.057   9.489   9.734
23924WAT     H172014   4.053   9.424   9.657
23924WAT     H272015   3.975   9.478   9.790
23925WAT      O72016   0.864   6.524   6.005
23925WAT     H172017   0.939   6.553   6.065
23925WAT     H272018   0.893   6.447   5.949
23926WAT      O72019   5.052   6.887   5.781
23926WAT     H172020   5.086   6.793   5.780
23926WAT     H272021   5.068   6.929   5.692
23927WAT      O72022   0.687   2.877   1.048
23927WAT     H172023   0.680   2.853   0.951
23927WAT     H272024   0.606   2.844   1.096
23928WAT      O72025   1.595   3.192   0.031
23928WAT     H172026   1.601   3.115   0.095
23928WAT     H272027   1.541   3.165  -0.049
23929WAT      O72028   2.637   0.757   4.026
23929WAT     H172029   2.609   0.680   4.083
23929WAT     H272030   2.648   0.838   4.082
23930WAT      O72031   1.410   0.671   6.352
23930WAT     H172032   1.319   0.683   6.392
23930WAT     H272033   1.425   0.739   6.280
23931WAT      O72034   5.124   3.016   7.070
23931WAT     H172035   5.190   3.063   7.012
23931WAT     H272036   5.170   2.946   7.124
23932WAT      O72037   7.988   2.980   9.504
23932WAT     H172038   7.922   2.920   9.458
23932WAT     H272039   8.044   2.926   9.566
23933WAT      O72040   1.626   8.592   2.426
23933WAT     H172041   1.707   8.643   2.398
23933WAT     H272042   1.598   8.531   2.352
23934WAT      O72043   8.829   2.176   3.454
23934WAT     H172044   8.889   2.255   3.447
23934WAT     H272045   8.738   2.206   3.484
23935WAT      O72046   0.168   5.672   6.977
23935WAT     H172047   0.235   5.640   6.910
23935WAT     H272048   0.207   5.662   7.069
23936WAT      O72049   7.941   9.035   4.311
23936WAT     H172050   8.028   9.039   4.360
23936WAT     H272051   7.958   9.039   4.212
23937WAT      O72052   9.541   4.645   9.278
23937WAT     H172053   9.616   4.671   9.339
23937WAT     H272054   9.477   4.587   9.328
23938WAT      O72055   0.056   7.105   4.089
23938WAT     H172056   0.092   7.179   4.032
23938WAT     H272057   0.032   7.143   4.179
23939WAT      O72058   6.233   0.807   5.342
23939WAT     H172059   6.205   0.721   5.300
23939WAT     H272060   6.297   0.789   5.416
23940WAT      O72061   4.006   3.423   6.719
23940WAT     H172062   4.026   3.502   6.660
23940WAT     H272063   3.907   3.408   6.721
23941WAT      O72064   5.146   7.501   5.791
23941WAT     H172065   5.072   7.569   5.791
23941WAT     H272066   5.137   7.442   5.871
23942WAT      O72067   8.598   0.696   2.152
23942WAT     H172068   8.574   0.789   2.180
23942WAT     H272069   8.514   0.644   2.136
23943WAT      O72070   6.428   6.285   1.014
23943WAT     H172071   6.473   6.343   1.082
23943WAT     H272072   6.330   6.283   1.031
23944WAT      O72073   4.503   7.212   8.459
23944WAT     H172074   4.420   7.204   8.514
23944WAT     H272075   4.582   7.217   8.519
23945WAT      O72076   1.178   3.724   7.190
23945WAT     H172077   1.184   3.625   7.196
23945WAT     H272078   1.082   3.751   7.178
23946WAT      O72079   4.061   8.380   8.399
23946WAT     H172080   4.145   8.428   8.424
23946WAT     H272081   4.001   8.373   8.478
23947WAT      O72082   3.204   9.410   2.444
23947WAT     H172083   3.193   9.509   2.453
23947WAT     H272084   3.283   9.379   2.497
23948WAT      O72085   5.271   2.616   7.096
23948WAT     H172086   5.332   2.670   7.038
23948WAT     H272087   5.256   2.526   7.054
23949WAT      O72088   2.359   4.582   2.908
23949WAT     H172089   2.274   4.563   2.958
23949WAT     H272090   2.358   4.677   2.876
23950WAT      O72091   7.559   5.454   3.497
23950WAT     H172092   7.583   5.506   3.578
23950WAT     H272093   7.485   5.501   3.447
23951WAT      O72094   0.341   2.638   7.302
23951WAT     H172095   0.427   2.683   7.325
23951WAT     H272096   0.289   2.621   7.386
23952WAT      O72097   1.122   2.818   1.797
23952WAT     H172098   1.206   2.849   1.753
23952WAT     H272099   1.045   2.825   1.733
23953WAT      O72100   8.644   4.517   7.994
23953WAT     H172101   8.700   4.447   8.038
23953WAT     H272102   8.554   4.480   7.973
23954WAT      O72103   3.032   7.502   9.873
23954WAT     H172104   3.070   7.432   9.934
23954WAT     H272105   3.043   7.471   9.778
23955WAT      O72106   8.236   6.945   1.020
23955WAT     H172107   8.255   6.908   1.111
23955WAT     H272108   8.137   6.950   1.006
23956WAT      O72109   6.628   1.145   0.580
23956WAT     H172110   6.698   1.075   0.569
23956WAT     H272111   6.670   1.229   0.615
23957WAT      O72112   3.008   3.143   5.624
23957WAT     H172113   2.982   3.201   5.701
23957WAT     H272114   3.024   3.050   5.656
23958WAT      O72115   3.298   6.803   3.944
23958WAT     H172116   3.287   6.759   4.033
23958WAT     H272117   3.231   6.877   3.935
23959WAT      O72118   4.732   9.027   7.299
23959WAT     H172119   4.811   8.970   7.320
23959WAT     H272120   4.682   9.047   7.383
23960WAT      O72121   6.748   3.677   8.093
23960WAT     H172122   6.780   3.643   8.182
23960WAT     H272123   6.694   3.607   8.048
23961WAT      O72124   2.186   0.340   4.526
23961WAT     H172125   2.159   0.420   4.472
23961WAT     H272126   2.147   0.346   4.617
23962WAT      O72127   1.546   0.131   5.277
23962WAT     H172128   1.602   0.087   5.207
23962WAT     H272129   1.509   0.062   5.338
23963WAT      O72130   8.709   4.042   8.877
23963WAT     H172131   8.667   4.120   8.831
23963WAT     H272132   8.768   4.075   8.951
23964WAT      O72133   9.109   2.613   4.591
23964WAT     H172134   9.123   2.563   4.505
23964WAT     H272135   9.188   2.598   4.651
23965WAT      O72136   6.575   7.112   3.988
23965WAT     H172137   6.585   7.211   3.985
23965WAT     H272138   6.540   7.085   4.078
23966WAT      O72139   6.712   3.030   3.794
23966WAT     H172140   6.732   3.081   3.710
23966WAT     H272141   6.716   3.092   3.872
23967WAT      O72142   5.906   8.939   6.865
23967WAT     H172143   5.833   8.993   6.824
23967WAT     H272144   5.960   8.998   6.926
23968WAT      O72145   9.052   6.904   3.073
23968WAT     H172146   9.040   6.882   3.170
23968WAT     H272147   8.977   6.963   3.044
23969WAT      O72148   2.233   3.244   3.328
23969WAT     H172149   2.262   3.234   3.232
23969WAT     H272150   2.308   3.282   3.382
23970WAT      O72151   4.696   4.323   5.044
23970WAT     H172152   4.785   4.366   5.040
23970WAT     H272153   4.625   4.390   5.021
23971WAT      O72154   1.149   0.071   7.423
23971WAT     H172155   1.188  -0.012   7.384
23971WAT     H272156   1.054   0.081   7.394
23972WAT      O72157   7.432   4.751   7.425
23972WAT     H172158   7.415   4.655   7.401
23972WAT     H272159   7.345   4.796   7.442
23973WAT      O72160   3.720   2.135   1.425
23973WAT     H172161   3.664   2.166   1.502
23973WAT     H272162   3.696   2.041   1.401
23974WAT      O72163   8.395   6.435   0.610
23974WAT     H172164   8.475   6.391   0.653
23974WAT     H272165   8.394   6.532   0.632
23975WAT      O72166   3.409   3.877   8.163
23975WAT     H172167   3.347   3.800   8.179
23975WAT     H272168   3.387   3.951   8.227
23976WAT      O72169   4.513   7.317   2.405
23976WAT     H172170   4.578   7.250   2.441
23976WAT     H272171   4.545   7.409   2.426
23977WAT      O72172   7.469   4.608   8.360
23977WAT     H172173   7.515   4.567   8.281
23977WAT     H272174   7.384   4.559   8.378
23978WAT      O72175   5.676   9.062   3.227
23978WAT     H172176   5.772   9.086   3.239
23978WAT     H272177   5.623   9.145   3.212
23979WAT      O72178   2.678   7.177   2.714
23979WAT     H172179   2.583   7.151   2.727
23979WAT     H272180   2.723   7.112   2.654
23980WAT      O72181   5.994   3.571   6.675
23980WAT     H172182   5.930   3.579   6.751
23980WAT     H272183   5.984   3.650   6.614
23981WAT      O72184   0.998   8.092   2.825
23981WAT     H172185   0.983   8.185   2.792
23981WAT     H272186   0.911   8.044   2.828
23982WAT      O72187   5.450   5.296   6.380
23982WAT     H172188   5.415   5.373   6.326
23982WAT     H272189   5.509   5.331   6.453
23983WAT      O72190   0.817   5.543   0.387
23983WAT     H172191   0.797   5.638   0.366
23983WAT     H272192   0.838   5.493   0.303
23984WAT      O72193   8.166   9.640   4.210
23984WAT     H172194   8.166   9.732   4.171
23984WAT     H272195   8.077   9.598   4.195
23985WAT      O72196   2.174   5.425   4.035
23985WAT     H172197   2.124   5.341   4.012
23985WAT     H272198   2.197   5.474   3.951
23986WAT      O72199   3.007   4.692   7.919
23986WAT     H172200   2.964   4.706   7.830
23986WAT     H272201   3.106   4.690   7.908
23987WAT      O72202   1.554   2.781   8.560
23987WAT     H172203   1.608   2.721   8.618
23987WAT     H272204   1.501   2.726   8.495
23988WAT      O72205   1.048   1.064   9.577
23988WAT     H172206   1.124   1.119   9.541
23988WAT     H272207   1.009   1.110   9.656
23989WAT      O72208   0.303   7.754   6.350
23989WAT     H172209   0.360   7.677   6.377
23989WAT     H272210   0.208   7.724   6.340
23990WAT      O72211   2.187   1.643   3.802
23990WAT     H172212   2.263   1.629   3.866
23990WAT     H272213   2.173   1.559   3.749
23991WAT      O72214   3.674   9.152   0.408
23991WAT     H172215   3.678   9.241   0.363
23991WAT     H272216   3.754   9.098   0.381
23992WAT      O72217   5.641   0.459   2.261
23992WAT     H172218   5.648   0.540   2.203
23992WAT     H272219   5.571   0.473   2.331
23993WAT      O72220   0.293   9.046   1.399
23993WAT     H172221   0.303   8.952   1.365
23993WAT     H272222   0.277   9.108   1.322
23994WAT      O72223   2.076   7.755   2.702
23994WAT     H172224   2.022   7.839   2.705
23994WAT     H272225   2.167   7.772   2.738
23995WAT      O72226   6.268   4.195   9.058
23995WAT     H172227   6.210   4.261   9.106
23995WAT     H272228   6.316   4.241   8.983
23996WAT      O72229   8.440   2.013   3.299
23996WAT     H172230   8.502   2.091   3.296
23996WAT     H272231   8.406   1.994   3.207
23997WAT      O72232   4.714   0.038   5.290
23997WAT     H172233   4.813   0.020   5.292
23997WAT     H272234   4.664  -0.046   5.307
23998WAT      O72235   9.131   8.481   2.680
23998WAT     H172236   9.174   8.522   2.600
23998WAT     H272237   9.032   8.480   2.669
23999WAT      O72238   1.132   1.884   6.825
23999WAT     H172239   1.161   1.793   6.792
23999WAT     H272240   1.038   1.901   6.796
24000WAT      O72241   2.724   2.565   2.579
24000WAT     H172242   2.815   2.527   2.561
24000WAT     H272243   2.659   2.491   2.593
24001WAT      O72244   7.739   1.734   0.089
24001WAT     H172245   7.795   1.705   0.011
24001WAT     H272246   7.762   1.828   0.114
24002WAT      O72247   8.496   0.148   3.766
24002WAT     H172248   8.517   0.070   3.826
24002WAT     H272249   8.403   0.140   3.732
24003WAT      O72250   3.672   2.684   1.147
24003WAT     H172251   3.748   2.737   1.184
24003WAT     H272252   3.586   2.716   1.186
24004WAT      O72253   8.006   6.814   2.088
24004WAT     H172254   8.015   6.733   2.147
24004WAT     H272255   7.968   6.786   2.000
24005WAT      O72256   9.690   1.728   4.438
24005WAT     H172257   9.728   1.819   4.420
24005WAT     H272258   9.648   1.727   4.528
24006WAT      O72259   3.067   6.588   3.803
24006WAT     H172260   3.003   6.642   3.857
24006WAT     H272261   3.138   6.550   3.863
24007WAT      O72262   3.406   1.955   5.076
24007WAT     H172263   3.478   1.960   5.146
24007WAT     H272264   3.326   1.909   5.114
24008WAT      O72265   9.066   5.243   9.269
24008WAT     H172266   9.114   5.210   9.187
24008WAT     H272267   9.086   5.182   9.346
24009WAT      O72268   8.862   2.157   3.899
24009WAT     H172269   8.851   2.073   3.846
24009WAT     H272270   8.803   2.152   3.980
24010WAT      O72271   1.685   8.896   8.088
24010WAT     H172272   1.715   8.929   7.999
24010WAT     H272273   1.716   8.801   8.101
24011WAT      O72274   0.315   2.742   2.504
24011WAT     H172275   0.275   2.815   2.448
24011WAT     H272276   0.248   2.667   2.513
24012WAT      O72277   8.804   7.967   9.230
24012WAT     H172278   8.870   7.892   9.221
24012WAT     H272279   8.852   8.053   9.244
24013WAT      O72280   5.328   9.141   9.050
24013WAT     H172281   5.256   9.209   9.034
24013WAT     H272282   5.305   9.057   9.000
24014WAT      O72283   3.518   9.493   8.637
24014WAT     H172284   3.465   9.421   8.682
24014WAT     H272285   3.479   9.510   8.546
24015WAT      O72286   2.366   7.116   8.114
24015WAT     H172287   2.323   7.170   8.185
24015WAT     H272288   2.366   7.019   8.141
24016WAT      O72289   0.750   9.422   9.846
24016WAT     H172290   0.692   9.389   9.771
24016WAT     H272291   0.846   9.413   9.819
24017WAT      O72292   1.870   6.964   6.863
24017WAT     H172293   1.909   7.041   6.813
24017WAT     H272294   1.771   6.971   6.862
24018WAT      O72295   3.067   5.922   2.450
24018WAT     H172296   3.126   6.002   2.438
24018WAT     H272297   3.118   5.839   2.427
24019WAT      O72298   6.552   6.979   2.151
24019WAT     H172299   6.522   6.997   2.245
24019WAT     H272300   6.628   6.914   2.152
24020WAT      O72301   8.357   4.478   1.077
24020WAT     H172302   8.384   4.419   1.000
24020WAT     H272303   8.262   4.460   1.101
24021WAT      O72304   2.052   2.450   8.052
24021WAT     H172305   2.051   2.350   8.045
24021WAT     H272306   2.044   2.489   7.960
24022WAT      O72307   0.743   1.457   7.762
24022WAT     H172308   0.675   1.520   7.799
24022WAT     H272309   0.834   1.487   7.788
24023WAT      O72310   0.665   6.141   6.821
24023WAT     H172311   0.600   6.066   6.807
24023WAT     H272312   0.638   6.219   6.765
24024WAT      O72313   0.141   8.598   6.662
24024WAT     H172314   0.198   8.542   6.723
24024WAT     H272315   0.199   8.644   6.595
24025WAT      O72316   8.233   1.673   2.311
24025WAT     H172317   8.199   1.706   2.399
24025WAT     H272318   8.260   1.577   2.320
24026WAT      O72319   7.188   6.061   3.277
24026WAT     H172320   7.157   6.102   3.192
24026WAT     H272321   7.129   5.983   3.300
24027WAT      O72322   5.449   8.626   0.774
24027WAT     H172323   5.505   8.700   0.738
24027WAT     H272324   5.481   8.539   0.736
24028WAT      O72325   0.320   0.448   8.153
24028WAT     H172326   0.310   0.349   8.146
24028WAT     H272327   0.385   0.470   8.225
24029WAT      O72328   2.943   4.488   8.514
24029WAT     H172329   2.988   4.458   8.430
24029WAT     H272330   2.878   4.561   8.493
24030WAT      O72331   6.260   5.907   8.736
24030WAT     H172332   6.262   5.948   8.644
24030WAT     H272333   6.194   5.957   8.793
24031WAT      O72334   1.922   9.587   7.862
24031WAT     H172335   1.887   9.674   7.897
24031WAT     H272336   1.846   9.523   7.848
24032WAT      O72337   6.061   0.559   4.775
24032WAT     H172338   6.091   0.508   4.856
24032WAT     H272339   5.979   0.611   4.798
24033WAT      O72340   4.551   4.801   8.449
24033WAT     H172341   4.546   4.890   8.404
24033WAT     H272342   4.472   4.790   8.510
24034WAT      O72343   0.651   4.007   0.090
24034WAT     H172344   0.590   3.934   0.124
24034WAT     H272345   0.597   4.089   0.073
24035WAT      O72346   7.691   6.557   5.677
24035WAT     H172347   7.643   6.602   5.752
24035WAT     H272348   7.679   6.610   5.593
24036WAT      O72349   7.285   4.914   6.827
24036WAT     H172350   7.365   4.863   6.859
24036WAT     H272351   7.216   4.914   6.899
24037WAT      O72352   6.404   5.837   2.535
24037WAT     H172353   6.501   5.818   2.519
24037WAT     H272354   6.394   5.924   2.583
24038WAT      O72355   2.648   1.526   1.917
24038WAT     H172356   2.568   1.467   1.905
24038WAT     H272357   2.709   1.517   1.839
24039WAT      O72358   3.960   4.181   9.849
24039WAT     H172359   4.001   4.263   9.809
24039WAT     H272360   4.016   4.101   9.825
24040WAT      O72361   8.748   9.205   9.417
24040WAT     H172362   8.689   9.158   9.483
24040WAT     H272363   8.722   9.301   9.411
24041WAT      O72364   4.066   4.160   3.848
24041WAT     H172365   4.051   4.253   3.814
24041WAT     H272366   3.980   4.109   3.846
24042WAT      O72367   0.019   7.890   2.361
24042WAT     H172368   0.029   7.826   2.285
24042WAT     H272369  -0.034   7.846   2.434
24043WAT      O72370   4.587   0.724   7.715
24043WAT     H172371   4.495   0.693   7.691
24043WAT     H272372   4.646   0.644   7.727
24044WAT      O72373   1.931   3.054   9.737
24044WAT     H172374   1.963   3.139   9.695
24044WAT     H272375   2.007   2.989   9.745
24045WAT      O72376   2.843   6.694   1.695
24045WAT     H172377   2.931   6.721   1.656
24045WAT     H272378   2.784   6.659   1.622
24046WAT      O72379   5.156   7.490   1.688
24046WAT     H172380   5.078   7.466   1.746
24046WAT     H272381   5.234   7.432   1.712
24047WAT      O72382   7.919   2.985   7.581
24047WAT     H172383   7.963   2.895   7.587
24047WAT     H272384   7.830   2.975   7.538
24048WAT      O72385   3.325   6.324   7.847
24048WAT     H172386   3.413   6.304   7.803
24048WAT     H272387   3.289   6.241   7.890
24049WAT      O72388   0.222   4.139   3.247
24049WAT     H172389   0.219   4.212   3.179
24049WAT     H272390   0.192   4.053   3.205
24050WAT      O72391   3.437   3.896   2.115
24050WAT     H172392   3.530   3.897   2.151
24050WAT     H272393   3.420   3.981   2.064
24051WAT      O72394   7.421   0.436   5.953
24051WAT     H172395   7.498   0.499   5.949
24051WAT     H272396   7.339   0.481   5.918
24052WAT      O72397   5.221   4.233   1.735
24052WAT     H172398   5.301   4.253   1.679
24052WAT     H272399   5.138   4.257   1.684
24053WAT      O72400   2.250   5.124   1.673
24053WAT     H172401   2.220   5.175   1.753
24053WAT     H272402   2.336   5.077   1.693
24054WAT      O72403   7.461   1.490   4.732
24054WAT     H172404   7.416   1.426   4.669
24054WAT     H272405   7.445   1.584   4.702
24055WAT      O72406   8.983   5.305   8.780
24055WAT     H172407   8.937   5.217   8.764
24055WAT     H272408   9.082   5.291   8.778
24056WAT      O72409   3.901   4.608   6.854
24056WAT     H172410   3.933   4.517   6.828
24056WAT     H272411   3.980   4.667   6.873
24057WAT      O72412   0.439   5.182   9.520
24057WAT     H172413   0.419   5.104   9.462
24057WAT     H272414   0.537   5.203   9.515
24058WAT      O72415   4.369   2.307   2.995
24058WAT     H172416   4.406   2.240   3.058
24058WAT     H272417   4.438   2.331   2.927
24059WAT      O72418   6.827   7.651   8.879
24059WAT     H172419   6.790   7.671   8.788
24059WAT     H272420   6.903   7.586   8.870
24060WAT      O72421   6.193   3.599   3.624
24060WAT     H172422   6.162   3.513   3.583
24060WAT     H272423   6.291   3.609   3.609
24061WAT      O72424   2.835   7.247   2.948
24061WAT     H172425   2.820   7.181   3.021
24061WAT     H272426   2.774   7.227   2.872
24062WAT      O72427   5.982   6.175   7.965
24062WAT     H172428   5.925   6.253   7.939
24062WAT     H272429   6.054   6.162   7.897
24063WAT      O72430   5.052   8.731   4.630
24063WAT     H172431   4.999   8.683   4.700
24063WAT     H272432   4.997   8.736   4.546
24064WAT      O72433   2.066   3.681   8.207
24064WAT     H172434   2.100   3.769   8.176
24064WAT     H272435   1.970   3.689   8.234
24065WAT      O72436   9.105   5.482   3.280
24065WAT     H172437   9.116   5.526   3.191
24065WAT     H272438   9.105   5.552   3.352
24066WAT      O72439   5.211   6.347   8.033
24066WAT     H172440   5.139   6.384   8.091
24066WAT     H272441   5.225   6.408   7.954
24067WAT      O72442   7.332   7.705   4.460
24067WAT     H172443   7.234   7.688   4.449
24067WAT     H272444   7.382   7.620   4.445
24068WAT      O72445   9.799   9.753   3.050
24068WAT     H172446   9.890   9.725   3.081
24068WAT     H272447   9.804   9.843   3.008
24069WAT      O72448   4.165   1.584   2.427
24069WAT     H172449   4.244   1.645   2.432
24069WAT     H272450   4.197   1.489   2.423
24070WAT      O72451   9.620   1.533   7.694
24070WAT     H172452   9.589   1.544   7.600
24070WAT     H272453   9.717   1.555   7.701
24071WAT      O72454   3.350   7.722   6.200
24071WAT     H172455   3.300   7.794   6.151
24071WAT     H272456   3.411   7.674   6.137
24072WAT      O72457   5.745   5.262   8.808
24072WAT     H172458   5.680   5.196   8.770
24072WAT     H272459   5.719   5.354   8.780
24073WAT      O72460   2.949   9.679   7.689
24073WAT     H172461   3.007   9.709   7.613
24073WAT     H272462   2.888   9.607   7.658
24074WAT      O72463   8.073   7.295   4.894
24074WAT     H172464   8.015   7.376   4.908
24074WAT     H272465   8.027   7.233   4.830
24075WAT      O72466   8.339   7.729   8.746
24075WAT     H172467   8.295   7.819   8.742
24075WAT     H272468   8.336   7.687   8.656
24076WAT      O72469   7.043   1.398   0.080
24076WAT     H172470   7.143   1.402   0.081
24076WAT     H272471   7.007   1.435   0.166
24077WAT      O72472   1.824   3.283   4.263
24077WAT     H172473   1.752   3.223   4.296
24077WAT     H272474   1.882   3.234   4.198
24078WAT      O72475   4.609   9.214   9.376
24078WAT     H172476   4.664   9.134   9.350
24078WAT     H272477   4.663   9.297   9.364
24079WAT      O72478   2.234   9.119   7.376
24079WAT     H172479   2.267   9.179   7.449
24079WAT     H272480   2.291   9.037   7.373
24080WAT      O72481   7.501   9.782   1.775
24080WAT     H172482   7.433   9.848   1.807
24080WAT     H272483   7.472   9.689   1.799
24081WAT      O72484   8.334   9.081   0.240
24081WAT     H172485   8.289   9.018   0.177
24081WAT     H272486   8.409   9.127   0.192
24082WAT      O72487   9.151   2.444   1.362
24082WAT     H172488   9.204   2.362   1.381
24082WAT     H272489   9.209   2.514   1.321
24083WAT      O72490   8.085   8.100   7.680
24083WAT     H172491   8.052   8.194   7.671
24083WAT     H272492   8.099   8.078   7.776
24084WAT      O72493   0.814   2.033   4.715
24084WAT     H172494   0.751   2.109   4.699
24084WAT     H272495   0.817   2.012   4.813
24085WAT      O72496   7.844   8.595   5.021
24085WAT     H172497   7.903   8.629   4.948
24085WAT     H272498   7.756   8.567   4.982
24086WAT      O72499   5.926   8.520   4.458
24086WAT     H172500   5.981   8.600   4.483
24086WAT     H272501   5.968   8.473   4.381
24087WAT      O72502   8.431   1.776   8.857
24087WAT     H172503   8.393   1.868   8.844
24087WAT     H272504   8.356   1.710   8.861
24088WAT      O72505   2.398   6.772   6.727
24088WAT     H172506   2.344   6.749   6.646
24088WAT     H272507   2.402   6.693   6.788
24089WAT      O72508   7.070   8.553   2.297
24089WAT     H172509   6.995   8.490   2.281
24089WAT     H272510   7.148   8.504   2.336
24090WAT      O72511   2.494   4.859   5.810
24090WAT     H172512   2.543   4.785   5.854
24090WAT     H272513   2.543   4.945   5.824
24091WAT      O72514   2.225   8.031   1.702
24091WAT     H172515   2.127   8.031   1.684
24091WAT     H272516   2.254   7.941   1.735
24092WAT      O72517   1.643   5.828   3.761
24092WAT     H172518   1.698   5.828   3.677
24092WAT     H272519   1.682   5.763   3.826
24093WAT      O72520   2.069   6.424   4.657
24093WAT     H172521   1.971   6.429   4.634
24093WAT     H272522   2.088   6.484   4.734
24094WAT      O72523   0.762   7.447   7.186
24094WAT     H172524   0.700   7.498   7.125
24094WAT     H272525   0.791   7.363   7.141
24095WAT      O72526   4.113   1.961   0.084
24095WAT     H172527   4.026   1.918   0.109
24095WAT     H272528   4.175   1.957   0.163
24096WAT      O72529   4.858   9.324   0.720
24096WAT     H172530   4.911   9.381   0.657
24096WAT     H272531   4.777   9.374   0.750
24097WAT      O72532   8.331   5.892   7.191
24097WAT     H172533   8.288   5.940   7.268
24097WAT     H272534   8.429   5.913   7.190
24098WAT      O72535   4.543   5.741   7.713
24098WAT     H172536   4.511   5.702   7.800
24098WAT     H272537   4.509   5.684   7.638
24099WAT      O72538   7.571   7.092   7.102
24099WAT     H172539   7.520   7.059   7.022
24099WAT     H272540   7.640   7.159   7.073
24100WAT      O72541   6.324   1.538   6.344
24100WAT     H172542   6.332   1.627   6.298
24100WAT     H272543   6.277   1.550   6.431
24101WAT      O72544   3.597   3.496   3.882
24101WAT     H172545   3.638   3.405   3.889
24101WAT     H272546   3.660   3.564   3.919
24102WAT      O72547   8.062   6.066   6.759
24102WAT     H172548   8.140   6.118   6.725
24102WAT     H272549   8.076   6.044   6.855
24103WAT      O72550   3.071   1.257   8.010
24103WAT     H172551   3.039   1.259   8.105
24103WAT     H272552   3.004   1.301   7.951
24104WAT      O72553   6.189   6.191   3.520
24104WAT     H172554   6.249   6.117   3.550
24104WAT     H272555   6.147   6.235   3.599
24105WAT      O72556   6.592   0.887   7.729
24105WAT     H172557   6.678   0.859   7.771
24105WAT     H272558   6.611   0.938   7.645
24106WAT      O72559   7.713   8.047   4.005
24106WAT     H172560   7.650   8.081   4.074
24106WAT     H272561   7.743   7.955   4.030
24107WAT      O72562   0.617   0.441   4.044
24107WAT     H172563   0.628   0.390   4.129
24107WAT     H272564   0.707   0.473   4.013
24108WAT      O72565   1.884   7.419   4.287
24108WAT     H172566   1.984   7.424   4.284
24108WAT     H272567   1.850   7.472   4.365
24109WAT      O72568   1.982   7.003   1.214
24109WAT     H172569   1.939   7.053   1.288
24109WAT     H272570   2.073   7.040   1.197
24110WAT      O72571   7.272   2.363   1.536
24110WAT     H172572   7.346   2.321   1.483
24110WAT     H272573   7.270   2.322   1.628
24111WAT      O72574   6.922   6.421   6.630
24111WAT     H172575   6.934   6.338   6.685
24111WAT     H272576   6.858   6.483   6.676
24112WAT      O72577   6.737   0.411   5.657
24112WAT     H172578   6.681   0.345   5.608
24112WAT     H272579   6.681   0.490   5.682
24113WAT      O72580   2.121   3.602   8.854
24113WAT     H172581   2.029   3.634   8.831
24113WAT     H272582   2.184   3.625   8.781
24114WAT      O72583   0.585   0.651   5.487
24114WAT     H172584   0.520   0.685   5.419
24114WAT     H272585   0.662   0.606   5.441
24115WAT      O72586   5.962   3.991   4.919
24115WAT     H172587   5.945   4.089   4.924
24115WAT     H272588   6.047   3.969   4.966
24116WAT      O72589   0.692   3.265   5.914
24116WAT     H172590   0.693   3.166   5.927
24116WAT     H272591   0.753   3.289   5.838
24117WAT      O72592   0.744   2.936   7.170
24117WAT     H172593   0.703   2.914   7.081
24117WAT     H272594   0.763   3.034   7.174
24118WAT      O72595   4.168   1.908   6.410
24118WAT     H172596   4.181   1.827   6.353
24118WAT     H272597   4.087   1.958   6.379
24119WAT      O72598   6.107   6.586   7.206
24119WAT     H172599   6.186   6.580   7.267
24119WAT     H272600   6.068   6.678   7.211
24120WAT      O72601   4.778   2.997   2.088
24120WAT     H172602   4.806   2.946   2.007
24120WAT     H272603   4.729   2.936   2.150
24121WAT      O72604   8.833   4.261   7.264
24121WAT     H172605   8.831   4.286   7.167
24121WAT     H272606   8.806   4.165   7.274
24122WAT      O72607   5.418   5.286   8.127
24122WAT     H172608   5.411   5.248   8.035
24122WAT     H272609   5.327   5.314   8.158
24123WAT      O72610   0.290   5.877   4.047
24123WAT     H172611   0.331   5.869   3.956
24123WAT     H272612   0.358   5.911   4.112
24124WAT      O72613   2.829   5.950   5.369
24124WAT     H172614   2.736   5.979   5.348
24124WAT     H272615   2.894   5.997   5.309
24125WAT      O72616   9.792   9.770   6.491
24125WAT     H172617   9.725   9.791   6.562
24125WAT     H272618   9.856   9.702   6.526
24126WAT      O72619   9.140   2.361   7.101
24126WAT     H172620   9.054   2.377   7.053
24126WAT     H272621   9.153   2.262   7.114
24127WAT      O72622   2.807   5.569   2.213
24127WAT     H172623   2.879   5.632   2.183
24127WAT     H272624   2.845   5.477   2.223
24128WAT      O72625   9.614   4.541   8.388
24128WAT     H172626   9.598   4.466   8.453
24128WAT     H272627   9.527   4.573   8.352
24129WAT      O72628   8.954   5.677   2.045
24129WAT     H172629   8.870   5.731   2.054
24129WAT     H272630   8.931   5.585   2.016
24130WAT      O72631   7.911   8.986   3.312
24130WAT     H172632   7.848   9.050   3.268
24130WAT     H272633   7.909   8.899   3.263
24131WAT      O72634   6.861   8.216   2.495
24131WAT     H172635   6.881   8.192   2.591
24131WAT     H272636   6.843   8.132   2.444
24132WAT      O72637   2.483   9.800   6.116
24132WAT     H172638   2.461   9.799   6.018
24132WAT     H272639   2.449   9.885   6.157
24133WAT      O72640   4.014   5.718   7.344
24133WAT     H172641   3.946   5.658   7.303
24133WAT     H272642   3.977   5.811   7.351
24134WAT      O72643   2.808   1.827   4.325
24134WAT     H172644   2.805   1.732   4.355
24134WAT     H272645   2.762   1.885   4.392
24135WAT      O72646   6.124   9.361   3.680
24135WAT     H172647   6.054   9.361   3.608
24135WAT     H272648   6.135   9.268   3.715
24136WAT      O72649   4.826   7.772   2.654
24136WAT     H172650   4.830   7.707   2.731
24136WAT     H272651   4.858   7.727   2.571
24137WAT      O72652   4.260   3.445   3.394
24137WAT     H172653   4.302   3.535   3.401
24137WAT     H272654   4.312   3.389   3.330
24138WAT      O72655   3.694   2.660   0.874
24138WAT     H172656   3.605   2.621   0.850
24138WAT     H272657   3.688   2.705   0.963
24139WAT      O72658   3.316   6.282   0.695
24139WAT     H172659   3.226   6.239   0.701
24139WAT     H272660   3.376   6.226   0.638
24140WAT      O72661   4.953   9.053   8.791
24140WAT     H172662   5.045   9.054   8.752
24140WAT     H272663   4.904   8.972   8.760
24141WAT      O72664   7.577   6.090   8.368
24141WAT     H172665   7.539   6.182   8.376
24141WAT     H272666   7.506   6.023   8.389
24142WAT      O72667   0.019   5.034   5.238
24142WAT     H172668   0.017   4.934   5.234
24142WAT     H272669  -0.074   5.069   5.250
24143WAT      O72670   8.570   2.372   4.481
24143WAT     H172671   8.630   2.438   4.525
24143WAT     H272672   8.476   2.407   4.478
24144WAT      O72673   2.322   1.074   3.431
24144WAT     H172674   2.370   1.008   3.488
24144WAT     H272675   2.293   1.030   3.345
24145WAT      O72676   2.333   8.233   1.544
24145WAT     H172677   2.347   8.305   1.612
24145WAT     H272678   2.315   8.146   1.590
24146WAT      O72679   7.815   0.828   6.842
24146WAT     H172680   7.797   0.893   6.768
24146WAT     H272681   7.731   0.779   6.865
24147WAT      O72682   1.967   2.374   6.057
24147WAT     H172683   1.978   2.461   6.009
24147WAT     H272684   1.919   2.390   6.143
24148WAT      O72685   1.272   9.408   2.227
24148WAT     H172686   1.327   9.440   2.303
24148WAT     H272687   1.295   9.460   2.145
24149WAT      O72688   6.262   3.706   8.031
24149WAT     H172689   6.315   3.630   7.996
24149WAT     H272690   6.216   3.680   8.116
24150WAT      O72691   2.564   4.496   8.315
24150WAT     H172692   2.574   4.430   8.389
24150WAT     H272693   2.532   4.450   8.233
24151WAT      O72694   7.176   7.732   9.217
24151WAT     H172695   7.233   7.782   9.282
24151WAT     H272696   7.231   7.702   9.140
24152WAT      O72697   7.825   1.916   3.428
24152WAT     H172698   7.921   1.900   3.454
24152WAT     H272699   7.776   1.954   3.507
24153WAT      O72700   3.867   6.439   9.640
24153WAT     H172701   3.889   6.484   9.727
24153WAT     H272702   3.770   6.452   9.620
24154WAT      O72703   9.449   4.312   2.218
24154WAT     H172704   9.375   4.378   2.229
24154WAT     H272705   9.412   4.220   2.210
24155WAT      O72706   1.870   3.855   5.937
24155WAT     H172707   1.811   3.898   6.005
24155WAT     H272708   1.932   3.923   5.898
24156WAT      O72709   0.897   5.892   1.267
24156WAT     H172710   0.802   5.899   1.297
24156WAT     H272711   0.946   5.830   1.328
24157WAT      O72712   5.530   7.390   1.569
24157WAT     H172713   5.624   7.372   1.599
24157WAT     H272714   5.475   7.419   1.647
24158WAT      O72715   3.115   2.449   4.232
24158WAT     H172716   3.158   2.427   4.144
24158WAT     H272717   3.158   2.395   4.304
24159WAT      O72718   7.516   6.604   4.745
24159WAT     H172719   7.602   6.620   4.696
24159WAT     H272720   7.531   6.537   4.818
24160WAT      O72721   6.138   0.593   7.320
24160WAT     H172722   6.070   0.582   7.392
24160WAT     H272723   6.186   0.507   7.306
24161WAT      O72724   4.607   6.826   0.941
24161WAT     H172725   4.618   6.914   0.894
24161WAT     H272726   4.639   6.834   1.035
24162WAT      O72727   2.630   8.127   8.301
24162WAT     H172728   2.604   8.210   8.351
24162WAT     H272729   2.616   8.047   8.360
24163WAT      O72730   5.583   1.264   7.206
24163WAT     H172731   5.623   1.230   7.121
24163WAT     H272732   5.509   1.327   7.185
24164WAT      O72733   6.191   8.861   6.783
24164WAT     H172734   6.123   8.814   6.839
24164WAT     H272735   6.146   8.902   6.704
24165WAT      O72736   8.724   7.979   5.807
24165WAT     H172737   8.743   8.043   5.882
24165WAT     H272738   8.725   7.885   5.842
24166WAT      O72739   8.322   9.791   0.738
24166WAT     H172740   8.299   9.875   0.688
24166WAT     H272741   8.262   9.717   0.707
24167WAT      O72742   5.612   8.316   8.220
24167WAT     H172743   5.543   8.287   8.287
24167WAT     H272744   5.696   8.341   8.268
24168WAT      O72745   1.332   9.088   8.901
24168WAT     H172746   1.368   9.051   8.987
24168WAT     H272747   1.408   9.121   8.845
24169WAT      O72748   1.429   3.162   2.722
24169WAT     H172749   1.396   3.246   2.764
24169WAT     H272750   1.515   3.180   2.675
24170WAT      O72751   8.179   1.560   6.894
24170WAT     H172752   8.145   1.507   6.816
24170WAT     H272753   8.278   1.571   6.886
24171WAT      O72754   2.953   6.251   6.041
24171WAT     H172755   2.887   6.285   5.973
24171WAT     H272756   3.045   6.277   6.013
24172WAT      O72757   8.564   2.997   4.133
24172WAT     H172758   8.646   3.054   4.129
24172WAT     H272759   8.507   3.024   4.210
24173WAT      O72760   1.409   6.715   5.466
24173WAT     H172761   1.501   6.678   5.477
24173WAT     H272762   1.353   6.651   5.414
24174WAT      O72763   4.999   1.456   1.406
24174WAT     H172764   5.055   1.390   1.456
24174WAT     H272765   5.040   1.475   1.317
24175WAT      O72766   1.306   3.389   8.414
24175WAT     H172767   1.350   3.336   8.341
24175WAT     H272768   1.311   3.486   8.392
24176WAT      O72769   3.987   0.554   1.790
24176WAT     H172770   3.966   0.595   1.701
24176WAT     H272771   3.921   0.481   1.809
24177WAT      O72772   9.156   3.622   3.874
24177WAT     H172773   9.079   3.615   3.938
24177WAT     H272774   9.238   3.651   3.923
24178WAT      O72775   1.080   8.523   5.234
24178WAT     H172776   1.029   8.438   5.236
24178WAT     H272777   1.132   8.528   5.148
24179WAT      O72778   8.403   4.052   1.900
24179WAT     H172779   8.354   4.048   1.987
24179WAT     H272780   8.485   3.995   1.905
24180WAT      O72781   7.626   0.845   7.250
24180WAT     H172782   7.602   0.887   7.162
24180WAT     H272783   7.699   0.778   7.236
24181WAT      O72784   5.188   6.493   1.932
24181WAT     H172785   5.178   6.587   1.899
24181WAT     H272786   5.274   6.485   1.983
24182WAT      O72787   1.022   6.857   8.551
24182WAT     H172788   1.009   6.848   8.452
24182WAT     H272789   1.093   6.926   8.568
24183WAT      O72790   5.788   4.249   0.241
24183WAT     H172791   5.712   4.226   0.303
24183WAT     H272792   5.866   4.191   0.261
24184WAT      O72793   5.974   3.506   3.361
24184WAT     H172794   5.960   3.428   3.421
24184WAT     H272795   5.968   3.591   3.414
24185WAT      O72796   5.259   1.753   5.907
24185WAT     H172797   5.171   1.793   5.931
24185WAT     H272798   5.325   1.772   5.981
24186WAT      O72799   4.149   8.210   7.806
24186WAT     H172800   4.237   8.198   7.759
24186WAT     H272801   4.136   8.135   7.872
24187WAT      O72802   4.479   5.282   5.538
24187WAT     H172803   4.426   5.364   5.515
24187WAT     H272804   4.528   5.251   5.456
24188WAT      O72805   2.497   1.735   2.652
24188WAT     H172806   2.427   1.791   2.697
24188WAT     H272807   2.465   1.708   2.561
24189WAT      O72808   5.327   6.159   9.665
24189WAT     H172809   5.362   6.246   9.631
24189WAT     H272810   5.338   6.156   9.764
24190WAT      O72811   1.508   3.145   7.761
24190WAT     H172812   1.607   3.158   7.765
24190WAT     H272813   1.483   3.064   7.813
24191WAT      O72814   0.489   2.001   4.064
24191WAT     H172815   0.447   1.930   4.122
24191WAT     H272816   0.418   2.063   4.032
24192WAT      O72817   2.195   0.868   6.715
24192WAT     H172818   2.256   0.830   6.645
24192WAT     H272819   2.157   0.794   6.770
24193WAT      O72820   3.325   2.377   8.559
24193WAT     H172821   3.423   2.368   8.579
24193WAT     H272822   3.311   2.454   8.498
24194WAT      O72823   3.460   5.214   6.094
24194WAT     H172824   3.504   5.141   6.147
24194WAT     H272825   3.387   5.175   6.039
24195WAT      O72826   5.711   8.218   0.423
24195WAT     H172827   5.710   8.276   0.342
24195WAT     H272828   5.620   8.178   0.437
24196WAT      O72829   5.696   7.230   4.153
24196WAT     H172830   5.655   7.142   4.176
24196WAT     H272831   5.786   7.215   4.111
24197WAT      O72832   9.206   1.790   8.687
24197WAT     H172833   9.161   1.724   8.627
24197WAT     H272834   9.230   1.746   8.774
24198WAT      O72835   9.448   0.095   4.899
24198WAT     H172836   9.446   0.178   4.955
24198WAT     H272837   9.356   0.059   4.890
24199WAT      O72838   2.944   1.445   9.462
24199WAT     H172839   2.880   1.510   9.504
24199WAT     H272840   3.033   1.451   9.507
24200WAT      O72841   8.738   1.003   6.438
24200WAT     H172842   8.709   1.070   6.370
24200WAT     H272843   8.838   1.001   6.441
24201WAT      O72844   3.063   5.032   4.084
24201WAT     H172845   3.123   5.055   4.160
24201WAT     H272846   3.073   5.101   4.012
24202WAT      O72847   9.758   7.104   3.209
24202WAT     H172848   9.686   7.117   3.277
24202WAT     H272849   9.733   7.153   3.125
24203WAT      O72850   0.386   9.278   3.962
24203WAT     H172851   0.346   9.207   4.020
24203WAT     H272852   0.415   9.237   3.875
24204WAT      O72853   5.914   3.724   0.761
24204WAT     H172854   5.895   3.822   0.769
24204WAT     H272855   6.012   3.708   0.767
24205WAT      O72856   5.071   0.635   2.913
24205WAT     H172857   5.100   0.550   2.870
24205WAT     H272858   5.006   0.615   2.987
24206WAT      O72859   9.442   8.085   6.575
24206WAT     H172860   9.526   8.071   6.628
24206WAT     H272861   9.440   8.178   6.538
24207WAT      O72862   6.644   8.992   4.910
24207WAT     H172863   6.733   9.026   4.942
24207WAT     H272864   6.581   8.989   4.987
24208WAT      O72865   8.213   1.762   6.381
24208WAT     H172866   8.309   1.737   6.379
24208WAT     H272867   8.157   1.686   6.348
24209WAT      O72868   4.106   9.191   4.855
24209WAT     H172869   4.098   9.174   4.953
24209WAT     H272870   4.015   9.185   4.813
24210WAT      O72871   0.451   3.052   9.669
24210WAT     H172872   0.542   3.016   9.690
24210WAT     H272873   0.451   3.097   9.580
24211WAT      O72874   7.371   6.908   2.801
24211WAT     H172875   7.426   6.887   2.720
24211WAT     H272876   7.377   7.005   2.821
24212WAT      O72877   5.809   0.654   4.809
24212WAT     H172878   5.763   0.678   4.723
24212WAT     H272879   5.750   0.594   4.863
24213WAT      O72880   5.893   1.048   9.340
24213WAT     H172881   5.893   1.042   9.240
24213WAT     H272882   5.869   0.959   9.379
24214WAT      O72883   9.311   7.467   2.349
24214WAT     H172884   9.331   7.372   2.375
24214WAT     H272885   9.212   7.478   2.341
24215WAT      O72886   5.945   1.834   5.476
24215WAT     H172887   5.979   1.788   5.394
24215WAT     H272888   6.018   1.840   5.543
24216WAT      O72889   5.721   6.532   7.158
24216WAT     H172890   5.792   6.472   7.196
24216WAT     H272891   5.731   6.624   7.198
24217WAT      O72892   4.280   4.280   2.691
24217WAT     H172893   4.294   4.368   2.736
24217WAT     H272894   4.231   4.218   2.753
24218WAT      O72895   7.681   7.100   2.736
24218WAT     H172896   7.704   7.003   2.739
24218WAT     H272897   7.635   7.126   2.821
24219WAT      O72898   4.444   0.571   7.024
24219WAT     H172899   4.485   0.655   6.987
24219WAT     H272900   4.452   0.498   6.957
24220WAT      O72901   8.818   5.185   1.596
24220WAT     H172902   8.776   5.221   1.679
24220WAT     H272903   8.803   5.249   1.520
24221WAT      O72904   4.534   0.067   9.531
24221WAT     H172905   4.559  -0.008   9.469
24221WAT     H272906   4.456   0.116   9.493
24222WAT      O72907   5.933   6.352   7.516
24222WAT     H172908   5.851   6.313   7.558
24222WAT     H272909   5.987   6.399   7.585
24223WAT      O72910   5.671   8.423   4.438
24223WAT     H172911   5.762   8.462   4.423
24223WAT     H272912   5.602   8.489   4.409
24224WAT      O72913   8.794   3.036   5.556
24224WAT     H172914   8.707   2.989   5.544
24224WAT     H272915   8.866   2.986   5.507
24225WAT      O72916   7.252   1.498   6.382
24225WAT     H172917   7.223   1.594   6.383
24225WAT     H272918   7.293   1.475   6.470
24226WAT      O72919   7.938   1.344   4.288
24226WAT     H172920   7.868   1.366   4.357
24226WAT     H272921   7.910   1.264   4.237
24227WAT      O72922   7.390   5.620   9.848
24227WAT     H172923   7.450   5.614   9.928
24227WAT     H272924   7.302   5.657   9.876
24228WAT      O72925   0.585   2.027   3.292
24228WAT     H172926   0.486   2.038   3.287
24228WAT     H272927   0.629   2.116   3.280
24229WAT      O72928   5.832   3.512   6.912
24229WAT     H172929   5.918   3.495   6.959
24229WAT     H272930   5.763   3.447   6.944
24230WAT      O72931   7.565   7.783   7.170
24230WAT     H172932   7.549   7.687   7.192
24230WAT     H272933   7.643   7.817   7.222
24231WAT      O72934   1.329   8.543   3.145
24231WAT     H172935   1.315   8.501   3.234
24231WAT     H272936   1.266   8.503   3.078
24232WAT      O72937   3.455   1.201   1.591
24232WAT     H172938   3.474   1.266   1.664
24232WAT     H272939   3.527   1.131   1.588
24233WAT      O72940   8.119   9.107   6.516
24233WAT     H172941   8.044   9.138   6.457
24233WAT     H272942   8.199   9.165   6.502
24234WAT      O72943   1.649   5.903   6.511
24234WAT     H172944   1.708   5.823   6.499
24234WAT     H272945   1.580   5.904   6.438
24235WAT      O72946   8.187   8.998   3.316
24235WAT     H172947   8.213   8.970   3.223
24235WAT     H272948   8.087   9.003   3.323
24236WAT      O72949   6.035   1.955   4.021
24236WAT     H172950   6.022   1.867   4.067
24236WAT     H272951   5.953   1.979   3.970
24237WAT      O72952   3.473   4.831   3.570
24237WAT     H172953   3.525   4.811   3.653
24237WAT     H272954   3.462   4.930   3.561
24238WAT      O72955   2.701   5.704   5.876
24238WAT     H172956   2.662   5.623   5.831
24238WAT     H272957   2.638   5.780   5.865
24239WAT      O72958   2.826   0.120   6.098
24239WAT     H172959   2.791   0.184   6.031
24239WAT     H272960   2.780   0.031   6.088
24240WAT      O72961   0.377   4.814   4.142
24240WAT     H172962   0.310   4.836   4.071
24240WAT     H272963   0.343   4.740   4.199
24241WAT      O72964   6.636   2.259   1.216
24241WAT     H172965   6.611   2.352   1.241
24241WAT     H272966   6.659   2.207   1.299
24242WAT      O72967   6.074   1.262   1.962
24242WAT     H172968   6.072   1.180   2.019
24242WAT     H272969   6.101   1.341   2.017
24243WAT      O72970   7.713   7.478   6.988
24243WAT     H172971   7.786   7.539   6.957
24243WAT     H272972   7.750   7.409   7.049
24244WAT      O72973   6.513   4.475   5.610
24244WAT     H172974   6.546   4.382   5.628
24244WAT     H272975   6.414   4.472   5.591
24245WAT      O72976   1.650   2.710   7.850
24245WAT     H172977   1.566   2.765   7.860
24245WAT     H272978   1.720   2.765   7.804
24246WAT      O72979   0.088   1.835   1.352
24246WAT     H172980   0.003   1.804   1.310
24246WAT     H272981   0.076   1.846   1.450
24247WAT      O72982   1.489   6.630   4.258
24247WAT     H172983   1.522   6.703   4.199
24247WAT     H272984   1.553   6.554   4.256
24248WAT      O72985   1.412   0.588   9.058
24248WAT     H172986   1.339   0.541   9.107
24248WAT     H272987   1.469   0.639   9.123
24249WAT      O72988   4.818   2.951   6.695
24249WAT     H172989   4.862   2.930   6.782
24249WAT     H272990   4.733   2.900   6.687
24250WAT      O72991   3.599   8.123   1.506
24250WAT     H172992   3.601   8.040   1.562
24250WAT     H272993   3.598   8.097   1.409
24251WAT      O72994   4.174   5.807   5.737
24251WAT     H172995   4.084   5.851   5.741
24251WAT     H272996   4.219   5.816   5.826
24252WAT      O72997   5.834   7.958   5.064
24252WAT     H172998   5.918   7.903   5.069
24252WAT     H272999   5.791   7.960   5.154
24253WAT      O73000   4.816   2.607   4.141
24253WAT     H173001   4.835   2.638   4.234
24253WAT     H273002   4.739   2.542   4.142
24254WAT      O73003   3.628   9.645   2.844
24254WAT     H173004   3.666   9.656   2.936
24254WAT     H273005   3.558   9.714   2.828
24255WAT      O73006   2.236   8.514   0.773
24255WAT     H173007   2.214   8.540   0.679
24255WAT     H273008   2.246   8.596   0.830
24256WAT      O73009   2.751   0.310   5.299
24256WAT     H173010   2.768   0.376   5.372
24256WAT     H273011   2.835   0.296   5.247
24257WAT      O73012   0.331   0.330   2.370
24257WAT     H173013   0.367   0.338   2.463
24257WAT     H273014   0.350   0.413   2.319
24258WAT      O73015   4.779   7.188   8.910
24258WAT     H173016   4.864   7.136   8.907
24258WAT     H273017   4.770   7.233   8.999
24259WAT      O73018   0.720   4.621   3.291
24259WAT     H173019   0.769   4.706   3.312
24259WAT     H273020   0.651   4.604   3.361
24260WAT      O73021   5.484   7.708   0.826
24260WAT     H173022   5.421   7.675   0.755
24260WAT     H273023   5.430   7.750   0.900
24261WAT      O73024   4.874   7.253   5.932
24261WAT     H173025   4.786   7.265   5.976
24261WAT     H273026   4.862   7.252   5.832
24262WAT      O73027   1.216   2.289   7.108
24262WAT     H173028   1.217   2.370   7.049
24262WAT     H273029   1.234   2.208   7.053
24263WAT      O73030   2.632   5.245   0.342
24263WAT     H173031   2.700   5.239   0.414
24263WAT     H273032   2.551   5.294   0.375
24264WAT      O73033   0.434   7.501   4.486
24264WAT     H173034   0.527   7.474   4.512
24264WAT     H273035   0.416   7.470   4.393
24265WAT      O73036   3.007   4.599   0.959
24265WAT     H173037   3.089   4.597   0.901
24265WAT     H273038   3.020   4.537   1.036
24266WAT      O73039   6.082   7.340   1.302
24266WAT     H173040   6.010   7.300   1.245
24266WAT     H273041   6.060   7.436   1.322
24267WAT      O73042   3.636   7.710   5.226
24267WAT     H173043   3.701   7.650   5.273
24267WAT     H273044   3.548   7.663   5.217
24268WAT      O73045   6.409   7.421   5.690
24268WAT     H173046   6.371   7.384   5.775
24268WAT     H273047   6.368   7.510   5.671
24269WAT      O73048   7.982   9.410   6.804
24269WAT     H173049   7.898   9.361   6.780
24269WAT     H273050   7.975   9.444   6.898
24270WAT      O73051   7.003   5.409   6.310
24270WAT     H173052   7.071   5.407   6.236
24270WAT     H273053   7.051   5.405   6.398
24271WAT      O73054   7.405   0.158   6.077
24271WAT     H173055   7.499   0.122   6.077
24271WAT     H273056   7.408   0.256   6.059
24272WAT      O73057   9.877   2.146   1.673
24272WAT     H173058   9.917   2.228   1.631
24272WAT     H273059   9.779   2.143   1.653
24273WAT      O73060   5.735   9.465   4.121
24273WAT     H173061   5.686   9.488   4.037
24273WAT     H273062   5.669   9.444   4.194
24274WAT      O73063   5.591   4.878   8.276
24274WAT     H173064   5.582   4.781   8.251
24274WAT     H273065   5.686   4.897   8.300
24275WAT      O73066   7.655   1.420   5.759
24275WAT     H173067   7.716   1.368   5.699
24275WAT     H273068   7.576   1.452   5.706
24276WAT      O73069   8.241   1.872   6.653
24276WAT     H173070   8.193   1.831   6.576
24276WAT     H273071   8.217   1.969   6.660
24277WAT      O73072   2.823   0.061   0.758
24277WAT     H173073   2.730   0.080   0.726
24277WAT     H273074   2.888   0.115   0.704
24278WAT      O73075   5.859   7.671   5.387
24278WAT     H173076   5.824   7.764   5.385
24278WAT     H273077   5.835   7.625   5.302
24279WAT      O73078   1.589   8.468   9.559
24279WAT     H173079   1.502   8.457   9.606
24279WAT     H273080   1.610   8.565   9.549
24280WAT      O73081   3.933   7.300   2.748
24280WAT     H173082   3.932   7.388   2.701
24280WAT     H273083   3.970   7.230   2.687
24281WAT      O73084   6.372   9.746   3.155
24281WAT     H173085   6.399   9.838   3.128
24281WAT     H273086   6.380   9.736   3.254
24282WAT      O73087   0.411   2.958   3.536
24282WAT     H173088   0.368   2.991   3.452
24282WAT     H273089   0.455   3.035   3.583
24283WAT      O73090   5.426   7.593   7.988
24283WAT     H173091   5.441   7.691   8.002
24283WAT     H273092   5.432   7.545   8.076
24284WAT      O73093   5.156   5.838   9.240
24284WAT     H173094   5.173   5.854   9.143
24284WAT     H273095   5.208   5.904   9.295
24285WAT      O73096   2.971   9.719   2.120
24285WAT     H173097   3.040   9.785   2.087
24285WAT     H273098   2.889   9.728   2.064
24286WAT      O73099   8.439   4.453   9.096
24286WAT     H173100   8.470   4.495   9.011
24286WAT     H273101   8.399   4.523   9.156
24287WAT      O73102   3.485   3.199   3.170
24287WAT     H173103   3.427   3.279   3.181
24287WAT     H273104   3.447   3.122   3.222
24288WAT      O73105   2.565   7.701   3.054
24288WAT     H173106   2.576   7.627   2.988
24288WAT     H273107   2.625   7.777   3.030
24289WAT      O73108   1.764   4.977   9.364
24289WAT     H173109   1.726   5.034   9.290
24289WAT     H273110   1.690   4.931   9.412
24290WAT      O73111   6.389   8.445   1.873
24290WAT     H173112   6.315   8.448   1.940
24290WAT     H273113   6.358   8.398   1.791
24291WAT      O73114   7.969   6.414   0.294
24291WAT     H173115   7.906   6.350   0.338
24291WAT     H273116   7.926   6.451   0.211
24292WAT      O73117   4.150   2.152   4.561
24292WAT     H173118   4.189   2.066   4.529
24292WAT     H273119   4.107   2.201   4.484
24293WAT      O73120   2.771   6.238   7.401
24293WAT     H173121   2.762   6.139   7.386
24293WAT     H273122   2.694   6.271   7.456
24294WAT      O73123   1.904   4.126   1.322
24294WAT     H173124   1.969   4.051   1.336
24294WAT     H273125   1.838   4.100   1.251
24295WAT      O73126   1.156   0.770   6.401
24295WAT     H173127   1.087   0.710   6.360
24295WAT     H273128   1.160   0.855   6.349
24296WAT      O73129   3.752   3.805   7.850
24296WAT     H173130   3.712   3.784   7.939
24296WAT     H273131   3.757   3.721   7.795
24297WAT      O73132   4.245   0.822   6.313
24297WAT     H173133   4.309   0.745   6.310
24297WAT     H273134   4.184   0.818   6.234
24298WAT      O73135   8.255   6.794   5.523
24298WAT     H173136   8.282   6.889   5.538
24298WAT     H273137   8.178   6.771   5.583
24299WAT      O73138   2.642   9.126   5.267
24299WAT     H173139   2.577   9.079   5.208
24299WAT     H273140   2.681   9.060   5.332
24300WAT      O73141   9.651   7.825   2.459
24300WAT     H173142   9.628   7.912   2.503
24300WAT     H273143   9.630   7.830   2.362
24301WAT      O73144   6.026   5.179   7.905
24301WAT     H173145   6.094   5.110   7.932
24301WAT     H273146   5.979   5.148   7.822
24302WAT      O73147   0.226   9.560   4.493
24302WAT     H173148   0.226   9.577   4.395
24302WAT     H273149   0.316   9.529   4.522
24303WAT      O73150   8.036   2.486   2.496
24303WAT     H173151   8.055   2.400   2.545
24303WAT     H273152   8.002   2.554   2.561
24304WAT      O73153   6.321   7.418   9.342
24304WAT     H173154   6.392   7.488   9.334
24304WAT     H273155   6.291   7.391   9.250
24305WAT      O73156   7.344   0.690   0.631
24305WAT     H173157   7.312   0.781   0.605
24305WAT     H273158   7.332   0.627   0.554
24306WAT      O73159   9.786   5.759   9.175
24306WAT     H173160   9.883   5.742   9.195
24306WAT     H273161   9.773   5.765   9.076
24307WAT      O73162   2.529   5.780   4.878
24307WAT     H173163   2.496   5.756   4.969
24307WAT     H273164   2.468   5.741   4.809
24308WAT      O73165   9.829   8.698   2.623
24308WAT     H173166   9.917   8.717   2.666
24308WAT     H273167   9.841   8.685   2.525
24309WAT      O73168   0.740   4.314   8.711
24309WAT     H173169   0.763   4.409   8.690
24309WAT     H273170   0.814   4.272   8.764
24310WAT      O73171   7.010   0.673   9.821
24310WAT     H173172   7.073   0.606   9.783
24310WAT     H273173   7.033   0.764   9.785
24311WAT      O73174   8.558   6.639   9.618
24311WAT     H173175   8.508   6.667   9.537
24311WAT     H273176   8.524   6.551   9.650
24312WAT      O73177   2.705   7.590   0.429
24312WAT     H173178   2.735   7.541   0.347
24312WAT     H273179   2.731   7.686   0.421
24313WAT      O73180   6.335   2.197   0.567
24313WAT     H173181   6.355   2.102   0.543
24313WAT     H273182   6.256   2.229   0.515
24314WAT      O73183   3.456   5.543   0.206
24314WAT     H173184   3.393   5.496   0.144
24314WAT     H273185   3.458   5.641   0.184
24315WAT      O73186   9.694   5.984   9.296
24315WAT     H173187   9.728   5.977   9.390
24315WAT     H273188   9.698   5.894   9.252
24316WAT      O73189   9.343   4.626   7.067
24316WAT     H173190   9.390   4.709   7.036
24316WAT     H273191   9.411   4.559   7.098
24317WAT      O73192   5.460   2.000   7.342
24317WAT     H173193   5.516   2.069   7.295
24317WAT     H273194   5.423   2.038   7.426
24318WAT      O73195   0.086   7.545   2.561
24318WAT     H173196   0.124   7.555   2.469
24318WAT     H273197   0.097   7.450   2.592
24319WAT      O73198   7.083   3.132   9.786
24319WAT     H173199   7.114   3.087   9.869
24319WAT     H273200   7.075   3.231   9.802
24320WAT      O73201   3.429   4.176   3.266
24320WAT     H173202   3.386   4.138   3.184
24320WAT     H273203   3.406   4.121   3.346
24321WAT      O73204   1.133   5.091   2.891
24321WAT     H173205   1.159   5.126   2.981
24321WAT     H273206   1.033   5.094   2.883
24322WAT      O73207   6.334   8.905   7.940
24322WAT     H173208   6.324   8.858   7.852
24322WAT     H273209   6.305   8.843   8.014
24323WAT      O73210   7.320   0.121   6.552
24323WAT     H173211   7.250   0.097   6.618
24323WAT     H273212   7.394   0.053   6.555
24324WAT      O73213   8.476   2.841   7.641
24324WAT     H173214   8.525   2.917   7.685
24324WAT     H273215   8.394   2.876   7.596
24325WAT      O73216   0.735   1.604   1.803
24325WAT     H173217   0.646   1.647   1.811
24325WAT     H273218   0.804   1.660   1.849
24326WAT      O73219   3.021   2.576   5.174
24326WAT     H173220   2.953   2.587   5.246
24326WAT     H273221   2.976   2.545   5.090
24327WAT      O73222   4.151   6.961   4.751
24327WAT     H173223   4.243   6.924   4.736
24327WAT     H273224   4.091   6.932   4.678
24328WAT      O73225   3.212   6.149   9.674
24328WAT     H173226   3.189   6.058   9.710
24328WAT     H273227   3.183   6.155   9.578
24329WAT      O73228   7.600   3.406   7.115
24329WAT     H173229   7.593   3.436   7.210
24329WAT     H273230   7.694   3.422   7.082
24330WAT      O73231   3.751   0.857   6.724
24330WAT     H173232   3.738   0.784   6.657
24330WAT     H273233   3.662   0.884   6.761
24331WAT      O73234   3.141   2.359   2.196
24331WAT     H173235   3.103   2.452   2.202
24331WAT     H273236   3.066   2.293   2.189
24332WAT      O73237   3.617   1.734   0.912
24332WAT     H173238   3.666   1.744   0.998
24332WAT     H273239   3.635   1.644   0.873
24333WAT      O73240   0.624   0.370   9.766
24333WAT     H173241   0.587   0.319   9.844
24333WAT     H273242   0.714   0.334   9.742
24334WAT      O73243   0.759   6.679   6.266
24334WAT     H173244   0.681   6.642   6.217
24334WAT     H273245   0.844   6.643   6.226
24335WAT      O73246   5.243   2.277   5.571
24335WAT     H173247   5.229   2.271   5.670
24335WAT     H273248   5.201   2.361   5.536
24336WAT      O73249   9.499   6.915   1.148
24336WAT     H173250   9.533   6.915   1.054
24336WAT     H273251   9.416   6.859   1.154
24337WAT      O73252   6.446   6.527   4.197
24337WAT     H173253   6.434   6.469   4.278
24337WAT     H273254   6.533   6.505   4.153
24338WAT      O73255   0.741   7.090   1.180
24338WAT     H173256   0.823   7.098   1.122
24338WAT     H273257   0.701   6.999   1.167
24339WAT      O73258   8.922   8.289   1.594
24339WAT     H173259   8.870   8.230   1.532
24339WAT     H273260   8.950   8.372   1.545
24340WAT      O73261   7.428   1.049   3.936
24340WAT     H173262   7.425   1.129   3.876
24340WAT     H273263   7.440   1.080   4.031
24341WAT      O73264   9.146   0.945   1.880
24341WAT     H173265   9.172   0.858   1.924
24341WAT     H273266   9.226   1.003   1.872
24342WAT      O73267   9.717   4.772   4.695
24342WAT     H173268   9.776   4.710   4.747
24342WAT     H273269   9.764   4.799   4.611
24343WAT      O73270   9.150   1.735   4.896
24343WAT     H173271   9.109   1.781   4.818
24343WAT     H273272   9.153   1.636   4.879
24344WAT      O73273   5.215   9.631   6.917
24344WAT     H173274   5.133   9.581   6.891
24344WAT     H273275   5.228   9.626   7.016
24345WAT      O73276   1.212   7.716   5.779
24345WAT     H173277   1.297   7.765   5.761
24345WAT     H273278   1.194   7.652   5.704
24346WAT      O73279   5.311   8.400   8.165
24346WAT     H173280   5.402   8.405   8.206
24346WAT     H273281   5.260   8.324   8.206
24347WAT      O73282   4.527   6.270   5.879
24347WAT     H173283   4.482   6.359   5.890
24347WAT     H273284   4.615   6.282   5.834
24348WAT      O73285   0.106   7.300   2.664
24348WAT     H173286   0.181   7.255   2.712
24348WAT     H273287   0.036   7.232   2.642
24349WAT      O73288   3.310   8.200   1.497
24349WAT     H173289   3.352   8.227   1.583
24349WAT     H273290   3.372   8.138   1.448
24350WAT      O73291   4.967   4.892   1.411
24350WAT     H173292   4.930   4.819   1.468
24350WAT     H273293   4.939   4.878   1.316
24351WAT      O73294   8.220   3.788   3.359
24351WAT     H173295   8.187   3.853   3.428
24351WAT     H273296   8.164   3.796   3.277
24352WAT      O73297   5.602   1.306   1.851
24352WAT     H173298   5.543   1.283   1.929
24352WAT     H273299   5.690   1.339   1.885
24353WAT      O73300   7.681   9.059   7.617
24353WAT     H173301   7.586   9.070   7.587
24353WAT     H273302   7.729   9.146   7.610
24354WAT      O73303   0.956   2.921   2.980
24354WAT     H173304   1.030   2.988   2.979
24354WAT     H273305   0.869   2.966   3.000
24355WAT      O73306   3.355   5.026   0.192
24355WAT     H173307   3.266   5.051   0.153
24355WAT     H273308   3.386   5.099   0.254
24356WAT      O73309   3.668   2.184   3.295
24356WAT     H173310   3.737   2.256   3.293
24356WAT     H273311   3.605   2.196   3.219
24357WAT      O73312   5.100   8.351   1.304
24357WAT     H173313   5.167   8.312   1.240
24357WAT     H273314   5.148   8.412   1.367
24358WAT      O73315   1.231   2.058   7.357
24358WAT     H173316   1.314   2.111   7.373
24358WAT     H273317   1.225   2.033   7.260
24359WAT      O73318   5.237   0.295   3.568
24359WAT     H173319   5.230   0.367   3.499
24359WAT     H273320   5.259   0.208   3.523
24360WAT      O73321   9.448   0.380   0.201
24360WAT     H173322   9.467   0.349   0.295
24360WAT     H273323   9.362   0.431   0.200
24361WAT      O73324   4.040   9.684   7.631
24361WAT     H173325   3.962   9.711   7.574
24361WAT     H273326   4.009   9.620   7.701
24362WAT      O73327   6.246   2.881   0.785
24362WAT     H173328   6.148   2.887   0.800
24362WAT     H273329   6.275   2.786   0.790
24363WAT      O73330   2.148   2.828   4.624
24363WAT     H173331   2.158   2.784   4.714
24363WAT     H273332   2.051   2.841   4.604
24364WAT      O73333   5.639   3.356   7.016
24364WAT     H173334   5.564   3.422   7.016
24364WAT     H273335   5.634   3.299   7.098
24365WAT      O73336   6.388   1.015   8.975
24365WAT     H173337   6.409   0.970   9.062
24365WAT     H273338   6.293   1.046   8.975
24366WAT      O73339   3.357   9.788   4.443
24366WAT     H173340   3.384   9.692   4.450
24366WAT     H273341   3.360   9.817   4.347
24367WAT      O73342   2.724   7.888   2.933
24367WAT     H173343   2.801   7.824   2.936
24367WAT     H273344   2.703   7.909   2.837
24368WAT      O73345   0.341   7.419   9.080
24368WAT     H173346   0.305   7.512   9.067
24368WAT     H273347   0.362   7.405   9.177
24369WAT      O73348   1.029   6.845   2.046
24369WAT     H173349   1.011   6.823   1.950
24369WAT     H273350   0.956   6.904   2.081
24370WAT      O73351   7.716   8.681   7.518
24370WAT     H173352   7.717   8.726   7.608
24370WAT     H273353   7.692   8.749   7.448
24371WAT      O73354   4.570   7.030   5.792
24371WAT     H173355   4.508   7.013   5.870
24371WAT     H273356   4.659   6.989   5.811
24372WAT      O73357   4.343   2.400   5.001
24372WAT     H173358   4.443   2.413   4.999
24372WAT     H273359   4.314   2.386   5.095
24373WAT      O73360   6.570   6.740   7.566
24373WAT     H173361   6.498   6.798   7.528
24373WAT     H273362   6.535   6.647   7.577
24374WAT      O73363   6.074   4.517   3.258
24374WAT     H173364   6.116   4.607   3.252
24374WAT     H273365   6.032   4.506   3.348
24375WAT      O73366   8.236   4.872   5.103
24375WAT     H173367   8.173   4.882   5.026
24375WAT     H273368   8.329   4.863   5.068
24376WAT      O73369   1.651   1.102   8.170
24376WAT     H173370   1.580   1.172   8.175
24376WAT     H273371   1.674   1.086   8.074
24377WAT      O73372   8.431   5.561   8.689
24377WAT     H173373   8.406   5.655   8.713
24377WAT     H273374   8.401   5.499   8.761
24378WAT      O73375   2.954   2.805   8.343
24378WAT     H173376   2.868   2.804   8.292
24378WAT     H273377   2.993   2.712   8.344
24379WAT      O73378   9.213   2.272   6.517
24379WAT     H173379   9.183   2.188   6.472
24379WAT     H273380   9.231   2.343   6.449
24380WAT      O73381   8.904   7.545   1.721
24380WAT     H173382   8.993   7.579   1.750
24380WAT     H273383   8.914   7.490   1.638
24381WAT      O73384   6.582   7.826   5.803
24381WAT     H173385   6.672   7.856   5.836
24381WAT     H273386   6.557   7.879   5.722
24382WAT      O73387   9.181   3.252   6.989
24382WAT     H173388   9.281   3.244   6.988
24382WAT     H273389   9.143   3.190   7.057
24383WAT      O73390   4.299   0.035   8.606
24383WAT     H173391   4.353  -0.042   8.571
24383WAT     H273392   4.303   0.034   8.706
24384WAT      O73393   0.078   7.690   8.594
24384WAT     H173394   0.124   7.627   8.657
24384WAT     H273395  -0.019   7.697   8.620
24385WAT      O73396   3.194   7.705   9.832
24385WAT     H173397   3.248   7.711   9.916
24385WAT     H273398   3.128   7.631   9.839
24386WAT      O73399   8.815   9.219   1.997
24386WAT     H173400   8.799   9.219   2.096
24386WAT     H273401   8.738   9.177   1.951
24387WAT      O73402   4.996   9.192   2.530
24387WAT     H173403   5.019   9.128   2.603
24387WAT     H273404   4.949   9.271   2.570
24388WAT      O73405   3.325   3.416   3.268
24388WAT     H173406   3.374   3.374   3.345
24388WAT     H273407   3.240   3.457   3.301
24389WAT      O73408   3.596   0.744   6.319
24389WAT     H173409   3.614   0.797   6.236
24389WAT     H273410   3.512   0.776   6.362
24390WAT      O73411   1.003   0.588   2.798
24390WAT     H173412   0.946   0.568   2.718
24390WAT     H273413   1.077   0.521   2.804
24391WAT      O73414   9.299   9.811   1.612
24391WAT     H173415   9.385   9.862   1.611
24391WAT     H273416   9.314   9.718   1.579
24392WAT      O73417   5.127   8.146   5.269
24392WAT     H173418   5.056   8.174   5.205
24392WAT     H273419   5.085   8.102   5.348
24393WAT      O73420   7.198   0.347   9.139
24393WAT     H173421   7.214   0.250   9.120
24393WAT     H273422   7.143   0.356   9.222
24394WAT      O73423   7.518   7.197   2.538
24394WAT     H173424   7.489   7.276   2.593
24394WAT     H273425   7.583   7.142   2.591
24395WAT      O73426   9.222   7.775   0.892
24395WAT     H173427   9.223   7.714   0.813
24395WAT     H273428   9.225   7.720   0.976
24396WAT      O73429   3.475   2.434   9.566
24396WAT     H173430   3.571   2.407   9.571
24396WAT     H273431   3.468   2.524   9.523
24397WAT      O73432   3.676   3.803   9.619
24397WAT     H173433   3.730   3.765   9.544
24397WAT     H273434   3.652   3.898   9.599
24398WAT      O73435   2.335   9.741   1.660
24398WAT     H173436   2.263   9.781   1.604
24398WAT     H273437   2.297   9.711   1.747
24399WAT      O73438   8.871   0.451   3.854
24399WAT     H173439   8.965   0.430   3.827
24399WAT     H273440   8.860   0.437   3.952
24400WAT      O73441   5.908   4.841   7.235
24400WAT     H173442   5.939   4.928   7.273
24400WAT     H273443   5.860   4.857   7.149
24401WAT      O73444   8.426   7.035   4.501
24401WAT     H173445   8.505   7.095   4.497
24401WAT     H273446   8.344   7.086   4.476
24402WAT      O73447   9.133   8.748   9.337
24402WAT     H173448   9.040   8.777   9.360
24402WAT     H273449   9.169   8.805   9.263
24403WAT      O73450   2.264   9.248   0.778
24403WAT     H173451   2.237   9.299   0.696
24403WAT     H273452   2.355   9.209   0.764
24404WAT      O73453   3.083   4.295   5.574
24404WAT     H173454   3.060   4.269   5.667
24404WAT     H273455   3.001   4.327   5.527
24405WAT      O73456   4.412   6.553   4.637
24405WAT     H173457   4.483   6.566   4.706
24405WAT     H273458   4.407   6.633   4.578
24406WAT      O73459   1.327   8.864   1.432
24406WAT     H173460   1.409   8.807   1.433
24406WAT     H273461   1.258   8.823   1.373
24407WAT      O73462   9.519   9.472   9.777
24407WAT     H173463   9.441   9.447   9.721
24407WAT     H273464   9.559   9.557   9.742
24408WAT      O73465   5.685   6.940   2.894
24408WAT     H173466   5.595   6.901   2.913
24408WAT     H273467   5.695   7.027   2.943
24409WAT      O73468   1.656   1.575   7.789
24409WAT     H173469   1.647   1.476   7.779
24409WAT     H273470   1.567   1.618   7.773
24410WAT      O73471   3.132   8.468   7.488
24410WAT     H173472   3.165   8.376   7.466
24410WAT     H273473   3.139   8.527   7.407
24411WAT      O73474   5.048   2.962   1.236
24411WAT     H173475   5.017   3.016   1.314
24411WAT     H273476   5.134   2.916   1.259
24412WAT      O73477   7.855   0.872   1.448
24412WAT     H173478   7.877   0.822   1.532
24412WAT     H273479   7.930   0.861   1.382
24413WAT      O73480   0.071   1.506   1.232
24413WAT     H173481   0.152   1.520   1.175
24413WAT     H273482  -0.009   1.493   1.174
24414WAT      O73483   9.322   8.396   8.504
24414WAT     H173484   9.337   8.331   8.429
24414WAT     H273485   9.301   8.486   8.467
24415WAT      O73486   2.960   5.894   9.408
24415WAT     H173487   3.029   5.964   9.390
24415WAT     H273488   2.968   5.864   9.503
24416WAT      O73489   3.350   6.982   0.998
24416WAT     H173490   3.302   7.067   0.980
24416WAT     H273491   3.409   6.959   0.920
24417WAT      O73492   7.461   8.252   7.318
24417WAT     H173493   7.401   8.205   7.383
24417WAT     H273494   7.505   8.330   7.364
24418WAT      O73495   8.270   1.478   1.853
24418WAT     H173496   8.310   1.404   1.907
24418WAT     H273497   8.198   1.441   1.794
24419WAT      O73498   5.912   6.911   1.190
24419WAT     H173499   5.959   6.847   1.128
24419WAT     H273500   5.816   6.886   1.197
24420WAT      O73501   8.007   9.393   3.246
24420WAT     H173502   7.995   9.361   3.340
24420WAT     H273503   8.016   9.314   3.185
24421WAT      O73504  -0.003   1.973   2.615
24421WAT     H173505  -0.041   1.892   2.569
24421WAT     H273506   0.097   1.967   2.616
24422WAT      O73507   0.930   6.620   2.293
24422WAT     H173508   0.849   6.671   2.323
24422WAT     H273509   0.947   6.638   2.196
24423WAT      O73510   2.382   0.734   8.451
24423WAT     H173511   2.340   0.802   8.512
24423WAT     H273512   2.367   0.761   8.356
24424WAT      O73513   4.057   1.484   8.217
24424WAT     H173514   3.995   1.507   8.292
24424WAT     H273515   4.006   1.442   8.142
24425WAT      O73516   2.494   3.763   6.806
24425WAT     H173517   2.577   3.795   6.760
24425WAT     H273518   2.509   3.760   6.905
24426WAT      O73519   8.551   0.874   4.387
24426WAT     H173520   8.547   0.868   4.287
24426WAT     H273521   8.462   0.848   4.426
24427WAT      O73522   5.971   8.204   0.360
24427WAT     H173523   6.009   8.119   0.323
24427WAT     H273524   5.875   8.191   0.381
24428WAT      O73525   1.967   7.064   6.502
24428WAT     H173526   2.041   7.094   6.442
24428WAT     H273527   1.896   7.018   6.448
24429WAT      O73528   4.748   9.396   7.666
24429WAT     H173529   4.775   9.420   7.759
24429WAT     H273530   4.809   9.326   7.630
24430WAT      O73531   2.502   9.000   7.106
24430WAT     H173532   2.552   9.086   7.098
24430WAT     H273533   2.423   9.001   7.046
24431WAT      O73534   1.940   8.736   4.379
24431WAT     H173535   2.017   8.786   4.416
24431WAT     H273536   1.856   8.788   4.393
24432WAT      O73537   9.477   5.699   7.163
24432WAT     H173538   9.477   5.624   7.229
24432WAT     H273539   9.461   5.785   7.211
24433WAT      O73540   8.596   1.498   1.830
24433WAT     H173541   8.531   1.574   1.824
24433WAT     H273542   8.573   1.429   1.761
24434WAT      O73543   3.019   1.098   2.275
24434WAT     H173544   3.044   1.007   2.242
24434WAT     H273545   2.968   1.089   2.360
24435WAT      O73546   0.877   4.070   5.441
24435WAT     H173547   0.835   4.150   5.397
24435WAT     H273548   0.874   4.081   5.540
24436WAT      O73549   8.186   3.505   2.088
24436WAT     H173550   8.219   3.600   2.089
24436WAT     H273551   8.247   3.448   2.142
24437WAT      O73552   6.651   1.193   8.008
24437WAT     H173553   6.603   1.240   8.082
24437WAT     H273554   6.692   1.260   7.946
24438WAT      O73555   0.598   5.097   8.038
24438WAT     H173556   0.631   5.006   8.014
24438WAT     H273557   0.647   5.129   8.120
24439WAT      O73558   0.149   2.138   4.496
24439WAT     H173559   0.103   2.222   4.525
24439WAT     H273560   0.102   2.059   4.537
24440WAT      O73561   9.820   6.243   0.451
24440WAT     H173562   9.853   6.150   0.442
24440WAT     H273563   9.795   6.261   0.546
24441WAT      O73564   5.419   9.512   6.805
24441WAT     H173565   5.335   9.551   6.843
24441WAT     H273566   5.484   9.495   6.879
24442WAT      O73567   4.639   7.071   9.159
24442WAT     H173568   4.729   7.052   9.199
24442WAT     H273569   4.641   7.048   9.062
24443WAT      O73570   5.969   8.655   2.680
24443WAT     H173571   5.963   8.754   2.672
24443WAT     H273572   6.040   8.631   2.747
24444WAT      O73573   7.860   8.695   5.282
24444WAT     H173574   7.854   8.652   5.192
24444WAT     H273575   7.956   8.704   5.309
24445WAT      O73576   2.986   3.196   6.422
24445WAT     H173577   3.072   3.161   6.460
24445WAT     H273578   2.992   3.196   6.322
24446WAT      O73579   6.801   2.835   2.191
24446WAT     H173580   6.854   2.844   2.107
24446WAT     H273581   6.703   2.840   2.170
24447WAT      O73582   3.602   1.949   8.621
24447WAT     H173583   3.656   2.033   8.616
24447WAT     H273584   3.658   1.871   8.590
24448WAT      O73585   7.133   3.866   0.446
24448WAT     H173586   7.227   3.852   0.414
24448WAT     H273587   7.120   3.962   0.470
24449WAT      O73588   4.879   7.023   6.926
24449WAT     H173589   4.909   6.934   6.893
24449WAT     H273590   4.798   7.052   6.875
24450WAT      O73591   4.441   7.484   8.370
24450WAT     H173592   4.471   7.390   8.384
24450WAT     H273593   4.344   7.493   8.392
24451WAT      O73594   3.823   6.186   4.238
24451WAT     H173595   3.859   6.232   4.158
24451WAT     H273596   3.891   6.121   4.273
24452WAT      O73597   0.473   7.756   3.151
24452WAT     H173598   0.390   7.735   3.202
24452WAT     H273599   0.484   7.856   3.144
24453WAT      O73600   2.973   4.510   4.308
24453WAT     H173601   3.023   4.596   4.319
24453WAT     H273602   3.012   4.458   4.232
24454WAT      O73603   3.422   3.966   4.950
24454WAT     H173604   3.341   4.015   4.918
24454WAT     H273605   3.453   3.903   4.878
24455WAT      O73606   0.126   1.025   3.844
24455WAT     H173607   0.157   1.103   3.900
24455WAT     H273608   0.071   1.059   3.768
24456WAT      O73609   2.617   0.425   6.157
24456WAT     H173610   2.613   0.376   6.243
24456WAT     H273611   2.655   0.516   6.172
24457WAT      O73612   6.765   7.643   7.313
24457WAT     H173613   6.844   7.642   7.374
24457WAT     H273614   6.757   7.555   7.267
24458WAT      O73615   6.664   6.801   7.224
24458WAT     H173616   6.726   6.788   7.301
24458WAT     H273617   6.679   6.891   7.183
24459WAT      O73618   3.859   8.836   9.015
24459WAT     H173619   3.908   8.898   9.076
24459WAT     H273620   3.925   8.789   8.956
24460WAT      O73621   1.681   8.094   6.694
24460WAT     H173622   1.779   8.108   6.707
24460WAT     H273623   1.667   8.015   6.634
24461WAT      O73624   8.280   5.424   7.990
24461WAT     H173625   8.207   5.369   7.950
24461WAT     H273626   8.327   5.475   7.918
24462WAT      O73627   2.817   2.870   1.746
24462WAT     H173628   2.724   2.833   1.738
24462WAT     H273629   2.879   2.816   1.690
24463WAT      O73630   9.876   5.225   1.734
24463WAT     H173631   9.911   5.319   1.733
24463WAT     H273632   9.952   5.161   1.727
24464WAT      O73633   7.265   0.507   9.772
24464WAT     H173634   7.335   0.576   9.792
24464WAT     H273635   7.301   0.416   9.796
24465WAT      O73636   6.122   8.321   3.960
24465WAT     H173637   6.152   8.370   3.877
24465WAT     H273638   6.201   8.281   4.005
24466WAT      O73639   3.942   1.814   5.325
24466WAT     H173640   3.941   1.897   5.270
24466WAT     H273641   3.980   1.835   5.415
24467WAT      O73642   7.055   7.452   9.557
24467WAT     H173643   7.026   7.379   9.495
24467WAT     H273644   7.106   7.413   9.633
24468WAT      O73645   6.197   8.982   4.779
24468WAT     H173646   6.207   8.979   4.878
24468WAT     H273647   6.222   8.893   4.741
24469WAT      O73648   5.698   7.561   5.591
24469WAT     H173649   5.712   7.623   5.668
24469WAT     H273650   5.777   7.567   5.529
24470WAT      O73651   3.963   6.123   4.653
24470WAT     H173652   3.887   6.095   4.594
24470WAT     H273653   3.928   6.146   4.744
24471WAT      O73654   7.711   0.560   1.369
24471WAT     H173655   7.794   0.509   1.393
24471WAT     H273656   7.632   0.498   1.375
24472WAT      O73657   5.713   3.742   3.614
24472WAT     H173658   5.710   3.651   3.654
24472WAT     H273659   5.792   3.750   3.553
24473WAT      O73660   5.612   8.348   9.380
24473WAT     H173661   5.572   8.439   9.386
24473WAT     H273662   5.655   8.324   9.467
24474WAT      O73663   4.638   1.893   2.096
24474WAT     H173664   4.644   1.992   2.088
24474WAT     H273665   4.573   1.858   2.028
24475WAT      O73666   2.425   3.554   0.861
24475WAT     H173667   2.401   3.572   0.957
24475WAT     H273668   2.450   3.458   0.851
24476WAT      O73669   9.063   4.984   3.699
24476WAT     H173670   9.034   4.996   3.794
24476WAT     H273671   9.135   5.049   3.677
24477WAT      O73672   0.420   1.212   1.265
24477WAT     H173673   0.325   1.239   1.284
24477WAT     H273674   0.464   1.284   1.211
24478WAT      O73675   0.256   3.457   7.588
24478WAT     H173676   0.298   3.453   7.497
24478WAT     H273677   0.318   3.505   7.650
24479WAT      O73678   1.393   6.782   7.829
24479WAT     H173679   1.474   6.728   7.853
24479WAT     H273680   1.342   6.735   7.758
24480WAT      O73681   1.405   1.613   9.210
24480WAT     H173682   1.375   1.654   9.296
24480WAT     H273683   1.483   1.552   9.227
24481WAT      O73684   6.827   8.167   3.602
24481WAT     H173685   6.816   8.159   3.701
24481WAT     H273686   6.818   8.263   3.575
24482WAT      O73687   3.708   3.244   3.960
24482WAT     H173688   3.628   3.212   4.010
24482WAT     H273689   3.790   3.197   3.992
24483WAT      O73690   5.115   9.212   6.798
24483WAT     H173691   5.215   9.210   6.799
24483WAT     H273692   5.079   9.120   6.784
24484WAT      O73693   5.445   1.296   0.383
24484WAT     H173694   5.354   1.288   0.425
24484WAT     H273695   5.463   1.214   0.329
24485WAT      O73696   4.481   4.436   8.149
24485WAT     H173697   4.420   4.371   8.104
24485WAT     H273698   4.576   4.408   8.135
24486WAT      O73699   9.322   3.448   7.913
24486WAT     H173700   9.244   3.507   7.937
24486WAT     H273701   9.295   3.385   7.840
24487WAT      O73702   0.599   6.299   6.631
24487WAT     H173703   0.660   6.371   6.598
24487WAT     H273704   0.516   6.297   6.576
24488WAT      O73705   6.008   3.967   6.292
24488WAT     H173706   6.085   3.920   6.248
24488WAT     H273707   6.029   3.979   6.389
24489WAT      O73708   5.984   3.136   7.817
24489WAT     H173709   5.996   3.215   7.758
24489WAT     H273710   5.991   3.164   7.913
24490WAT      O73711   0.225   2.659   1.163
24490WAT     H173712   0.189   2.572   1.127
24490WAT     H273713   0.246   2.648   1.260
24491WAT      O73714   1.810   6.668   7.411
24491WAT     H173715   1.829   6.760   7.377
24491WAT     H273716   1.785   6.608   7.334
24492WAT      O73717   2.465   1.578   2.413
24492WAT     H173718   2.519   1.496   2.433
24492WAT     H273719   2.498   1.620   2.328
24493WAT      O73720   4.561   8.821   6.640
24493WAT     H173721   4.650   8.844   6.679
24493WAT     H273722   4.499   8.899   6.649
24494WAT      O73723   1.573   3.294   7.059
24494WAT     H173724   1.594   3.346   7.142
24494WAT     H273725   1.658   3.260   7.020
24495WAT      O73726   9.486   6.589   8.390
24495WAT     H173727   9.507   6.593   8.488
24495WAT     H273728   9.422   6.662   8.366
24496WAT      O73729   6.491   6.826   0.564
24496WAT     H173730   6.419   6.806   0.498
24496WAT     H273731   6.577   6.842   0.516
24497WAT      O73732   8.081   4.058   9.591
24497WAT     H173733   8.080   3.981   9.655
24497WAT     H273734   8.162   4.050   9.532
24498WAT      O73735   5.340   7.036   1.696
24498WAT     H173736   5.343   7.047   1.795
24498WAT     H273737   5.354   7.125   1.651
24499WAT      O73738   2.462   6.412   3.645
24499WAT     H173739   2.446   6.346   3.572
24499WAT     H273740   2.434   6.503   3.615
24500WAT      O73741   5.649   3.099   5.959
24500WAT     H173742   5.624   3.029   5.891
24500WAT     H273743   5.744   3.087   5.986
24501WAT      O73744   9.612   1.993   4.067
24501WAT     H173745   9.677   2.050   4.119
24501WAT     H273746   9.543   1.957   4.130
24502WAT      O73747   4.273   5.713   5.315
24502WAT     H173748   4.333   5.771   5.259
24502WAT     H273749   4.178   5.729   5.289
24503WAT      O73750   7.912   2.483   0.961
24503WAT     H173751   7.854   2.468   1.041
24503WAT     H273752   7.996   2.431   0.970
24504WAT      O73753   4.641   3.789   9.438
24504WAT     H173754   4.597   3.813   9.352
24504WAT     H273755   4.632   3.690   9.453
24505WAT      O73756   8.635   1.515   0.234
24505WAT     H173757   8.583   1.585   0.185
24505WAT     H273758   8.571   1.449   0.274
24506WAT      O73759   0.437   3.618   5.998
24506WAT     H173760   0.530   3.583   6.012
24506WAT     H273761   0.376   3.579   6.066
24507WAT      O73762   5.351   0.198   6.307
24507WAT     H173763   5.304   0.189   6.395
24507WAT     H273764   5.291   0.245   6.242
24508WAT      O73765   3.252   5.503   2.950
24508WAT     H173766   3.218   5.542   2.865
24508WAT     H273767   3.203   5.419   2.971
24509WAT      O73768   7.060   7.773   7.951
24509WAT     H173769   7.054   7.694   8.011
24509WAT     H273770   7.044   7.857   8.004
24510WAT      O73771   4.300   7.461   4.063
24510WAT     H173772   4.394   7.495   4.063
24510WAT     H273773   4.268   7.451   4.157
24511WAT      O73774   4.998   4.476   2.319
24511WAT     H173775   5.074   4.478   2.384
24511WAT     H273776   5.008   4.397   2.258
24512WAT      O73777   7.213   1.958   1.915
24512WAT     H173778   7.292   1.969   1.975
24512WAT     H273779   7.153   2.038   1.924
24513WAT      O73780   7.346   1.388   2.589
24513WAT     H173781   7.436   1.402   2.632
24513WAT     H273782   7.358   1.360   2.494
24514WAT      O73783   8.332   5.505   4.377
24514WAT     H173784   8.250   5.561   4.387
24514WAT     H273785   8.375   5.494   4.467
24515WAT      O73786   5.012   2.113   2.807
24515WAT     H173787   4.970   2.100   2.717
24515WAT     H273788   5.036   2.210   2.819
24516WAT      O73789   2.484   3.270   7.506
24516WAT     H173790   2.388   3.274   7.480
24516WAT     H273791   2.494   3.211   7.586
24517WAT      O73792   7.085   6.385   6.429
24517WAT     H173793   7.152   6.319   6.462
24517WAT     H273794   7.002   6.380   6.485
24518WAT      O73795   4.639   7.377   0.423
24518WAT     H173796   4.547   7.345   0.401
24518WAT     H273797   4.704   7.302   0.412
24519WAT      O73798   7.383   9.678   0.230
24519WAT     H173799   7.292   9.647   0.203
24519WAT     H273800   7.449   9.651   0.161
24520WAT      O73801   7.338   5.057   1.375
24520WAT     H173802   7.413   4.994   1.392
24520WAT     H273803   7.261   5.008   1.334
24521WAT      O73804   5.873   3.769   7.797
24521WAT     H173805   5.918   3.838   7.854
24521WAT     H273806   5.934   3.691   7.785
24522WAT      O73807   1.687   7.203   6.330
24522WAT     H173808   1.740   7.133   6.283
24522WAT     H273809   1.726   7.293   6.313
24523WAT      O73810   3.882   2.235   7.560
24523WAT     H173811   3.894   2.273   7.652
24523WAT     H273812   3.821   2.157   7.564
24524WAT      O73813   8.841   0.867   7.906
24524WAT     H173814   8.925   0.814   7.889
24524WAT     H273815   8.810   0.908   7.821
24525WAT      O73816   1.937   3.583   1.035
24525WAT     H173817   1.945   3.490   1.071
24525WAT     H273818   1.962   3.584   0.938
24526WAT      O73819   5.335   3.671   3.649
24526WAT     H173820   5.417   3.655   3.594
24526WAT     H273821   5.352   3.640   3.743
24527WAT      O73822   6.737   3.265   2.440
24527WAT     H173823   6.787   3.180   2.421
24527WAT     H273824   6.685   3.255   2.525
24528WAT      O73825   8.946   3.566   4.028
24528WAT     H173826   8.955   3.471   4.058
24528WAT     H273827   8.869   3.574   3.964
24529WAT      O73828   6.941   3.299   9.033
24529WAT     H173829   6.904   3.274   8.944
24529WAT     H273830   7.029   3.253   9.047
24530WAT      O73831   1.860   1.427   1.663
24530WAT     H173832   1.882   1.449   1.568
24530WAT     H273833   1.881   1.505   1.721
24531WAT      O73834   5.384   9.560   3.131
24531WAT     H173835   5.376   9.659   3.132
24531WAT     H273836   5.396   9.528   3.037
24532WAT      O73837   3.930   7.977   5.001
24532WAT     H173838   3.946   7.921   5.083
24532WAT     H273839   3.947   8.073   5.023
24533WAT      O73840   8.684   6.925   0.643
24533WAT     H173841   8.626   6.938   0.563
24533WAT     H273842   8.669   6.999   0.709
24534WAT      O73843   5.752   1.437   6.968
24534WAT     H173844   5.682   1.371   6.941
24534WAT     H273845   5.775   1.494   6.890
24535WAT      O73846   6.607   7.803   4.180
24535WAT     H173847   6.589   7.843   4.270
24535WAT     H273848   6.705   7.807   4.160
24536WAT      O73849   8.443   0.344   0.390
24536WAT     H173850   8.396   0.333   0.302
24536WAT     H273851   8.541   0.325   0.378
24537WAT      O73852   4.349   1.791   1.481
24537WAT     H173853   4.370   1.847   1.560
24537WAT     H273854   4.373   1.695   1.500
24538WAT      O73855   7.597   2.250   0.655
24538WAT     H173856   7.648   2.230   0.571
24538WAT     H273857   7.660   2.247   0.733
24539WAT      O73858   2.366   1.364   6.392
24539WAT     H173859   2.410   1.398   6.476
24539WAT     H273860   2.317   1.279   6.412
24540WAT      O73861   6.510   0.328   6.702
24540WAT     H173862   6.600   0.313   6.742
24540WAT     H273863   6.480   0.421   6.722
24541WAT      O73864   0.761   6.937   4.193
24541WAT     H173865   0.670   6.904   4.165
24541WAT     H273866   0.813   6.962   4.111
24542WAT      O73867   2.259   1.332   4.558
24542WAT     H173868   2.250   1.236   4.531
24542WAT     H273869   2.299   1.338   4.649
24543WAT      O73870   1.329   9.176   2.545
24543WAT     H173871   1.307   9.163   2.642
24543WAT     H273872   1.367   9.267   2.531
24544WAT      O73873   4.339   1.697   4.321
24544WAT     H173874   4.359   1.788   4.358
24544WAT     H273875   4.409   1.633   4.352
24545WAT      O73876   9.376   2.758   9.746
24545WAT     H173877   9.372   2.678   9.687
24545WAT     H273878   9.296   2.815   9.732
24546WAT      O73879   4.706   0.565   3.859
24546WAT     H173880   4.778   0.564   3.928
24546WAT     H273881   4.741   0.525   3.774
24547WAT      O73882   7.827   0.970   8.319
24547WAT     H173883   7.765   0.972   8.241
24547WAT     H273884   7.866   0.879   8.329
24548WAT      O73885   3.558   0.252   2.358
24548WAT     H173886   3.476   0.223   2.308
24548WAT     H273887   3.601   0.328   2.309
24549WAT      O73888   7.750   0.249   8.572
24549WAT     H173889   7.772   0.185   8.499
24549WAT     H273890   7.669   0.303   8.546
24550WAT      O73891   2.475   1.021   0.971
24550WAT     H173892   2.502   0.983   1.059
24550WAT     H273893   2.420   0.953   0.922
24551WAT      O73894   8.816   0.899   9.091
24551WAT     H173895   8.807   0.866   8.997
24551WAT     H273896   8.895   0.961   9.097
24552WAT      O73897   9.007   6.143   0.519
24552WAT     H173898   9.009   6.045   0.535
24552WAT     H273899   9.084   6.186   0.566
24553WAT      O73900   7.172   9.083   3.742
24553WAT     H173901   7.130   8.998   3.776
24553WAT     H273902   7.188   9.076   3.644
24554WAT      O73903   8.509   6.963   2.146
24554WAT     H173904   8.417   6.931   2.123
24554WAT     H273905   8.567   6.885   2.166
24555WAT      O73906   9.532   9.817   3.035
24555WAT     H173907   9.549   9.915   3.041
24555WAT     H273908   9.619   9.769   3.018
24556WAT      O73909   9.051   7.041   6.232
24556WAT     H173910   9.090   7.083   6.314
24556WAT     H273911   9.124   7.024   6.165
24557WAT      O73912   8.416   7.066   4.178
24557WAT     H173913   8.449   6.977   4.210
24557WAT     H273914   8.360   7.053   4.096
24558WAT      O73915   5.183   6.537   7.847
24558WAT     H173916   5.232   6.497   7.770
24558WAT     H273917   5.092   6.566   7.818
24559WAT      O73918   7.053   2.935   7.981
24559WAT     H173919   7.038   3.032   7.963
24559WAT     H273920   6.999   2.907   8.060
24560WAT      O73921   6.819   5.242   7.624
24560WAT     H173922   6.750   5.234   7.696
24560WAT     H273923   6.876   5.160   7.623
24561WAT      O73924   8.030   4.463   5.906
24561WAT     H173925   7.933   4.439   5.906
24561WAT     H273926   8.085   4.380   5.903
24562WAT      O73927   0.064   9.319   5.438
24562WAT     H173928   0.143   9.259   5.424
24562WAT     H273929   0.074   9.368   5.524
24563WAT      O73930   6.925   4.461   8.672
24563WAT     H173931   6.986   4.396   8.626
24563WAT     H273932   6.979   4.523   8.728
24564WAT      O73933   9.340   0.811   6.961
24564WAT     H173934   9.344   0.910   6.979
24564WAT     H273935   9.318   0.797   6.864
24565WAT      O73936   3.312   3.075   9.450
24565WAT     H173937   3.246   3.129   9.398
24565WAT     H273938   3.310   3.103   9.546
24566WAT      O73939   3.523   0.851   0.020
24566WAT     H173940   3.530   0.875   0.117
24566WAT     H273941   3.612   0.820  -0.013
24567WAT      O73942   2.926   2.993   4.645
24567WAT     H173943   2.914   3.015   4.548
24567WAT     H273944   2.870   3.054   4.701
24568WAT      O73945   0.376   0.968   7.547
24568WAT     H173946   0.431   0.885   7.538
24568WAT     H273947   0.301   0.966   7.481
24569WAT      O73948   1.148   9.396   0.372
24569WAT     H173949   1.187   9.452   0.445
24569WAT     H273950   1.073   9.341   0.407
24570WAT      O73951   7.203   5.628   0.578
24570WAT     H173952   7.283   5.644   0.636
24570WAT     H273953   7.215   5.677   0.492
24571WAT      O73954   5.908   9.652   7.197
24571WAT     H173955   5.920   9.703   7.282
24571WAT     H273956   5.995   9.646   7.149
24572WAT      O73957   6.152   5.899   1.880
24572WAT     H173958   6.205   5.928   1.801
24572WAT     H273959   6.203   5.830   1.931
24573WAT      O73960   6.920   5.412   7.821
24573WAT     H173961   6.903   5.362   7.736
24573WAT     H273962   6.902   5.510   7.806
24574WAT      O73963   1.413   1.752   6.570
24574WAT     H173964   1.430   1.841   6.610
24574WAT     H273965   1.326   1.716   6.603
24575WAT      O73966   2.608   5.710   3.241
24575WAT     H173967   2.529   5.721   3.181
24575WAT     H273968   2.580   5.666   3.326
24576WAT      O73969   7.727   0.729   8.655
24576WAT     H173970   7.757   0.634   8.662
24576WAT     H273971   7.659   0.747   8.726
24577WAT      O73972   6.178   1.915   5.633
24577WAT     H173973   6.253   1.979   5.615
24577WAT     H273974   6.214   1.835   5.680
24578WAT      O73975   2.687   2.053   4.451
24578WAT     H173976   2.731   2.104   4.377
24578WAT     H273977   2.595   2.026   4.423
24579WAT      O73978   4.358   6.497   9.535
24579WAT     H173979   4.441   6.514   9.588
24579WAT     H273980   4.302   6.428   9.582
24580WAT      O73981   6.662   2.228   3.479
24580WAT     H173982   6.608   2.228   3.563
24580WAT     H273983   6.617   2.171   3.410
24581WAT      O73984   9.052   4.415   2.353
24581WAT     H173985   9.001   4.346   2.302
24581WAT     H273986   9.092   4.481   2.289
24582WAT      O73987   8.891   8.662   6.802
24582WAT     H173988   8.889   8.742   6.862
24582WAT     H273989   8.871   8.580   6.857
24583WAT      O73990   5.535   9.531   3.403
24583WAT     H173991   5.489   9.546   3.316
24583WAT     H273992   5.472   9.550   3.478
24584WAT      O73993   8.535   5.636   3.244
24584WAT     H173994   8.450   5.687   3.257
24584WAT     H273995   8.613   5.695   3.264
24585WAT      O73996   6.025   3.994   2.436
24585WAT     H173997   5.952   3.954   2.492
24585WAT     H273998   6.111   3.947   2.454
24586WAT      O73999   3.264   6.738   2.720
24586WAT     H174000   3.240   6.709   2.627
24586WAT     H274001   3.337   6.807   2.715
24587WAT      O74002   7.491   5.430   1.636
24587WAT     H174003   7.516   5.336   1.611
24587WAT     H274004   7.467   5.433   1.733
24588WAT      O74005   5.830   3.606   3.906
24588WAT     H174006   5.737   3.617   3.869
24588WAT     H274007   5.826   3.608   4.006
24589WAT      O74008   3.207   0.005   0.746
24589WAT     H174009   3.146   0.077   0.715
24589WAT     H274010   3.273   0.043   0.811
24590WAT      O74011   7.892   4.318   1.856
24590WAT     H174012   7.932   4.226   1.852
24590WAT     H274013   7.849   4.331   1.946
24591WAT      O74014   0.657   0.229   7.645
24591WAT     H174015   0.738   0.241   7.588
24591WAT     H274016   0.612   0.143   7.621
24592WAT      O74017   1.957   1.244   9.403
24592WAT     H174018   2.018   1.266   9.479
24592WAT     H274019   1.873   1.298   9.411
24593WAT      O74020   6.029   0.584   2.652
24593WAT     H174021   5.997   0.636   2.572
24593WAT     H274022   5.959   0.588   2.723
24594WAT      O74023   7.765   9.741   3.899
24594WAT     H174024   7.795   9.801   3.973
24594WAT     H274025   7.736   9.797   3.821
24595WAT      O74026   2.202   8.791   3.932
24595WAT     H174027   2.258   8.708   3.937
24595WAT     H274028   2.229   8.854   4.005
24596WAT      O74029   4.747   3.365   3.665
24596WAT     H174030   4.790   3.345   3.753
24596WAT     H274031   4.721   3.279   3.620
24597WAT      O74032   9.276   4.031   1.412
24597WAT     H174033   9.255   3.938   1.383
24597WAT     H274034   9.344   4.028   1.486
24598WAT      O74035   3.919   1.282   6.246
24598WAT     H174036   3.966   1.359   6.202
24598WAT     H274037   3.820   1.293   6.235
24599WAT      O74038   3.912   2.967   0.928
24599WAT     H174039   3.961   3.033   0.985
24599WAT     H274040   3.814   2.985   0.932
24600WAT      O74041   1.297   8.395   6.502
24600WAT     H174042   1.266   8.490   6.499
24600WAT     H274043   1.397   8.393   6.501
24601WAT      O74044   8.766   6.392   9.136
24601WAT     H174045   8.810   6.377   9.224
24601WAT     H274046   8.803   6.475   9.094
24602WAT      O74047   3.511   9.354   9.794
24602WAT     H174048   3.427   9.315   9.831
24602WAT     H274049   3.533   9.311   9.707
24603WAT      O74050   9.362   7.109   9.171
24603WAT     H174051   9.452   7.152   9.169
24603WAT     H274052   9.293   7.172   9.136
24604WAT      O74053   2.404   7.429   7.251
24604WAT     H174054   2.321   7.390   7.291
24604WAT     H274055   2.462   7.355   7.218
24605WAT      O74056   8.413   3.246   7.189
24605WAT     H174057   8.454   3.332   7.217
24605WAT     H274058   8.313   3.254   7.192
24606WAT      O74059   8.294   3.896   9.170
24606WAT     H174060   8.340   3.980   9.141
24606WAT     H274061   8.259   3.849   9.089
24607WAT      O74062   4.318   7.292   2.608
24607WAT     H174063   4.311   7.197   2.638
24607WAT     H274064   4.377   7.297   2.527
24608WAT      O74065   5.270   3.216   1.465
24608WAT     H174066   5.257   3.315   1.455
24608WAT     H274067   5.182   3.172   1.481
24609WAT      O74068   0.100   3.165   9.251
24609WAT     H174069   0.058   3.096   9.192
24609WAT     H274070   0.034   3.195   9.319
24610WAT      O74071   1.906   5.451   5.445
24610WAT     H174072   1.932   5.457   5.541
24610WAT     H274073   1.984   5.418   5.391
24611WAT      O74074   3.661   1.480   9.059
24611WAT     H174075   3.645   1.491   8.961
24611WAT     H274076   3.752   1.516   9.082
24612WAT      O74077   2.942   5.155   3.779
24612WAT     H174078   2.860   5.098   3.778
24612WAT     H274079   2.932   5.229   3.712
24613WAT      O74080   6.177   1.992   4.263
24613WAT     H174081   6.136   1.969   4.174
24613WAT     H274082   6.220   1.911   4.302
24614WAT      O74083   9.546   8.789   4.879
24614WAT     H174084   9.478   8.820   4.946
24614WAT     H274085   9.531   8.837   4.792
24615WAT      O74086   6.904   8.906   0.488
24615WAT     H174087   6.933   8.986   0.436
24615WAT     H274088   6.839   8.853   0.434
24616WAT      O74089   4.041   6.577   6.157
24616WAT     H174090   3.983   6.657   6.174
24616WAT     H274091   4.085   6.549   6.242
24617WAT      O74092   1.233   4.915   1.090
24617WAT     H174093   1.155   4.880   1.141
24617WAT     H274094   1.283   4.982   1.146
24618WAT      O74095   5.460   5.381   3.592
24618WAT     H174096   5.365   5.352   3.585
24618WAT     H274097   5.520   5.311   3.552
24619WAT      O74098   2.080   7.465   2.775
24619WAT     H174099   2.159   7.417   2.738
24619WAT     H274100   2.085   7.562   2.750
24620WAT      O74101   6.003   0.014   5.492
24620WAT     H174102   5.977  -0.035   5.575
24620WAT     H274103   5.952  -0.021   5.414
24621WAT      O74104   5.521   0.961   2.528
24621WAT     H174105   5.587   1.031   2.558
24621WAT     H274106   5.523   0.955   2.429
24622WAT      O74107   0.166   6.233   6.826
24622WAT     H174108   0.085   6.180   6.801
24622WAT     H274109   0.190   6.216   6.921
24623WAT      O74110   8.838   8.533   0.340
24623WAT     H174111   8.741   8.550   0.358
24623WAT     H274112   8.880   8.617   0.306
24624WAT      O74113   7.761   3.947   6.187
24624WAT     H174114   7.703   3.946   6.105
24624WAT     H274115   7.851   3.910   6.165
24625WAT      O74116   1.459   3.642   9.007
24625WAT     H174117   1.555   3.658   9.028
24625WAT     H274118   1.441   3.544   9.002
24626WAT      O74119   2.778   1.203   8.152
24626WAT     H174120   2.831   1.129   8.196
24626WAT     H274121   2.693   1.166   8.117
24627WAT      O74122   0.781   5.535   7.556
24627WAT     H174123   0.749   5.452   7.603
24627WAT     H274124   0.832   5.592   7.621
24628WAT      O74125   6.374   0.120   5.039
24628WAT     H174126   6.342   0.035   5.081
24628WAT     H274127   6.376   0.109   4.940
24629WAT      O74128   3.804   5.587   5.459
24629WAT     H174129   3.880   5.647   5.437
24629WAT     H274130   3.757   5.561   5.375
24630WAT      O74131   2.267   5.325   2.901
24630WAT     H174132   2.175   5.287   2.897
24630WAT     H274133   2.282   5.386   2.822
24631WAT      O74134   5.618   0.076   4.483
24631WAT     H174135   5.550   0.149   4.491
24631WAT     H274136   5.635   0.037   4.573
24632WAT      O74137   3.538   0.613   5.265
24632WAT     H174138   3.537   0.614   5.365
24632WAT     H274139   3.552   0.706   5.231
24633WAT      O74140   2.620   2.175   2.867
24633WAT     H174141   2.651   2.088   2.904
24633WAT     H274142   2.665   2.251   2.914
24634WAT      O74143   7.408   3.854   5.854
24634WAT     H174144   7.313   3.859   5.824
24634WAT     H274145   7.468   3.890   5.783
24635WAT      O74146   8.411   5.536   1.228
24635WAT     H174147   8.326   5.547   1.280
24635WAT     H274148   8.391   5.496   1.139
24636WAT      O74149   4.857   8.622   6.789
24636WAT     H174150   4.765   8.597   6.819
24636WAT     H274151   4.917   8.630   6.868
24637WAT      O74152   7.824   4.661   4.087
24637WAT     H174153   7.741   4.696   4.131
24637WAT     H274154   7.826   4.561   4.094
24638WAT      O74155   6.742   4.119   3.077
24638WAT     H174156   6.841   4.129   3.075
24638WAT     H274157   6.717   4.045   3.140
24639WAT      O74158   7.418   8.644   3.932
24639WAT     H174159   7.420   8.717   3.864
24639WAT     H274160   7.446   8.558   3.890
24640WAT      O74161   5.784   2.356   8.455
24640WAT     H174162   5.740   2.295   8.389
24640WAT     H274163   5.847   2.417   8.406
24641WAT      O74164   2.122   5.611   5.070
24641WAT     H174165   2.022   5.604   5.080
24641WAT     H274166   2.158   5.528   5.028
24642WAT      O74167   1.552   2.125   9.083
24642WAT     H174168   1.459   2.101   9.057
24642WAT     H274169   1.597   2.047   9.126
24643WAT      O74170   1.450   7.827   8.340
24643WAT     H174171   1.445   7.727   8.338
24643WAT     H274172   1.507   7.860   8.265
24644WAT      O74173   4.983   5.286   3.927
24644WAT     H174174   5.053   5.216   3.914
24644WAT     H274175   5.013   5.351   3.997
24645WAT      O74176   5.620   4.005   2.250
24645WAT     H174177   5.535   4.056   2.236
24645WAT     H274178   5.607   3.937   2.322
24646WAT      O74179   1.098   5.401   1.984
24646WAT     H174180   1.014   5.346   1.980
24646WAT     H274181   1.102   5.449   2.072
24647WAT      O74182   3.488   6.180   2.282
24647WAT     H174183   3.536   6.169   2.195
24647WAT     H274184   3.391   6.197   2.264
24648WAT      O74185   6.395   2.767   1.570
24648WAT     H174186   6.370   2.746   1.476
24648WAT     H274187   6.389   2.684   1.626
24649WAT      O74188   7.320   3.934   4.588
24649WAT     H174189   7.291   3.955   4.682
24649WAT     H274190   7.239   3.928   4.530
24650WAT      O74191   0.841   3.863   7.375
24650WAT     H174192   0.849   3.859   7.276
24650WAT     H274193   0.837   3.771   7.413
24651WAT      O74194   4.716   6.646   5.934
24651WAT     H174195   4.618   6.630   5.943
24651WAT     H274196   4.732   6.736   5.893
24652WAT      O74197   8.255   9.094   3.892
24652WAT     H174198   8.201   9.032   3.835
24652WAT     H274199   8.348   9.059   3.901
24653WAT      O74200   4.332   8.715   2.957
24653WAT     H174201   4.398   8.775   3.001
24653WAT     H274202   4.275   8.670   3.026
24654WAT      O74203   8.773   1.718   6.350
24654WAT     H174204   8.795   1.727   6.447
24654WAT     H274205   8.858   1.720   6.297
24655WAT      O74206   6.371   5.947   6.120
24655WAT     H174207   6.463   5.933   6.155
24655WAT     H274208   6.366   5.914   6.026
24656WAT      O74209   6.370   3.986   0.553
24656WAT     H174210   6.403   3.914   0.615
24656WAT     H274211   6.303   3.949   0.490
24657WAT      O74212   5.676   7.052   0.891
24657WAT     H174213   5.667   7.004   0.978
24657WAT     H274214   5.619   7.006   0.822
24658WAT      O74215   2.498   6.088   6.907
24658WAT     H174216   2.520   6.098   7.004
24658WAT     H274217   2.406   6.123   6.890
24659WAT      O74218   9.700   5.668   3.069
24659WAT     H174219   9.606   5.653   3.040
24659WAT     H274220   9.740   5.581   3.100
24660WAT      O74221   6.098   1.632   4.490
24660WAT     H174222   6.003   1.616   4.461
24660WAT     H274223   6.098   1.689   4.572
24661WAT      O74224   4.017   7.629   8.238
24661WAT     H174225   4.092   7.618   8.172
24661WAT     H274226   3.944   7.564   8.218
24662WAT      O74227   7.701   1.874   2.416
24662WAT     H174228   7.741   1.871   2.324
24662WAT     H274229   7.731   1.956   2.464
24663WAT      O74230   0.039   1.268   6.339
24663WAT     H174231  -0.040   1.327   6.354
24663WAT     H274232   0.037   1.192   6.404
24664WAT      O74233   1.186   5.839   1.566
24664WAT     H174234   1.262   5.775   1.575
24664WAT     H274235   1.210   5.926   1.609
24665WAT      O74236   1.014   9.093   9.672
24665WAT     H174237   0.997   9.181   9.716
24665WAT     H274238   1.042   9.026   9.741
24666WAT      O74239   2.352   2.177   2.879
24666WAT     H174240   2.320   2.268   2.903
24666WAT     H274241   2.448   2.181   2.850
24667WAT      O74242   7.980   1.552   3.360
24667WAT     H174243   7.911   1.484   3.387
24667WAT     H274244   7.938   1.619   3.299
24668WAT      O74245   7.317   4.351   2.652
24668WAT     H174246   7.233   4.317   2.609
24668WAT     H274247   7.394   4.296   2.621
24669WAT      O74248   4.743   0.429   6.390
24669WAT     H174249   4.687   0.401   6.311
24669WAT     H274250   4.839   0.411   6.370
24670WAT      O74251   7.676   9.018   9.222
24670WAT     H174252   7.722   9.052   9.305
24670WAT     H274253   7.745   8.992   9.154
24671WAT      O74254   8.886   6.847   7.518
24671WAT     H174255   8.950   6.861   7.593
24671WAT     H274256   8.888   6.926   7.457
24672WAT      O74257   2.853   1.615   3.387
24672WAT     H174258   2.898   1.648   3.470
24672WAT     H274259   2.822   1.521   3.400
24673WAT      O74260   2.768   6.268   1.381
24673WAT     H174261   2.690   6.283   1.321
24673WAT     H274262   2.743   6.293   1.475
24674WAT      O74263   2.345   2.549   6.868
24674WAT     H174264   2.411   2.566   6.795
24674WAT     H274265   2.252   2.549   6.830
24675WAT      O74266   1.907   2.096   5.840
24675WAT     H174267   1.961   2.120   5.921
24675WAT     H274268   1.949   2.017   5.794
24676WAT      O74269   6.943   9.273   8.133
24676WAT     H174270   6.909   9.219   8.056
24676WAT     H274271   6.974   9.362   8.099
24677WAT      O74272   6.864   0.992   0.527
24677WAT     H174273   6.841   0.951   0.616
24677WAT     H274274   6.874   0.919   0.459
24678WAT      O74275   4.074   8.055   5.458
24678WAT     H174276   4.073   8.037   5.557
24678WAT     H274277   4.160   8.021   5.419
24679WAT      O74278   9.168   0.266   9.859
24679WAT     H174279   9.256   0.221   9.872
24679WAT     H274280   9.155   0.335   9.931
24680WAT      O74281   0.298   3.809   4.215
24680WAT     H174282   0.328   3.828   4.308
24680WAT     H274283   0.261   3.716   4.210
24681WAT      O74284   4.355   2.355   1.084
24681WAT     H174285   4.310   2.391   1.001
24681WAT     H274286   4.431   2.297   1.057
24682WAT      O74287   4.390   7.386   1.857
24682WAT     H174288   4.433   7.458   1.802
24682WAT     H274289   4.454   7.355   1.928
24683WAT      O74290   4.205   6.664   1.740
24683WAT     H174291   4.234   6.718   1.819
24683WAT     H274292   4.283   6.614   1.703
24684WAT      O74293   8.936   9.157   0.600
24684WAT     H174294   8.918   9.252   0.625
24684WAT     H274295   8.957   9.104   0.682
24685WAT      O74296   3.237   4.492   7.124
24685WAT     H174297   3.151   4.498   7.073
24685WAT     H274298   3.310   4.534   7.070
24686WAT      O74299   4.007   1.414   5.757
24686WAT     H174300   4.051   1.430   5.845
24686WAT     H274301   4.036   1.483   5.691
24687WAT      O74302   0.888   7.481   1.280
24687WAT     H174303   0.819   7.456   1.348
24687WAT     H274304   0.846   7.486   1.190
24688WAT      O74305   2.889   9.133   8.977
24688WAT     H174306   2.826   9.055   8.981
24688WAT     H274307   2.980   9.104   9.008
24689WAT      O74308   7.217   8.880   7.232
24689WAT     H174309   7.128   8.853   7.195
24689WAT     H274310   7.283   8.891   7.157
24690WAT      O74311   3.516   8.942   0.405
24690WAT     H174312   3.475   8.925   0.494
24690WAT     H274313   3.576   9.022   0.410
24691WAT      O74314   0.398   3.872   0.034
24691WAT     H174315   0.312   3.884  -0.016
24691WAT     H274316   0.381   3.821   0.118
24692WAT      O74317   5.318   3.410   7.451
24692WAT     H174318   5.396   3.381   7.505
24692WAT     H274319   5.263   3.330   7.427
24693WAT      O74320   5.469   1.871   4.051
24693WAT     H174321   5.511   1.948   4.101
24693WAT     H274322   5.377   1.855   4.088
24694WAT      O74323   8.441   3.021   0.664
24694WAT     H174324   8.433   2.979   0.574
24694WAT     H274325   8.505   3.098   0.660
24695WAT      O74326   3.264   7.202   5.606
24695WAT     H174327   3.352   7.154   5.607
24695WAT     H274328   3.191   7.137   5.628
24696WAT      O74329   6.918   4.599   0.602
24696WAT     H174330   7.018   4.593   0.600
24696WAT     H274331   6.879   4.513   0.569
24697WAT      O74332   8.745   0.375   1.068
24697WAT     H174333   8.690   0.409   0.992
24697WAT     H274334   8.761   0.449   1.134
24698WAT      O74335   0.637   2.767   2.808
24698WAT     H174336   0.616   2.707   2.731
24698WAT     H274337   0.647   2.861   2.775
24699WAT      O74338   0.895   0.313   7.524
24699WAT     H174339   0.873   0.262   7.441
24699WAT     H274340   0.992   0.338   7.524
24700WAT      O74341   6.226   6.578   3.262
24700WAT     H174342   6.188   6.656   3.211
24700WAT     H274343   6.324   6.571   3.245
24701WAT      O74344   2.337   5.561   7.676
24701WAT     H174345   2.244   5.524   7.675
24701WAT     H274346   2.336   5.654   7.712
24702WAT      O74347   2.949   7.637   5.459
24702WAT     H174348   3.033   7.661   5.508
24702WAT     H274349   2.889   7.717   5.455
24703WAT      O74350   0.222   0.499   1.292
24703WAT     H174351   0.311   0.464   1.263
24703WAT     H274352   0.235   0.579   1.351
24704WAT      O74353   1.762   8.651   8.808
24704WAT     H174354   1.836   8.648   8.740
24704WAT     H274355   1.706   8.732   8.793
24705WAT      O74356   4.742   7.370   6.867
24705WAT     H174357   4.794   7.340   6.787
24705WAT     H274358   4.803   7.377   6.946
24706WAT      O74359   2.732   2.637   7.383
24706WAT     H174360   2.651   2.640   7.442
24706WAT     H274361   2.732   2.717   7.323
24707WAT      O74362   7.237   9.706   6.376
24707WAT     H174363   7.172   9.665   6.312
24707WAT     H274364   7.228   9.805   6.374
24708WAT      O74365   7.638   8.713   2.971
24708WAT     H174366   7.566   8.733   2.905
24708WAT     H274367   7.727   8.714   2.926
24709WAT      O74368   0.994   5.120   1.720
24709WAT     H174369   0.909   5.069   1.716
24709WAT     H274370   1.068   5.060   1.750
24710WAT      O74371   9.750   4.152   3.168
24710WAT     H174372   9.681   4.082   3.185
24710WAT     H274373   9.772   4.199   3.253
24711WAT      O74374   4.663   6.386   8.436
24711WAT     H174375   4.747   6.368   8.488
24711WAT     H274376   4.661   6.482   8.410
24712WAT      O74377   9.667   0.568   0.147
24712WAT     H174378   9.585   0.511   0.146
24712WAT     H274379   9.686   0.598   0.240
24713WAT      O74380   0.581   1.273   4.278
24713WAT     H174381   0.500   1.217   4.264
24713WAT     H274382   0.642   1.264   4.200
24714WAT      O74383   6.013   3.646   5.219
24714WAT     H174384   5.986   3.645   5.123
24714WAT     H274385   6.080   3.719   5.234
24715WAT      O74386   5.703   7.337   2.701
24715WAT     H174387   5.738   7.389   2.778
24715WAT     H274388   5.684   7.398   2.624
24716WAT      O74389   1.233   4.123   1.008
24716WAT     H174390   1.272   4.161   0.923
24716WAT     H274391   1.158   4.182   1.039
24717WAT      O74392   9.785   0.277   1.644
24717WAT     H174393   9.728   0.195   1.654
24717WAT     H274394   9.745   0.351   1.697
24718WAT      O74395   4.462   3.726   3.708
24718WAT     H174396   4.469   3.626   3.699
24718WAT     H274397   4.428   3.748   3.800
24719WAT      O74398   6.916   7.279   3.914
24719WAT     H174399   6.863   7.357   3.881
24719WAT     H274400   7.013   7.293   3.893
24720WAT      O74401   3.187   3.263   7.108
24720WAT     H174402   3.117   3.196   7.083
24720WAT     H274403   3.144   3.347   7.140
24721WAT      O74404   5.125   9.534   2.306
24721WAT     H174405   5.152   9.569   2.217
24721WAT     H274406   5.054   9.594   2.345
24722WAT      O74407   2.715   7.817   5.328
24722WAT     H174408   2.658   7.742   5.361
24722WAT     H274409   2.658   7.883   5.279
24723WAT      O74410   8.695   2.669   7.633
24723WAT     H174411   8.686   2.583   7.683
24723WAT     H274412   8.606   2.713   7.625
24724WAT      O74413   6.950   7.858   9.154
24724WAT     H174414   6.863   7.808   9.149
24724WAT     H274415   7.018   7.802   9.200
24725WAT      O74416   0.478   2.428   1.490
24725WAT     H174417   0.395   2.483   1.480
24725WAT     H274418   0.518   2.446   1.580
24726WAT      O74419   2.602   3.640   1.473
24726WAT     H174420   2.665   3.677   1.541
24726WAT     H274421   2.655   3.604   1.396
24727WAT      O74422   3.734   0.035   7.851
24727WAT     H174423   3.808   0.083   7.804
24727WAT     H274424   3.772  -0.020   7.925
24728WAT      O74425   4.792   0.140   0.035
24728WAT     H174426   4.801   0.222   0.090
24728WAT     H274427   4.855   0.070   0.068
24729WAT      O74428   1.246   1.724   6.067
24729WAT     H174429   1.272   1.707   6.162
24729WAT     H274430   1.322   1.767   6.018
24730WAT      O74431   0.567   4.782   6.865
24730WAT     H174432   0.660   4.799   6.833
24730WAT     H274433   0.558   4.813   6.960
24731WAT      O74434   7.477   7.507   7.180
24731WAT     H174435   7.551   7.489   7.115
24731WAT     H274436   7.451   7.422   7.225
24732WAT      O74437   7.749   4.619   3.741
24732WAT     H174438   7.801   4.695   3.779
24732WAT     H274439   7.652   4.639   3.747
24733WAT      O74440   8.694   0.792   0.496
24733WAT     H174441   8.686   0.718   0.429
24733WAT     H274442   8.610   0.797   0.550
24734WAT      O74443   5.562   6.318   9.029
24734WAT     H174444   5.556   6.219   9.041
24734WAT     H274445   5.483   6.362   9.073
24735WAT      O74446   2.250   0.995   1.996
24735WAT     H174447   2.348   1.003   1.974
24735WAT     H274448   2.197   1.004   1.912
24736WAT      O74449   8.235   6.234   6.634
24736WAT     H174450   8.222   6.325   6.674
24736WAT     H274451   8.273   6.244   6.542
24737WAT      O74452   3.905   9.304   2.019
24737WAT     H174453   3.928   9.346   1.931
24737WAT     H274454   3.866   9.214   2.002
24738WAT      O74455   2.173   0.798   0.074
24738WAT     H174456   2.160   0.817   0.171
24738WAT     H274457   2.138   0.707   0.052
24739WAT      O74458   2.793   7.471   5.129
24739WAT     H174459   2.855   7.473   5.206
24739WAT     H274460   2.830   7.412   5.057
24740WAT      O74461   0.158   0.677   0.062
24740WAT     H174462   0.173   0.586   0.022
24740WAT     H274463   0.221   0.690   0.139
24741WAT      O74464   7.636   0.499   8.231
24741WAT     H174465   7.634   0.558   8.312
24741WAT     H274466   7.722   0.448   8.228
24742WAT      O74467   3.184   4.245   7.220
24742WAT     H174468   3.215   4.339   7.206
24742WAT     H274469   3.205   4.190   7.139
24743WAT      O74470   4.730   5.505   9.415
24743WAT     H174471   4.679   5.440   9.358
24743WAT     H274472   4.799   5.551   9.359
24744WAT      O74473   7.028   7.427   1.837
24744WAT     H174474   6.981   7.416   1.924
24744WAT     H274475   7.002   7.353   1.775
24745WAT      O74476   0.312   4.714   4.784
24745WAT     H174477   0.367   4.647   4.833
24745WAT     H274478   0.257   4.766   4.849
24746WAT      O74479   4.471   6.284   1.548
24746WAT     H174480   4.543   6.245   1.606
24746WAT     H274481   4.512   6.318   1.463
24747WAT      O74482   3.435   3.030   1.938
24747WAT     H174483   3.426   2.948   1.882
24747WAT     H274484   3.424   3.111   1.881
24748WAT      O74485   1.624   8.699   7.399
24748WAT     H174486   1.623   8.600   7.389
24748WAT     H274487   1.530   8.735   7.396
24749WAT      O74488   5.433   2.505   1.931
24749WAT     H174489   5.529   2.533   1.934
24749WAT     H274490   5.425   2.409   1.958
24750WAT      O74491   2.077   9.222   5.987
24750WAT     H174492   2.087   9.206   5.889
24750WAT     H274493   2.163   9.200   6.032
24751WAT      O74494   3.032   8.998   1.308
24751WAT     H174495   2.984   9.007   1.395
24751WAT     H274496   3.060   8.903   1.295
24752WAT      O74497   5.245   4.796   6.189
24752WAT     H174498   5.267   4.834   6.279
24752WAT     H274499   5.155   4.753   6.191
24753WAT      O74500   7.815   3.536   8.846
24753WAT     H174501   7.915   3.523   8.846
24753WAT     H274502   7.777   3.496   8.929
24754WAT      O74503   8.148   1.949   5.497
24754WAT     H174504   8.135   1.896   5.580
24754WAT     H274505   8.232   2.003   5.504
24755WAT      O74506   8.275   8.207   8.967
24755WAT     H174507   8.185   8.209   9.010
24755WAT     H274508   8.286   8.285   8.906
24756WAT      O74509   0.883   0.136   8.337
24756WAT     H174510   0.852   0.170   8.248
24756WAT     H274511   0.896   0.037   8.332
24757WAT      O74512   5.995   2.936   6.896
24757WAT     H174513   6.044   2.868   6.951
24757WAT     H274514   5.899   2.939   6.924
24758WAT      O74515   3.928   6.370   3.405
24758WAT     H174516   3.986   6.302   3.359
24758WAT     H274517   3.896   6.436   3.337
24759WAT      O74518   1.071   7.904   5.019
24759WAT     H174519   1.018   7.964   4.960
24759WAT     H274520   1.122   7.838   4.963
24760WAT      O74521   1.071   9.064   4.422
24760WAT     H174522   1.119   9.046   4.336
24760WAT     H274523   1.080   9.161   4.446
24761WAT      O74524   4.830   4.585   6.710
24761WAT     H174525   4.839   4.565   6.808
24761WAT     H274526   4.896   4.655   6.684
24762WAT      O74527   3.653   7.618   3.126
24762WAT     H174528   3.735   7.589   3.174
24762WAT     H274529   3.675   7.636   3.030
24763WAT      O74530   6.205   4.572   9.644
24763WAT     H174531   6.296   4.609   9.624
24763WAT     H274532   6.147   4.583   9.563
24764WAT      O74533   1.777   7.161   0.226
24764WAT     H174534   1.733   7.250   0.233
24764WAT     H274535   1.710   7.089   0.246
24765WAT      O74536   3.046   9.091   5.455
24765WAT     H174537   2.947   9.098   5.463
24765WAT     H274538   3.088   9.176   5.487
24766WAT      O74539   2.420   8.483   1.637
24766WAT     H174540   2.411   8.523   1.545
24766WAT     H274541   2.515   8.491   1.667
24767WAT      O74542   0.747   2.035   9.705
24767WAT     H174543   0.804   2.032   9.623
24767WAT     H274544   0.770   2.116   9.758
24768WAT      O74545   1.929   6.329   8.978
24768WAT     H174546   1.943   6.234   8.951
24768WAT     H274547   1.974   6.345   9.066
24769WAT      O74548   8.408   6.630   9.394
24769WAT     H174549   8.456   6.570   9.330
24769WAT     H274550   8.310   6.614   9.388
24770WAT      O74551   7.467   7.779   7.941
24770WAT     H174552   7.437   7.870   7.969
24770WAT     H274553   7.566   7.778   7.929
24771WAT      O74554   5.846   0.451   1.280
24771WAT     H174555   5.883   0.367   1.320
24771WAT     H274556   5.907   0.483   1.207
24772WAT      O74557   9.759   4.700   9.441
24772WAT     H174558   9.769   4.721   9.538
24772WAT     H274559   9.816   4.622   9.417
24773WAT      O74560   6.752   6.555   9.449
24773WAT     H174561   6.767   6.512   9.360
24773WAT     H274562   6.817   6.519   9.515
24774WAT      O74563   7.890   1.782   3.885
24774WAT     H174564   7.860   1.727   3.808
24774WAT     H274565   7.980   1.751   3.916
24775WAT      O74566   8.269   8.181   4.714
24775WAT     H174567   8.186   8.224   4.678
24775WAT     H274568   8.328   8.250   4.756
24776WAT      O74569   7.153   3.832   5.253
24776WAT     H174570   7.061   3.866   5.269
24776WAT     H274571   7.217   3.881   5.312
24777WAT      O74572   8.761   0.248   4.628
24777WAT     H174573   8.781   0.332   4.578
24777WAT     H274574   8.663   0.245   4.650
24778WAT      O74575   4.704   7.634   0.026
24778WAT     H174576   4.731   7.724   0.062
24778WAT     H274577   4.621   7.603   0.073
24779WAT      O74578   4.625   4.516   0.653
24779WAT     H174579   4.556   4.524   0.581
24779WAT     H274580   4.595   4.566   0.734
24780WAT      O74581   8.975   3.326   5.726
24780WAT     H174582   8.999   3.229   5.723
24780WAT     H274583   9.036   3.377   5.666
24781WAT      O74584   1.916   2.978   9.159
24781WAT     H174585   1.894   2.893   9.112
24781WAT     H274586   1.847   3.047   9.137
24782WAT      O74587   1.396   8.186   1.323
24782WAT     H174588   1.416   8.231   1.236
24782WAT     H274589   1.460   8.110   1.337
24783WAT      O74590   5.906   0.643   9.822
24783WAT     H174591   5.926   0.546   9.838
24783WAT     H274592   5.969   0.680   9.754
24784WAT      O74593   1.842   0.800   2.028
24784WAT     H174594   1.760   0.840   2.069
24784WAT     H274595   1.823   0.778   1.932
24785WAT      O74596   9.807   4.645   6.246
24785WAT     H174597   9.745   4.571   6.219
24785WAT     H274598   9.753   4.725   6.273
24786WAT      O74599   8.906   7.861   4.741
24786WAT     H174600   8.811   7.867   4.710
24786WAT     H274601   8.947   7.777   4.706
24787WAT      O74602   8.066   8.954   9.610
24787WAT     H174603   8.013   8.931   9.691
24787WAT     H274604   8.049   9.050   9.586
24788WAT      O74605   0.612   9.683   5.165
24788WAT     H174606   0.613   9.779   5.138
24788WAT     H274607   0.706   9.647   5.166
24789WAT      O74608   8.868   3.966   5.903
24789WAT     H174609   8.808   3.998   5.976
24789WAT     H274610   8.949   3.922   5.943
24790WAT      O74611   4.575   1.044   0.157
24790WAT     H174612   4.667   1.006   0.167
24790WAT     H274613   4.525   1.032   0.242
24791WAT      O74614   1.659   0.337   1.700
24791WAT     H174615   1.610   0.259   1.738
24791WAT     H274616   1.639   0.345   1.603
24792WAT      O74617   0.418   2.467   0.817
24792WAT     H174618   0.329   2.422   0.807
24792WAT     H274619   0.407   2.557   0.859
24793WAT      O74620   8.078   8.124   5.625
24793WAT     H174621   8.040   8.216   5.615
24793WAT     H274622   8.117   8.114   5.716
24794WAT      O74623   9.346   8.373   8.962
24794WAT     H174624   9.347   8.361   8.863
24794WAT     H274625   9.356   8.470   8.984
24795WAT      O74626   0.708   1.539   6.598
24795WAT     H174627   0.666   1.618   6.644
24795WAT     H274628   0.637   1.487   6.550
24796WAT      O74629   3.829   4.920   8.949
24796WAT     H174630   3.884   4.993   8.909
24796WAT     H274631   3.877   4.833   8.940
24797WAT      O74632   6.171   7.980   6.399
24797WAT     H174633   6.124   7.916   6.460
24797WAT     H274634   6.116   7.993   6.316
24798WAT      O74635   1.214   7.063   9.243
24798WAT     H174636   1.314   7.062   9.247
24798WAT     H274637   1.176   7.024   9.326
24799WAT      O74638   0.418   1.582   8.121
24799WAT     H174639   0.473   1.571   8.038
24799WAT     H274640   0.464   1.539   8.198
24800WAT      O74641   1.401   5.695   1.584
24800WAT     H174642   1.376   5.603   1.616
24800WAT     H274643   1.495   5.715   1.611
24801WAT      O74644   1.821   5.097   3.077
24801WAT     H174645   1.903   5.080   3.021
24801WAT     H274646   1.760   5.018   3.071
24802WAT      O74647   5.198   2.306   1.562
24802WAT     H174648   5.164   2.334   1.651
24802WAT     H274649   5.298   2.309   1.561
24803WAT      O74650   1.061   2.383   6.267
24803WAT     H174651   1.024   2.341   6.184
24803WAT     H274652   1.149   2.342   6.288
24804WAT      O74653   7.154   6.963   6.920
24804WAT     H174654   7.249   6.975   6.949
24804WAT     H274655   7.153   6.930   6.825
24805WAT      O74656   5.629   0.562   1.001
24805WAT     H174657   5.594   0.468   1.005
24805WAT     H274658   5.727   0.559   0.978
24806WAT      O74659   4.061   2.203   9.628
24806WAT     H174660   3.999   2.170   9.699
24806WAT     H274661   4.152   2.164   9.642
24807WAT      O74662   0.706   0.746   7.092
24807WAT     H174663   0.747   0.660   7.123
24807WAT     H274664   0.614   0.754   7.132
24808WAT      O74665   3.692   8.964   8.036
24808WAT     H174666   3.784   8.930   8.058
24808WAT     H274667   3.638   8.968   8.120
24809WAT      O74668   0.855   4.546   8.640
24809WAT     H174669   0.869   4.645   8.632
24809WAT     H274670   0.889   4.501   8.558
24810WAT      O74671   7.649   4.220   2.324
24810WAT     H174672   7.648   4.318   2.304
24810WAT     H274673   7.601   4.170   2.252
24811WAT      O74674   1.711   0.994   1.013
24811WAT     H174675   1.718   1.093   1.026
24811WAT     H274676   1.793   0.960   0.967
24812WAT      O74677   7.618   2.056   7.433
24812WAT     H174678   7.619   2.099   7.523
24812WAT     H274679   7.530   2.073   7.388
24813WAT      O74680   5.069   7.161   7.768
24813WAT     H174681   5.126   7.085   7.738
24813WAT     H274682   4.994   7.175   7.704
24814WAT      O74683   4.095   7.249   9.405
24814WAT     H174684   4.116   7.178   9.473
24814WAT     H274685   4.003   7.285   9.422
24815WAT      O74686   2.157   1.314   1.379
24815WAT     H174687   2.122   1.398   1.421
24815WAT     H274688   2.086   1.244   1.379
24816WAT      O74689   9.074   5.238   1.670
24816WAT     H174690   8.985   5.217   1.628
24816WAT     H274691   9.082   5.336   1.683
24817WAT      O74692   8.857   9.529   5.712
24817WAT     H174693   8.851   9.429   5.705
24817WAT     H274694   8.792   9.571   5.649
24818WAT      O74695   3.911   8.714   2.058
24818WAT     H174696   3.934   8.739   2.152
24818WAT     H274697   3.983   8.656   2.020
24819WAT      O74698   8.715   8.627   8.617
24819WAT     H174699   8.615   8.623   8.620
24819WAT     H274700   8.753   8.577   8.695
24820WAT      O74701   3.318   7.475   3.534
24820WAT     H174702   3.234   7.427   3.558
24820WAT     H274703   3.392   7.447   3.595
24821WAT      O74704   4.284   5.246   5.904
24821WAT     H174705   4.261   5.333   5.862
24821WAT     H274706   4.288   5.256   6.004
24822WAT      O74707   6.928   5.819   5.414
24822WAT     H174708   6.969   5.907   5.438
24822WAT     H274709   6.864   5.791   5.485
24823WAT      O74710   0.577   8.849   3.855
24823WAT     H174711   0.654   8.786   3.867
24823WAT     H274712   0.612   8.942   3.847
24824WAT      O74713   0.343   0.642   9.571
24824WAT     H174714   0.302   0.651   9.479
24824WAT     H274715   0.377   0.549   9.584
24825WAT      O74716   5.416   3.075   7.119
24825WAT     H174717   5.511   3.103   7.110
24825WAT     H274718   5.411   2.980   7.149
24826WAT      O74719   0.030   8.831   0.551
24826WAT     H174720  -0.033   8.882   0.493
24826WAT     H274721   0.004   8.735   0.552
24827WAT      O74722   8.414   8.449   8.190
24827WAT     H174723   8.338   8.509   8.167
24827WAT     H274724   8.381   8.369   8.239
24828WAT      O74725   6.693   5.903   3.710
24828WAT     H174726   6.624   5.966   3.742
24828WAT     H274727   6.682   5.887   3.612
24829WAT      O74728   2.643   6.802   6.577
24829WAT     H174729   2.717   6.752   6.622
24829WAT     H274730   2.560   6.797   6.634
24830WAT      O74731   3.465   3.268   3.521
24830WAT     H174732   3.515   3.352   3.499
24830WAT     H274733   3.512   3.220   3.595
24831WAT      O74734   5.107   1.205   7.666
24831WAT     H174735   5.171   1.233   7.737
24831WAT     H274736   5.081   1.110   7.680
24832WAT      O74737   2.465   5.596   8.441
24832WAT     H174738   2.445   5.694   8.452
24832WAT     H274739   2.406   5.543   8.501
24833WAT      O74740   4.479   5.170   4.031
24833WAT     H174741   4.443   5.139   3.943
24833WAT     H274742   4.515   5.091   4.082
24834WAT      O74743   0.040   5.469   2.044
24834WAT     H174744  -0.025   5.539   2.074
24834WAT     H274745   0.122   5.474   2.101
24835WAT      O74746   2.458   5.022   0.354
24835WAT     H174747   2.527   5.094   0.345
24835WAT     H274748   2.374   5.061   0.391
24836WAT      O74749   8.422   0.036   8.711
24836WAT     H174750   8.507   0.031   8.658
24836WAT     H274751   8.381   0.126   8.699
24837WAT      O74752   6.144   6.047   6.185
24837WAT     H174753   6.226   6.000   6.152
24837WAT     H274754   6.165   6.143   6.202
24838WAT      O74755   3.123   8.143   7.227
24838WAT     H174756   3.132   8.049   7.194
24838WAT     H274757   3.162   8.150   7.319
24839WAT      O74758   1.127   6.771   3.649
24839WAT     H174759   1.193   6.700   3.624
24839WAT     H274760   1.176   6.849   3.690
24840WAT      O74761   8.710   3.331   6.488
24840WAT     H174762   8.629   3.368   6.443
24840WAT     H274763   8.792   3.353   6.434
24841WAT      O74764   8.560   0.726   2.811
24841WAT     H174765   8.537   0.696   2.719
24841WAT     H274766   8.623   0.804   2.805
24842WAT      O74767   4.904   0.624   3.145
24842WAT     H174768   4.850   0.701   3.113
24842WAT     H274769   4.977   0.657   3.205
24843WAT      O74770   3.951   5.964   7.342
24843WAT     H174771   3.975   6.025   7.266
24843WAT     H274772   3.874   6.003   7.392
24844WAT      O74773   9.596   7.945   5.263
24844WAT     H174774   9.650   7.878   5.211
24844WAT     H274775   9.652   8.027   5.279
24845WAT      O74776   7.176   2.676   3.960
24845WAT     H174777   7.267   2.638   3.980
24845WAT     H274778   7.185   2.773   3.936
24846WAT      O74779   6.817   2.257   0.672
24846WAT     H174780   6.898   2.294   0.628
24846WAT     H274781   6.765   2.331   0.715
24847WAT      O74782   1.642   5.969   7.235
24847WAT     H174783   1.591   5.997   7.155
24847WAT     H274784   1.699   5.890   7.213
24848WAT      O74785   7.186   2.919   3.818
24848WAT     H174786   7.092   2.918   3.786
24848WAT     H274787   7.197   2.990   3.888
24849WAT      O74788   1.571   5.141   1.416
24849WAT     H174789   1.484   5.175   1.449
24849WAT     H274790   1.646   5.189   1.462
24850WAT      O74791   5.752   1.516   4.799
24850WAT     H174792   5.699   1.554   4.875
24850WAT     H274793   5.725   1.561   4.714
24851WAT      O74794   4.335   3.875   4.577
24851WAT     H174795   4.417   3.917   4.616
24851WAT     H274796   4.329   3.780   4.607
24852WAT      O74797   0.347   3.824   2.435
24852WAT     H174798   0.340   3.792   2.530
24852WAT     H274799   0.444   3.840   2.413
24853WAT      O74800   4.038   2.474   5.821
24853WAT     H174801   4.115   2.413   5.840
24853WAT     H274802   4.022   2.534   5.900
24854WAT      O74803   7.931   0.934   6.631
24854WAT     H174804   8.008   0.983   6.590
24854WAT     H274805   7.958   0.840   6.653
24855WAT      O74806   7.915   4.422   7.041
24855WAT     H174807   8.008   4.456   7.056
24855WAT     H274808   7.863   4.429   7.126
24856WAT      O74809   1.921   8.438   1.654
24856WAT     H174810   1.923   8.396   1.564
24856WAT     H274811   2.014   8.454   1.686
24857WAT      O74812   2.327   5.118   7.009
24857WAT     H174813   2.237   5.152   7.038
24857WAT     H274814   2.386   5.108   7.089
24858WAT      O74815   5.477   9.770   0.366
24858WAT     H174816   5.494   9.827   0.447
24858WAT     H274817   5.382   9.779   0.337
24859WAT      O74818   9.210   6.104   1.125
24859WAT     H174819   9.194   6.097   1.224
24859WAT     H274820   9.206   6.012   1.084
24860WAT      O74821   4.524   1.223   5.598
24860WAT     H174822   4.573   1.263   5.676
24860WAT     H274823   4.571   1.141   5.568
24861WAT      O74824   1.426   2.657   0.329
24861WAT     H174825   1.397   2.748   0.299
24861WAT     H274826   1.411   2.591   0.255
24862WAT      O74827   5.000   9.162   3.138
24862WAT     H174828   5.045   9.081   3.101
24862WAT     H274829   5.031   9.177   3.232
24863WAT      O74830   4.645   3.791   2.953
24863WAT     H174831   4.556   3.813   2.914
24863WAT     H274832   4.689   3.876   2.984
24864WAT      O74833   8.557   7.685   6.901
24864WAT     H174834   8.622   7.658   6.830
24864WAT     H274835   8.476   7.626   6.897
24865WAT      O74836   0.880   2.179   8.864
24865WAT     H174837   0.964   2.205   8.912
24865WAT     H274838   0.876   2.226   8.776
24866WAT      O74839   7.079   5.626   1.957
24866WAT     H174840   7.070   5.572   1.873
24866WAT     H274841   7.084   5.723   1.934
24867WAT      O74842   9.587   8.062   3.830
24867WAT     H174843   9.495   8.085   3.799
24867WAT     H274844   9.609   8.115   3.912
24868WAT      O74845   2.026   2.393   2.844
24868WAT     H174846   1.943   2.372   2.895
24868WAT     H274847   2.033   2.491   2.829
24869WAT      O74848   7.105   0.186   4.260
24869WAT     H174849   7.117   0.172   4.162
24869WAT     H274850   7.166   0.258   4.291
24870WAT      O74851   1.932   4.406   0.526
24870WAT     H174852   1.994   4.424   0.603
24870WAT     H274853   1.924   4.307   0.513
24871WAT      O74854   8.806   5.356   2.942
24871WAT     H174855   8.905   5.342   2.934
24871WAT     H274856   8.785   5.395   3.032
24872WAT      O74857   6.397   1.394   1.210
24872WAT     H174858   6.324   1.376   1.144
24872WAT     H274859   6.485   1.393   1.163
24873WAT      O74860   2.711   5.648   8.083
24873WAT     H174861   2.686   5.559   8.046
24873WAT     H274862   2.804   5.672   8.056
24874WAT      O74863   4.909   1.291   8.960
24874WAT     H174864   4.856   1.370   8.927
24874WAT     H274865   4.953   1.246   8.882
24875WAT      O74866   0.844   8.158   5.683
24875WAT     H174867   0.799   8.243   5.709
24875WAT     H274868   0.781   8.102   5.630
24876WAT      O74869   3.932   8.485   7.396
24876WAT     H174870   4.007   8.432   7.438
24876WAT     H274871   3.886   8.539   7.467
24877WAT      O74872   1.568   5.006   4.159
24877WAT     H174873   1.514   4.925   4.180
24877WAT     H274874   1.524   5.087   4.198
24878WAT      O74875   4.507   4.617   0.921
24878WAT     H174876   4.440   4.613   0.995
24878WAT     H274877   4.598   4.630   0.959
24879WAT      O74878   0.604   1.527   6.012
24879WAT     H174879   0.544   1.461   5.967
24879WAT     H274880   0.556   1.568   6.090
24880WAT      O74881   6.798   1.748   9.613
24880WAT     H174882   6.730   1.734   9.684
24880WAT     H274883   6.875   1.686   9.628
24881WAT      O74884   3.921   1.671   9.327
24881WAT     H174885   3.933   1.600   9.258
24881WAT     H274886   3.847   1.644   9.389
24882WAT      O74887   6.894   8.435   9.090
24882WAT     H174888   6.894   8.338   9.064
24882WAT     H274889   6.941   8.445   9.178
24883WAT      O74890   2.222   9.367   4.114
24883WAT     H174891   2.314   9.356   4.076
24883WAT     H274892   2.183   9.276   4.131
24884WAT      O74893   5.280   8.226   5.744
24884WAT     H174894   5.307   8.301   5.804
24884WAT     H274895   5.245   8.263   5.658
24885WAT      O74896   4.642   4.082   5.182
24885WAT     H174897   4.550   4.044   5.189
24885WAT     H274898   4.640   4.163   5.123
24886WAT      O74899   4.827   6.534   7.331
24886WAT     H174900   4.749   6.478   7.358
24886WAT     H274901   4.899   6.474   7.296
24887WAT      O74902   3.428   9.049   8.257
24887WAT     H174903   3.356   9.109   8.223
24887WAT     H274904   3.450   9.074   8.352
24888WAT      O74905   8.672   5.678   8.051
24888WAT     H174906   8.608   5.746   8.086
24888WAT     H274907   8.671   5.681   7.951
24889WAT      O74908   8.903   4.066   0.449
24889WAT     H174909   8.928   4.158   0.418
24889WAT     H274910   8.813   4.069   0.492
24890WAT      O74911   7.257   4.819   0.464
24890WAT     H174912   7.333   4.877   0.493
24890WAT     H274913   7.274   4.725   0.494
24891WAT      O74914   1.557   6.083   0.538
24891WAT     H174915   1.473   6.124   0.501
24891WAT     H274916   1.533   6.003   0.592
24892WAT      O74917   3.012   4.671   2.503
24892WAT     H174918   3.090   4.695   2.562
24892WAT     H274919   2.935   4.732   2.523
24893WAT      O74920   4.972   2.731   7.358
24893WAT     H174921   5.001   2.635   7.358
24893WAT     H274922   5.047   2.788   7.324
24894WAT      O74923   1.812   4.716   0.101
24894WAT     H174924   1.885   4.662   0.143
24894WAT     H274925   1.839   4.742   0.008
24895WAT      O74926   1.068   3.641   2.304
24895WAT     H174927   0.987   3.598   2.265
24895WAT     H274928   1.147   3.580   2.294
24896WAT      O74929   4.127   3.672   7.606
24896WAT     H174930   4.174   3.587   7.584
24896WAT     H274931   4.031   3.653   7.626
24897WAT      O74932   5.008   4.683   7.364
24897WAT     H174933   4.938   4.714   7.427
24897WAT     H274934   5.035   4.590   7.387
24898WAT      O74935   4.414   3.863   0.321
24898WAT     H174936   4.363   3.778   0.305
24898WAT     H274937   4.402   3.924   0.243
24899WAT      O74938   3.678   5.069   1.082
24899WAT     H174939   3.720   4.978   1.079
24899WAT     H274940   3.579   5.059   1.087
24900WAT      O74941   7.046   5.772   9.572
24900WAT     H174942   7.000   5.817   9.648
24900WAT     H274943   7.064   5.840   9.500
24901WAT      O74944   3.617   4.076   9.587
24901WAT     H174945   3.626   4.172   9.560
24901WAT     H274946   3.588   4.070   9.682
24902WAT      O74947   9.719   1.036   3.559
24902WAT     H174948   9.661   0.955   3.572
24902WAT     H274949   9.692   1.107   3.624
24903WAT      O74950   1.481   4.095   4.984
24903WAT     H174951   1.485   4.008   5.032
24903WAT     H274952   1.387   4.113   4.954
24904WAT      O74953   6.673   7.595   0.478
24904WAT     H174954   6.615   7.543   0.541
24904WAT     H274955   6.755   7.625   0.526
24905WAT      O74956   1.443   5.553   9.282
24905WAT     H174957   1.466   5.529   9.188
24905WAT     H274958   1.453   5.652   9.295
24906WAT      O74959   9.083   1.094   7.812
24906WAT     H174960   9.120   1.139   7.731
24906WAT     H274961   9.131   1.007   7.826
24907WAT      O74962   6.016   0.752   0.186
24907WAT     H174963   5.974   0.842   0.174
24907WAT     H274964   6.009   0.700   0.101
24908WAT      O74965   0.016   8.198   0.299
24908WAT     H174966  -0.009   8.104   0.280
24908WAT     H274967  -0.057   8.259   0.269
24909WAT      O74968   8.135   8.803   4.121
24909WAT     H174969   8.072   8.729   4.145
24909WAT     H274970   8.085   8.889   4.117
24910WAT      O74971   6.338   8.715   0.814
24910WAT     H174972   6.332   8.781   0.739
24910WAT     H274973   6.276   8.742   0.887
24911WAT      O74974   8.995   1.793   3.569
24911WAT     H174975   8.957   1.701   3.562
24911WAT     H274976   9.023   1.826   3.479
24912WAT      O74977   9.323   3.993   3.627
24912WAT     H174978   9.292   3.978   3.721
24912WAT     H274979   9.255   4.048   3.578
24913WAT      O74980   5.713   7.630   9.646
24913WAT     H174981   5.748   7.631   9.552
24913WAT     H274982   5.789   7.624   9.710
24914WAT      O74983   7.314   0.877   1.111
24914WAT     H174984   7.289   0.963   1.156
24914WAT     H274985   7.240   0.850   1.049
24915WAT      O74986   8.819   8.007   2.550
24915WAT     H174987   8.878   8.041   2.477
24915WAT     H274988   8.792   7.913   2.530
24916WAT      O74989   5.213   8.349   5.502
24916WAT     H174990   5.176   8.337   5.410
24916WAT     H274991   5.177   8.433   5.541
24917WAT      O74992   5.880   9.468   2.753
24917WAT     H174993   5.921   9.461   2.844
24917WAT     H274994   5.865   9.565   2.731
24918WAT      O74995   2.118   2.676   3.694
24918WAT     H174996   2.066   2.689   3.778
24918WAT     H274997   2.055   2.670   3.616
24919WAT      O74998   4.531   1.287   8.668
24919WAT     H174999   4.443   1.322   8.638
24919WAT     H275000   4.518   1.227   8.748
24920WAT      O75001   2.457   2.353   0.993
24920WAT     H175002   2.476   2.332   0.897
24920WAT     H275003   2.364   2.388   1.002
24921WAT      O75004   1.210   3.068   1.384
24921WAT     H175005   1.170   3.065   1.475
24921WAT     H275006   1.194   3.158   1.344
24922WAT      O75007   9.351   8.651   6.120
24922WAT     H175008   9.367   8.553   6.107
24922WAT     H275009   9.264   8.677   6.078
24923WAT      O75010   0.808   5.667   5.387
24923WAT     H175011   0.887   5.696   5.441
24923WAT     H275012   0.724   5.695   5.434
24924WAT      O75013   8.409   5.088   7.467
24924WAT     H175014   8.410   4.988   7.460
24924WAT     H275015   8.336   5.116   7.529
24925WAT      O75016   2.471   8.105   0.723
24925WAT     H175017   2.422   8.115   0.637
24925WAT     H275018   2.534   8.027   0.717
24926WAT      O75019   1.180   7.237   0.900
24926WAT     H175020   1.235   7.263   0.979
24926WAT     H275021   1.198   7.141   0.878
24927WAT      O75022   7.593   2.809   2.631
24927WAT     H175023   7.588   2.819   2.532
24927WAT     H275024   7.646   2.885   2.670
24928WAT      O75025   8.436   1.402   1.275
24928WAT     H175026   8.390   1.348   1.345
24928WAT     H275027   8.534   1.408   1.296
24929WAT      O75028   2.685   8.214   7.510
24929WAT     H175029   2.747   8.181   7.438
24929WAT     H275030   2.727   8.290   7.559
24930WAT      O75031   8.905   0.244   1.908
24930WAT     H175032   8.932   0.264   1.813
24930WAT     H275033   8.986   0.230   1.964
24931WAT      O75034   7.871   4.015   2.305
24931WAT     H175035   7.838   4.106   2.331
24931WAT     H275036   7.810   3.946   2.343
24932WAT      O75037   4.345   9.670   4.030
24932WAT     H175038   4.341   9.765   4.063
24932WAT     H275039   4.374   9.610   4.104
24933WAT      O75040   6.071   3.516   0.426
24933WAT     H175041   6.152   3.504   0.483
24933WAT     H275042   6.028   3.428   0.409
24934WAT      O75043   8.843   9.119   4.732
24934WAT     H175044   8.905   9.161   4.666
24934WAT     H275045   8.823   9.025   4.703
24935WAT      O75046   7.880   7.597   9.394
24935WAT     H175047   7.978   7.614   9.401
24935WAT     H275048   7.864   7.504   9.362
24936WAT      O75049   8.824   5.066   9.588
24936WAT     H175050   8.807   4.999   9.660
24936WAT     H275051   8.792   5.030   9.501
24937WAT      O75052   7.010   9.752   1.370
24937WAT     H175053   6.920   9.710   1.379
24937WAT     H275054   7.038   9.788   1.459
24938WAT      O75055   9.231   8.088   3.504
24938WAT     H175056   9.254   8.146   3.425
24938WAT     H275057   9.244   7.992   3.479
24939WAT      O75058   0.321   1.215   4.688
24939WAT     H175059   0.267   1.140   4.651
24939WAT     H275060   0.418   1.189   4.690
24940WAT      O75061   8.517   4.259   1.466
24940WAT     H175062   8.437   4.202   1.449
24940WAT     H275063   8.535   4.263   1.564
24941WAT      O75064   7.126   8.048   0.802
24941WAT     H175065   7.080   8.075   0.718
24941WAT     H275066   7.096   7.956   0.828
24942WAT      O75067   4.499   2.970   6.647
24942WAT     H175068   4.405   2.936   6.641
24942WAT     H275069   4.526   3.007   6.558
24943WAT      O75070   5.615   6.537   4.890
24943WAT     H175071   5.586   6.633   4.884
24943WAT     H275072   5.689   6.529   4.956
24944WAT      O75073   3.159   6.584   2.463
24944WAT     H175074   3.258   6.571   2.463
24944WAT     H275075   3.113   6.496   2.477
24945WAT      O75076   1.899   3.683   7.668
24945WAT     H175077   1.816   3.701   7.721
24945WAT     H275078   1.968   3.644   7.729
24946WAT      O75079   3.404   2.523   9.832
24946WAT     H175080   3.403   2.471   9.747
24946WAT     H275081   3.344   2.603   9.823
24947WAT      O75082   0.129   9.450   9.616
24947WAT     H175083   0.039   9.440   9.574
24947WAT     H275084   0.118   9.472   9.713
24948WAT      O75085   1.291   0.613   3.324
24948WAT     H175086   1.329   0.542   3.263
24948WAT     H275087   1.364   0.649   3.382
24949WAT      O75088   2.954   5.857   5.023
24949WAT     H175089   2.870   5.803   5.032
24949WAT     H275090   3.033   5.795   5.016
24950WAT      O75091   9.579   9.095   0.592
24950WAT     H175092   9.606   9.030   0.521
24950WAT     H275093   9.485   9.126   0.574
24951WAT      O75094   3.663   4.361   9.828
24951WAT     H175095   3.566   4.381   9.837
24951WAT     H275096   3.708   4.370   9.917
24952WAT      O75097   8.937   6.915   9.428
24952WAT     H175098   8.932   6.967   9.343
24952WAT     H275099   8.970   6.975   9.502
24953WAT      O75100   3.493   3.738   0.261
24953WAT     H175101   3.463   3.792   0.182
24953WAT     H275102   3.550   3.662   0.229
24954WAT      O75103   4.893   6.503   3.371
24954WAT     H175104   4.816   6.493   3.434
24954WAT     H275105   4.863   6.551   3.289
24955WAT      O75106   5.995   5.455   9.661
24955WAT     H175107   5.905   5.414   9.676
24955WAT     H275108   6.065   5.384   9.665
24956WAT      O75109   1.816   9.424   7.496
24956WAT     H175110   1.752   9.368   7.443
24956WAT     H275111   1.886   9.365   7.537
24957WAT      O75112   4.644   9.057   3.392
24957WAT     H175113   4.732   9.039   3.436
24957WAT     H275114   4.659   9.087   3.298
24958WAT      O75115   3.677   6.385   6.857
24958WAT     H175116   3.755   6.370   6.917
24958WAT     H275117   3.697   6.461   6.794
24959WAT      O75118   6.072   9.306   8.931
24959WAT     H175119   6.101   9.387   8.880
24959WAT     H275120   6.086   9.321   9.029
24960WAT      O75121   1.048   1.478   3.356
24960WAT     H175122   1.021   1.534   3.278
24960WAT     H275123   1.083   1.390   3.323
24961WAT      O75124   8.157   3.641   6.464
24961WAT     H175125   8.124   3.733   6.483
24961WAT     H275126   8.091   3.574   6.496
24962WAT      O75127   4.686   2.241   0.066
24962WAT     H175128   4.706   2.245  -0.032
24962WAT     H275129   4.657   2.332   0.098
24963WAT      O75130   0.078   6.705   9.356
24963WAT     H175131   0.078   6.787   9.298
24963WAT     H275132  -0.009   6.657   9.345
24964WAT      O75133   2.614   4.304   0.433
24964WAT     H175134   2.678   4.367   0.387
24964WAT     H275135   2.522   4.343   0.432
24965WAT      O75136   0.591   0.102   5.119
24965WAT     H175137   0.673   0.158   5.110
24965WAT     H275138   0.538   0.133   5.198
24966WAT      O75139   3.937   0.142   9.524
24966WAT     H175140   3.910   0.060   9.574
24966WAT     H275141   3.885   0.221   9.558
24967WAT      O75142   5.204   7.967   5.531
24967WAT     H175143   5.252   7.988   5.446
24967WAT     H275144   5.243   7.885   5.572
24968WAT      O75145   4.434   1.979   5.815
24968WAT     H175146   4.439   2.073   5.851
24968WAT     H275147   4.508   1.963   5.751
24969WAT      O75148   5.731   1.484   7.899
24969WAT     H175149   5.687   1.394   7.905
24969WAT     H275150   5.804   1.489   7.966
24970WAT      O75151   1.837   7.605   0.090
24970WAT     H175152   1.740   7.598   0.112
24970WAT     H275153   1.891   7.580   0.171
24971WAT      O75154   3.972   2.351   0.266
24971WAT     H175155   3.889   2.349   0.210
24971WAT     H275156   3.971   2.432   0.324
24972WAT      O75157   8.964   9.277   6.197
24972WAT     H175158   9.056   9.284   6.159
24972WAT     H275159   8.899   9.253   6.124
24973WAT      O75160   5.274   6.462   3.668
24973WAT     H175161   5.182   6.422   3.663
24973WAT     H275162   5.334   6.402   3.722
24974WAT      O75163   0.151   6.377   4.039
24974WAT     H175164   0.196   6.396   4.126
24974WAT     H275165   0.220   6.367   3.967
24975WAT      O75166   1.904   4.893   8.046
24975WAT     H175167   1.957   4.863   8.126
24975WAT     H275168   1.956   4.876   7.963
24976WAT      O75169   0.897   2.784   6.565
24976WAT     H175170   0.927   2.702   6.516
24976WAT     H275171   0.940   2.786   6.655
24977WAT      O75172   1.952   6.281   2.722
24977WAT     H175173   1.878   6.326   2.772
24977WAT     H275174   2.028   6.344   2.709
24978WAT      O75175   4.963   5.949   8.730
24978WAT     H175176   5.054   5.908   8.720
24978WAT     H275177   4.903   5.915   8.657
24979WAT      O75178   7.004   4.558   1.779
24979WAT     H175179   7.091   4.535   1.822
24979WAT     H275180   6.941   4.593   1.849
24980WAT      O75181   0.295   6.553   6.242
24980WAT     H175182   0.257   6.549   6.334
24980WAT     H275183   0.227   6.590   6.179
24981WAT      O75184   3.750   3.255   9.416
24981WAT     H175185   3.739   3.273   9.514
24981WAT     H275186   3.660   3.241   9.374
24982WAT      O75187   7.341   5.906   2.967
24982WAT     H175188   7.381   5.997   2.960
24982WAT     H275189   7.242   5.914   2.974
24983WAT      O75190   2.318   3.242   1.939
24983WAT     H175191   2.379   3.308   1.895
24983WAT     H275192   2.311   3.160   1.882
24984WAT      O75193   6.061   1.881   4.965
24984WAT     H175194   5.975   1.924   4.992
24984WAT     H275195   6.073   1.796   5.016
24985WAT      O75196   9.550   0.490   9.393
24985WAT     H175197   9.527   0.393   9.402
24985WAT     H275198   9.621   0.514   9.459
24986WAT      O75199   2.325   4.917   3.519
24986WAT     H175200   2.231   4.889   3.539
24986WAT     H275201   2.383   4.893   3.596
24987WAT      O75202   6.435   8.167   4.794
24987WAT     H175203   6.456   8.107   4.872
24987WAT     H275204   6.342   8.201   4.803
24988WAT      O75205   9.543   4.068   3.496
24988WAT     H175206   9.460   4.044   3.546
24988WAT     H275207   9.623   4.045   3.552
24989WAT      O75208   1.716   9.332   3.681
24989WAT     H175209   1.709   9.376   3.592
24989WAT     H275210   1.659   9.249   3.681
24990WAT      O75211   0.925   4.503   0.944
24990WAT     H175212   0.995   4.570   0.968
24990WAT     H275213   0.898   4.515   0.849
24991WAT      O75214   5.018   3.071   0.617
24991WAT     H175215   5.072   3.092   0.535
24991WAT     H275216   5.024   3.146   0.682
24992WAT      O75217   5.606   0.399   2.775
24992WAT     H175218   5.534   0.348   2.726
24992WAT     H275219   5.563   0.468   2.833
24993WAT      O75220   5.153   0.027   2.999
24993WAT     H175221   5.251   0.014   3.014
24993WAT     H275222   5.122   0.107   3.051
24994WAT      O75223   3.727   1.148   7.530
24994WAT     H175224   3.814   1.191   7.508
24994WAT     H275225   3.652   1.208   7.502
24995WAT      O75226   9.492   7.679   3.078
24995WAT     H175227   9.511   7.715   3.170
24995WAT     H275228   9.530   7.740   3.009
24996WAT      O75229   8.042   8.182   1.520
24996WAT     H175230   8.122   8.240   1.536
24996WAT     H275231   8.055   8.094   1.565
24997WAT      O75232   0.050   5.526   9.409
24997WAT     H175233   0.128   5.466   9.431
24997WAT     H275234  -0.014   5.476   9.351
24998WAT      O75235   8.389   5.217   3.049
24998WAT     H175236   8.457   5.163   3.098
24998WAT     H275237   8.360   5.168   2.967
24999WAT      O75238   1.952   2.691   3.929
24999WAT     H175239   1.956   2.591   3.917
24999WAT     H275240   1.973   2.713   4.024
25000WAT      O75241   4.430   4.268   4.862
25000WAT     H175242   4.450   4.356   4.905
25000WAT     H275243   4.430   4.278   4.762
25001WAT      O75244   3.341   4.613   9.253
25001WAT     H175245   3.399   4.609   9.334
25001WAT     H275246   3.315   4.521   9.225
25002WAT      O75247   6.425   3.656   6.105
25002WAT     H175248   6.524   3.664   6.095
25002WAT     H275249   6.399   3.683   6.197
25003WAT      O75250   7.581   0.484   0.801
25003WAT     H175251   7.567   0.387   0.819
25003WAT     H275252   7.495   0.533   0.815
25004WAT      O75253   3.094   7.150   2.908
25004WAT     H175254   3.142   7.096   2.977
25004WAT     H275255   2.998   7.161   2.936
25005WAT      O75256   8.311   0.509   4.472
25005WAT     H175257   8.387   0.476   4.417
25005WAT     H275258   8.227   0.462   4.445
25006WAT      O75259   1.320   4.108   2.333
25006WAT     H175260   1.350   4.187   2.281
25006WAT     H275261   1.330   4.025   2.278
25007WAT      O75262   7.534   1.465   6.297
25007WAT     H175263   7.434   1.476   6.302
25007WAT     H275264   7.559   1.372   6.324
25008WAT      O75265   9.382   5.480   6.806
25008WAT     H175266   9.377   5.382   6.827
25008WAT     H275267   9.368   5.533   6.890
25009WAT      O75268   1.058   4.838   9.802
25009WAT     H175269   1.045   4.922   9.749
25009WAT     H275270   1.154   4.829   9.828
25010WAT      O75271   4.745   5.173   3.298
25010WAT     H175272   4.755   5.263   3.258
25010WAT     H275273   4.804   5.165   3.378
25011WAT      O75274   3.380   1.143   9.574
25011WAT     H175275   3.428   1.108   9.654
25011WAT     H275276   3.281   1.144   9.593
25012WAT      O75277   5.202   4.221   3.251
25012WAT     H175278   5.158   4.156   3.312
25012WAT     H275279   5.292   4.186   3.225
25013WAT      O75280   7.790   3.384   7.687
25013WAT     H175281   7.758   3.341   7.771
25013WAT     H275282   7.876   3.342   7.658
25014WAT      O75283   4.259   0.460   3.814
25014WAT     H175284   4.324   0.412   3.755
25014WAT     H275285   4.294   0.461   3.908
25015WAT      O75286   6.704   2.997   0.049
25015WAT     H175287   6.744   2.928  -0.012
25015WAT     H275288   6.777   3.041   0.102
25016WAT      O75289   4.508   6.944   5.186
25016WAT     H175290   4.519   6.877   5.112
25016WAT     H275291   4.565   7.024   5.166
25017WAT      O75292   7.595   2.837   1.853
25017WAT     H175293   7.581   2.744   1.886
25017WAT     H275294   7.674   2.839   1.791
25018WAT      O75295   7.423   9.388   8.142
25018WAT     H175296   7.485   9.313   8.120
25018WAT     H275297   7.472   9.475   8.137
25019WAT      O75298   2.228   1.106   9.075
25019WAT     H175299   2.161   1.179   9.087
25019WAT     H275300   2.318   1.147   9.055
25020WAT      O75301   8.506   8.484   1.906
25020WAT     H175302   8.479   8.513   1.814
25020WAT     H275303   8.564   8.403   1.900
25021WAT      O75304   0.714   0.627   0.407
25021WAT     H175305   0.753   0.709   0.365
25021WAT     H275306   0.723   0.550   0.345
25022WAT      O75307   8.973   5.327   6.850
25022WAT     H175308   8.918   5.372   6.920
25022WAT     H275309   9.030   5.256   6.893
25023WAT      O75310   1.951   9.434   3.372
25023WAT     H175311   1.932   9.373   3.296
25023WAT     H275312   2.050   9.451   3.377
25024WAT      O75313   1.258   4.265   7.056
25024WAT     H175314   1.338   4.288   7.111
25024WAT     H275315   1.186   4.230   7.115
25025WAT      O75316   2.180   8.741   4.920
25025WAT     H175317   2.152   8.831   4.889
25025WAT     H275318   2.270   8.746   4.962
25026WAT      O75319   2.663   0.155   2.450
25026WAT     H175320   2.699   0.126   2.362
25026WAT     H275321   2.639   0.075   2.505
25027WAT      O75322   4.898   8.122   6.439
25027WAT     H175323   4.875   8.102   6.534
25027WAT     H275324   4.919   8.038   6.390
25028WAT      O75325   1.633   6.673   9.198
25028WAT     H175326   1.555   6.717   9.153
25028WAT     H275327   1.685   6.620   9.130
25029WAT      O75328   0.218   8.944   6.894
25029WAT     H175329   0.212   8.845   6.904
25029WAT     H275330   0.296   8.978   6.946
25030WAT      O75331   8.752   3.551   6.289
25030WAT     H175332   8.764   3.647   6.265
25030WAT     H275333   8.819   3.495   6.240
25031WAT      O75334   4.037   1.072   5.156
25031WAT     H175335   4.110   1.016   5.195
25031WAT     H275336   3.950   1.023   5.163
25032WAT      O75337   7.252   4.560   5.326
25032WAT     H175338   7.318   4.624   5.286
25032WAT     H275339   7.287   4.467   5.321
25033WAT      O75340   8.716   4.970   9.333
25033WAT     H175341   8.681   5.062   9.318
25033WAT     H275342   8.644   4.903   9.313
25034WAT      O75343   7.605   6.652   5.907
25034WAT     H175344   7.682   6.649   5.971
25034WAT     H275345   7.544   6.575   5.925
25035WAT      O75346   8.558   5.037   1.869
25035WAT     H175347   8.466   5.029   1.907
25035WAT     H275348   8.561   4.989   1.781
25036WAT      O75349   6.389   3.706   4.765
25036WAT     H175350   6.418   3.776   4.830
25036WAT     H275351   6.384   3.745   4.674
25037WAT      O75352   0.770   7.913   2.885
25037WAT     H175353   0.739   7.956   2.800
25037WAT     H275354   0.743   7.971   2.963
25038WAT      O75355   0.492   5.922   6.741
25038WAT     H175356   0.561   5.868   6.694
25038WAT     H275357   0.483   5.891   6.836
25039WAT      O75358   8.792   2.075   0.588
25039WAT     H175359   8.833   2.122   0.666
25039WAT     H275360   8.692   2.085   0.592
25040WAT      O75361   6.001   5.258   8.737
25040WAT     H175362   5.902   5.247   8.746
25040WAT     H275363   6.046   5.225   8.820
25041WAT      O75364   2.834   9.697   1.238
25041WAT     H175365   2.895   9.729   1.166
25041WAT     H275366   2.884   9.636   1.300
25042WAT      O75367   7.350   7.167   2.875
25042WAT     H175368   7.438   7.176   2.921
25042WAT     H275369   7.345   7.231   2.799
25043WAT      O75370   0.736   9.666   1.743
25043WAT     H175371   0.692   9.594   1.690
25043WAT     H275372   0.834   9.649   1.748
25044WAT      O75373   8.599   5.072   3.160
25044WAT     H175374   8.675   5.058   3.225
25044WAT     H275375   8.529   5.003   3.177
25045WAT      O75376   6.928   4.338   4.286
25045WAT     H175377   6.872   4.407   4.241
25045WAT     H275378   7.024   4.352   4.260
25046WAT      O75379   3.043   0.118   0.310
25046WAT     H175380   2.949   0.083   0.316
25046WAT     H275381   3.100   0.073   0.379
25047WAT      O75382   7.708   0.169   0.092
25047WAT     H175383   7.657   0.140   0.010
25047WAT     H275384   7.744   0.088   0.138
25048WAT      O75385   6.787   7.253   6.948
25048WAT     H175386   6.886   7.236   6.940
25048WAT     H275387   6.747   7.258   6.857
25049WAT      O75388   7.015   7.521   7.039
25049WAT     H175389   7.095   7.576   7.061
25049WAT     H275390   7.039   7.453   6.970
25050WAT      O75391   6.474   3.297   5.498
25050WAT     H175392   6.463   3.204   5.463
25050WAT     H275393   6.386   3.329   5.533
25051WAT      O75394   5.391   5.307   2.671
25051WAT     H175395   5.389   5.344   2.579
25051WAT     H275396   5.383   5.381   2.738
25052WAT      O75397   6.169   8.046   4.975
25052WAT     H175398   6.260   8.019   5.007
25052WAT     H275399   6.115   8.080   5.052
25053WAT      O75400   4.120   9.103   8.257
25053WAT     H175401   4.208   9.129   8.296
25053WAT     H275402   4.133   9.034   8.187
25054WAT      O75403   5.333   7.690   7.220
25054WAT     H175404   5.390   7.648   7.150
25054WAT     H275405   5.259   7.741   7.178
25055WAT      O75406   8.464   4.829   3.272
25055WAT     H175407   8.561   4.806   3.272
25055WAT     H275408   8.414   4.764   3.215
25056WAT      O75409   6.344   7.028   8.229
25056WAT     H175410   6.252   6.997   8.204
25056WAT     H275411   6.409   6.996   8.160
25057WAT      O75412   6.457   9.525   4.424
25057WAT     H175413   6.527   9.589   4.393
25057WAT     H275414   6.475   9.498   4.519
25058WAT      O75415   6.090   7.558   7.428
25058WAT     H175416   6.083   7.466   7.390
25058WAT     H275417   6.025   7.569   7.503
25059WAT      O75418   1.398   8.611   4.324
25059WAT     H175419   1.482   8.621   4.270
25059WAT     H275420   1.397   8.680   4.396
25060WAT      O75421   1.446   6.765   9.009
25060WAT     H175422   1.437   6.864   9.020
25060WAT     H275423   1.374   6.732   8.948
25061WAT      O75424   7.547   3.372   0.948
25061WAT     H175425   7.635   3.330   0.924
25061WAT     H275426   7.562   3.454   1.002
25062WAT      O75427   0.916   8.857   0.279
25062WAT     H175428   0.944   8.772   0.235
25062WAT     H275429   0.944   8.856   0.375
25063WAT      O75430   1.326   7.186   2.217
25063WAT     H175431   1.403   7.130   2.189
25063WAT     H275432   1.294   7.242   2.140
25064WAT      O75433   3.470   6.147   4.504
25064WAT     H175434   3.567   6.129   4.496
25064WAT     H275435   3.421   6.102   4.429
25065WAT      O75436   9.441   1.297   6.990
25065WAT     H175437   9.385   1.258   6.917
25065WAT     H275438   9.410   1.390   7.010
25066WAT      O75439   6.586   3.045   8.278
25066WAT     H175440   6.535   3.059   8.192
25066WAT     H275441   6.681   3.025   8.257
25067WAT      O75442   7.756   8.955   1.576
25067WAT     H175443   7.822   8.928   1.646
25067WAT     H275444   7.757   9.055   1.566
25068WAT      O75445   7.278   1.786   5.306
25068WAT     H175446   7.301   1.689   5.295
25068WAT     H275447   7.247   1.802   5.400
25069WAT      O75448   5.485   5.586   6.340
25069WAT     H175449   5.393   5.547   6.328
25069WAT     H275450   5.482   5.684   6.323
25070WAT      O75451   9.810   8.481   4.662
25070WAT     H175452   9.854   8.391   4.654
25070WAT     H275453   9.825   8.532   4.577
25071WAT      O75454   2.964   5.700   7.142
25071WAT     H175455   2.923   5.706   7.233
25071WAT     H275456   2.897   5.664   7.077
25072WAT      O75457   4.722   1.271   6.287
25072WAT     H175458   4.745   1.304   6.378
25072WAT     H275459   4.800   1.284   6.226
25073WAT      O75460   5.952   5.905   2.499
25073WAT     H175461   5.914   5.996   2.513
25073WAT     H275462   5.990   5.871   2.586
25074WAT      O75463   1.399   9.262   9.443
25074WAT     H175464   1.364   9.352   9.471
25074WAT     H275465   1.497   9.269   9.426
25075WAT      O75466   6.822   2.843   9.746
25075WAT     H175467   6.859   2.750   9.740
25075WAT     H275468   6.785   2.870   9.657
25076WAT      O75469   9.427   6.628   6.151
25076WAT     H175470   9.451   6.722   6.124
25076WAT     H275471   9.481   6.563   6.098
25077WAT      O75472   8.634   6.651   3.737
25077WAT     H175473   8.728   6.618   3.751
25077WAT     H275474   8.607   6.709   3.813
25078WAT      O75475   6.407   5.834   2.947
25078WAT     H175476   6.492   5.801   2.989
25078WAT     H275477   6.385   5.777   2.867
25079WAT      O75478   6.658   4.067   6.975
25079WAT     H175479   6.615   4.022   6.897
25079WAT     H275480   6.714   4.002   7.026
25080WAT      O75481   8.596   6.109   8.652
25080WAT     H175482   8.501   6.119   8.621
25080WAT     H275483   8.651   6.071   8.577
25081WAT      O75484   3.187   5.257   9.611
25081WAT     H175485   3.184   5.313   9.528
25081WAT     H275486   3.267   5.282   9.665
25082WAT      O75487   4.854   4.415   3.979
25082WAT     H175488   4.759   4.429   4.007
25082WAT     H275489   4.859   4.336   3.918
25083WAT      O75490   1.539   8.760   0.894
25083WAT     H175491   1.566   8.782   0.988
25083WAT     H275492   1.530   8.845   0.842
25084WAT      O75493   7.869   2.162   3.001
25084WAT     H175494   7.802   2.126   2.936
25084WAT     H275495   7.857   2.119   3.090
25085WAT      O75496   4.964   9.275   2.057
25085WAT     H175497   4.998   9.269   2.150
25085WAT     H275498   5.040   9.288   1.994
25086WAT      O75499   8.115   7.321   6.420
25086WAT     H175500   8.120   7.379   6.502
25086WAT     H275501   8.166   7.237   6.436
25087WAT      O75502   4.376   2.431   0.195
25087WAT     H175503   4.380   2.422   0.294
25087WAT     H275504   4.332   2.349   0.156
25088WAT      O75505   1.877   2.442   1.705
25088WAT     H175506   1.786   2.441   1.664
25088WAT     H275507   1.882   2.511   1.776
25089WAT      O75508   5.223   8.405   9.185
25089WAT     H175509   5.134   8.385   9.144
25089WAT     H275510   5.273   8.320   9.198
25090WAT      O75511   8.194   6.051   4.833
25090WAT     H175512   8.184   6.063   4.734
25090WAT     H275513   8.113   6.005   4.870
25091WAT      O75514   9.052   0.328   8.195
25091WAT     H175515   9.098   0.408   8.233
25091WAT     H275516   9.119   0.267   8.153
25092WAT      O75517   7.585   2.234   2.915
25092WAT     H175518   7.556   2.269   2.826
25092WAT     H275519   7.522   2.162   2.945
25093WAT      O75520   3.746   6.529   6.006
25093WAT     H175521   3.845   6.541   6.017
25093WAT     H275522   3.722   6.434   6.025
25094WAT      O75523   3.050   5.564   9.059
25094WAT     H175524   2.980   5.494   9.063
25094WAT     H275525   3.063   5.604   9.150
25095WAT      O75526   1.443   5.455   3.036
25095WAT     H175527   1.535   5.466   3.074
25095WAT     H275528   1.441   5.374   2.977
25096WAT      O75529   6.763   9.417   1.659
25096WAT     H175530   6.842   9.461   1.702
25096WAT     H275531   6.720   9.355   1.724
25097WAT      O75532   4.208   4.764   1.286
25097WAT     H175533   4.108   4.757   1.280
25097WAT     H275534   4.234   4.784   1.381
25098WAT      O75535   2.137   8.160   8.111
25098WAT     H175536   2.224   8.199   8.141
25098WAT     H275537   2.153   8.103   8.030
25099WAT      O75538   0.825   2.910   8.243
25099WAT     H175539   0.781   2.933   8.157
25099WAT     H275540   0.756   2.910   8.316
25100WAT      O75541   8.749   9.307   8.444
25100WAT     H175542   8.819   9.245   8.478
25100WAT     H275543   8.735   9.292   8.346
25101WAT      O75544   5.139   7.324   3.244
25101WAT     H175545   5.155   7.226   3.232
25101WAT     H275546   5.193   7.358   3.321
25102WAT      O75547   6.443   0.102   1.081
25102WAT     H175548   6.414   0.037   1.010
25102WAT     H275549   6.380   0.096   1.158
25103WAT      O75550   6.767   3.660   9.142
25103WAT     H175551   6.773   3.564   9.167
25103WAT     H275552   6.750   3.668   9.044
25104WAT      O75553   0.184   5.874   0.972
25104WAT     H175554   0.125   5.894   1.050
25104WAT     H275555   0.150   5.922   0.891
25105WAT      O75556   0.856   2.453   9.042
25105WAT     H175557   0.946   2.409   9.050
25105WAT     H275558   0.785   2.390   9.072
25106WAT      O75559   6.173   8.226   4.735
25106WAT     H175560   6.156   8.128   4.722
25106WAT     H275561   6.118   8.259   4.812
25107WAT      O75562   9.862   5.203   2.052
25107WAT     H175563   9.876   5.292   2.096
25107WAT     H275564   9.854   5.216   1.953
25108WAT      O75565   6.839   1.966   7.300
25108WAT     H175566   6.932   1.943   7.271
25108WAT     H275567   6.842   2.031   7.376
25109WAT      O75568   0.393   7.662   8.034
25109WAT     H175569   0.420   7.581   7.983
25109WAT     H275570   0.461   7.683   8.104
25110WAT      O75571   4.630   5.945   9.708
25110WAT     H175572   4.639   5.866   9.769
25110WAT     H275573   4.537   5.947   9.671
25111WAT      O75574   2.481   2.243   2.184
25111WAT     H175575   2.447   2.304   2.112
25111WAT     H275576   2.450   2.277   2.273
25112WAT      O75577   2.223   6.190   3.590
25112WAT     H175578   2.221   6.116   3.657
25112WAT     H275579   2.203   6.153   3.499
25113WAT      O75580   0.975   8.726   7.692
25113WAT     H175581   0.907   8.799   7.702
25113WAT     H275582   0.931   8.637   7.703
25114WAT      O75583   7.096   6.701   7.199
25114WAT     H175584   7.029   6.765   7.161
25114WAT     H275585   7.069   6.677   7.293
25115WAT      O75586   9.260   0.960   6.668
25115WAT     H175587   9.244   0.862   6.678
25115WAT     H275588   9.296   0.979   6.577
25116WAT      O75589   5.098   2.039   8.799
25116WAT     H175590   5.070   2.070   8.708
25116WAT     H275591   5.019   1.998   8.846
25117WAT      O75592   3.162   4.135   3.153
25117WAT     H175593   3.105   4.119   3.073
25117WAT     H275594   3.108   4.177   3.225
25118WAT      O75595   5.556   5.769   9.684
25118WAT     H175596   5.471   5.808   9.720
25118WAT     H275597   5.585   5.693   9.742
25119WAT      O75598   7.645   9.395   5.174
25119WAT     H175599   7.740   9.395   5.205
25119WAT     H275600   7.590   9.337   5.235
25120WAT      O75601   5.558   6.828   4.598
25120WAT     H175602   5.513   6.781   4.522
25120WAT     H275603   5.517   6.918   4.611
25121WAT      O75604   7.418   5.924   1.939
25121WAT     H175605   7.386   5.837   1.976
25121WAT     H275606   7.504   5.949   1.984
25122WAT      O75607   4.918   2.169   8.187
25122WAT     H175608   4.834   2.217   8.214
25122WAT     H275609   4.997   2.227   8.207
25123WAT      O75610   1.775   8.667   1.619
25123WAT     H175611   1.732   8.701   1.703
25123WAT     H275612   1.830   8.586   1.640
25124WAT      O75613   2.363   4.240   4.671
25124WAT     H175614   2.320   4.274   4.587
25124WAT     H275615   2.457   4.211   4.650
25125WAT      O75616   1.937   4.863   2.916
25125WAT     H175617   1.857   4.841   2.972
25125WAT     H275618   1.908   4.919   2.838
25126WAT      O75619   6.362   5.231   4.092
25126WAT     H175620   6.267   5.244   4.066
25126WAT     H275621   6.380   5.133   4.103
25127WAT      O75622   2.931   3.847   4.802
25127WAT     H175623   2.847   3.809   4.841
25127WAT     H275624   2.909   3.901   4.721
25128WAT      O75625   7.252   4.850   0.180
25128WAT     H175626   7.341   4.890   0.157
25128WAT     H275627   7.246   4.837   0.279
25129WAT      O75628   5.838   1.113   9.668
25129WAT     H175629   5.836   1.024   9.714
25129WAT     H275630   5.812   1.184   9.733
25130WAT      O75631   2.511   1.391   8.550
25130WAT     H175632   2.499   1.483   8.512
25130WAT     H275633   2.568   1.337   8.488
25131WAT      O75634   0.342   3.904   4.521
25131WAT     H175635   0.308   3.810   4.526
25131WAT     H275636   0.441   3.904   4.529
25132WAT      O75637   4.126   4.096   5.434
25132WAT     H175638   4.188   4.175   5.430
25132WAT     H275639   4.174   4.014   5.402
25133WAT      O75640   3.737   0.910   1.084
25133WAT     H175641   3.696   0.866   1.005
25133WAT     H275642   3.799   0.846   1.130
25134WAT      O75643   1.873   8.352   3.586
25134WAT     H175644   1.873   8.252   3.585
25134WAT     H275645   1.785   8.386   3.554
25135WAT      O75646   5.900   8.799   4.626
25135WAT     H175647   5.922   8.884   4.674
25135WAT     H275648   5.890   8.725   4.692
25136WAT      O75649   0.179   9.172   7.137
25136WAT     H175650   0.274   9.179   7.168
25136WAT     H275651   0.122   9.237   7.187
25137WAT      O75652   2.391   5.654   0.497
25137WAT     H175653   2.349   5.629   0.410
25137WAT     H275654   2.441   5.576   0.533
25138WAT      O75655   0.618   4.441   1.012
25138WAT     H175656   0.654   4.351   1.034
25138WAT     H275657   0.693   4.508   1.012
25139WAT      O75658   5.440   1.952   9.492
25139WAT     H175659   5.499   2.023   9.454
25139WAT     H275660   5.478   1.919   9.578
25140WAT      O75661   0.123   2.836   8.794
25140WAT     H175662   0.165   2.775   8.728
25140WAT     H275663   0.167   2.826   8.883
25141WAT      O75664   1.243   9.622   5.266
25141WAT     H175665   1.244   9.522   5.263
25141WAT     H275666   1.191   9.657   5.188
25142WAT      O75667   4.643   3.305   8.736
25142WAT     H175668   4.600   3.363   8.667
25142WAT     H275669   4.645   3.211   8.704
25143WAT      O75670   2.943   6.299   2.537
25143WAT     H175671   2.901   6.209   2.545
25143WAT     H275672   2.872   6.370   2.546
25144WAT      O75673   9.487   6.988   5.897
25144WAT     H175674   9.520   7.080   5.917
25144WAT     H275675   9.554   6.921   5.930
25145WAT      O75676   7.061   3.387   2.656
25145WAT     H175677   6.972   3.387   2.701
25145WAT     H275678   7.060   3.452   2.580
25146WAT      O75679   5.384   3.943   0.824
25146WAT     H175680   5.342   4.033   0.837
25146WAT     H275681   5.317   3.881   0.782
25147WAT      O75682   8.199   2.252   4.643
25147WAT     H175683   8.129   2.189   4.678
25147WAT     H275684   8.192   2.256   4.543
25148WAT      O75685   7.074   1.494   6.857
25148WAT     H175686   7.003   1.531   6.916
25148WAT     H275687   7.084   1.552   6.776
25149WAT      O75688   2.766   9.501   4.706
25149WAT     H175689   2.721   9.472   4.791
25149WAT     H275690   2.702   9.491   4.630
25150WAT      O75691   4.402   6.914   0.200
25150WAT     H175692   4.380   6.831   0.148
25150WAT     H275693   4.415   6.890   0.296
25151WAT      O75694   0.800   0.698   5.854
25151WAT     H175695   0.885   0.677   5.805
25151WAT     H275696   0.778   0.794   5.841
25152WAT      O75697   5.309   2.733   3.025
25152WAT     H175698   5.371   2.658   3.000
25152WAT     H275699   5.222   2.721   2.977
25153WAT      O75700   0.474   1.571   4.607
25153WAT     H175701   0.386   1.526   4.625
25153WAT     H275702   0.508   1.541   4.518
25154WAT      O75703   3.032   4.931   0.420
25154WAT     H175704   3.022   5.006   0.354
25154WAT     H275705   3.060   4.848   0.371
25155WAT      O75706   5.602   2.087   3.753
25155WAT     H175707   5.517   2.124   3.789
25155WAT     H275708   5.612   1.992   3.781
25156WAT      O75709   4.682   3.053   7.586
25156WAT     H175710   4.771   3.034   7.545
25156WAT     H275711   4.695   3.116   7.663
25157WAT      O75712   6.310   5.058   1.873
25157WAT     H175713   6.247   5.011   1.934
25157WAT     H275714   6.278   5.152   1.858
25158WAT      O75715   5.287   4.403   8.939
25158WAT     H175716   5.195   4.421   8.902
25158WAT     H275717   5.291   4.430   9.035
25159WAT      O75718   7.456   5.333   8.685
25159WAT     H175719   7.427   5.287   8.768
25159WAT     H275720   7.538   5.388   8.704
25160WAT      O75721   8.711   7.133   4.167
25160WAT     H175722   8.776   7.113   4.241
25160WAT     H275723   8.621   7.099   4.193
25161WAT      O75724   9.003   0.053   9.886
25161WAT     H175725   9.055  -0.019   9.840
25161WAT     H275726   9.056   0.138   9.887
25162WAT      O75727   8.235   0.544   1.095
25162WAT     H175728   8.275   0.539   1.186
25162WAT     H275729   8.136   0.534   1.101
25163WAT      O75730   3.773   0.552   4.284
25163WAT     H175731   3.691   0.607   4.300
25163WAT     H275732   3.810   0.520   4.372
25164WAT      O75733   8.656   3.251   0.268
25164WAT     H175734   8.697   3.224   0.355
25164WAT     H275735   8.725   3.249   0.196
25165WAT      O75736   9.848   4.405   1.194
25165WAT     H175737   9.937   4.361   1.181
25165WAT     H275738   9.782   4.338   1.229
25166WAT      O75739   7.357   9.215   6.586
25166WAT     H175740   7.361   9.315   6.581
25166WAT     H275741   7.277   9.182   6.536
25167WAT      O75742   0.989   1.652   3.131
25167WAT     H175743   0.948   1.742   3.148
25167WAT     H275744   1.083   1.663   3.099
25168WAT      O75745   3.717   7.906   1.921
25168WAT     H175746   3.815   7.919   1.930
25168WAT     H275747   3.669   7.962   1.989
25169WAT      O75748   3.226   1.319   1.110
25169WAT     H175749   3.128   1.300   1.104
25169WAT     H275750   3.252   1.327   1.207
25170WAT      O75751   7.409   6.542   1.388
25170WAT     H175752   7.393   6.539   1.486
25170WAT     H275753   7.487   6.483   1.365
25171WAT      O75754   3.380   6.269   6.425
25171WAT     H175755   3.308   6.201   6.441
25171WAT     H275756   3.349   6.334   6.356
25172WAT      O75757   3.632   3.502   8.037
25172WAT     H175758   3.637   3.592   8.082
25172WAT     H275759   3.715   3.486   7.985
25173WAT      O75760   9.523   6.629   2.561
25173WAT     H175761   9.547   6.683   2.641
25173WAT     H275762   9.516   6.689   2.481
25174WAT      O75763   9.724   2.481   1.168
25174WAT     H175764   9.702   2.539   1.247
25174WAT     H275765   9.650   2.486   1.102
25175WAT      O75766   9.596   6.330   5.379
25175WAT     H175767   9.590   6.401   5.309
25175WAT     H275768   9.689   6.325   5.415
25176WAT      O75769   2.779   1.810   3.709
25176WAT     H175770   2.830   1.867   3.645
25176WAT     H275771   2.689   1.851   3.724
25177WAT      O75772   1.999   9.721   2.219
25177WAT     H175773   1.946   9.772   2.151
25177WAT     H275774   2.085   9.691   2.180
25178WAT      O75775   0.384   3.521   7.235
25178WAT     H175776   0.444   3.599   7.253
25178WAT     H275777   0.439   3.440   7.214
25179WAT      O75778   1.032   2.115   4.539
25179WAT     H175779   0.964   2.100   4.611
25179WAT     H275780   0.985   2.143   4.455
25180WAT      O75781   8.683   5.459   4.458
25180WAT     H175782   8.589   5.468   4.492
25180WAT     H275783   8.747   5.478   4.532
25181WAT      O75784   5.651   3.766   1.588
25181WAT     H175785   5.584   3.727   1.526
25181WAT     H275786   5.686   3.851   1.550
25182WAT      O75787   3.601   6.985   2.910
25182WAT     H175788   3.654   7.070   2.911
25182WAT     H275789   3.663   6.907   2.913
25183WAT      O75790   5.176   9.755   0.446
25183WAT     H175791   5.190   9.754   0.347
25183WAT     H275792   5.119   9.677   0.473
25184WAT      O75793   8.223   4.389   9.540
25184WAT     H175794   8.132   4.350   9.526
25184WAT     H275795   8.292   4.318   9.530
25185WAT      O75796   6.239   8.935   3.620
25185WAT     H175797   6.233   9.004   3.692
25185WAT     H275798   6.169   8.952   3.551
25186WAT      O75799   8.877   1.728   3.874
25186WAT     H175800   8.864   1.660   3.802
25186WAT     H275801   8.848   1.818   3.841
25187WAT      O75802   9.097   8.545   5.761
25187WAT     H175803   9.015   8.518   5.711
25187WAT     H275804   9.166   8.577   5.696
25188WAT      O75805   4.029   6.116   7.125
25188WAT     H175806   4.043   6.185   7.196
25188WAT     H275807   3.985   6.158   7.045
25189WAT      O75808   8.467   6.604   4.677
25189WAT     H175809   8.491   6.628   4.772
25189WAT     H275810   8.434   6.510   4.674
25190WAT      O75811   9.505   2.630   3.716
25190WAT     H175812   9.430   2.588   3.766
25190WAT     H275813   9.571   2.560   3.689
25191WAT      O75814   3.109   4.106   0.745
25191WAT     H175815   3.058   4.041   0.687
25191WAT     H275816   3.046   4.172   0.784
25192WAT      O75817   4.050   2.567   7.339
25192WAT     H175818   3.960   2.560   7.295
25192WAT     H275819   4.115   2.510   7.290
25193WAT      O75820   3.058   5.057   6.995
25193WAT     H175821   3.084   5.001   7.074
25193WAT     H275822   2.959   5.069   6.994
25194WAT      O75823   6.656   0.844   9.832
25194WAT     H175824   6.751   0.868   9.816
25194WAT     H275825   6.610   0.919   9.880
25195WAT      O75826   5.794   6.498   5.100
25195WAT     H175827   5.740   6.553   5.164
25195WAT     H275828   5.817   6.410   5.142
25196WAT      O75829   3.729   4.262   1.023
25196WAT     H175830   3.824   4.282   1.048
25196WAT     H275831   3.689   4.342   0.978
25197WAT      O75832   0.543   3.219   7.516
25197WAT     H175833   0.636   3.240   7.546
25197WAT     H275834   0.486   3.201   7.596
25198WAT      O75835   3.912   8.211   5.864
25198WAT     H175836   3.984   8.264   5.909
25198WAT     H275837   3.954   8.145   5.801
25199WAT      O75838   3.973   7.970   1.342
25199WAT     H175839   3.928   7.905   1.404
25199WAT     H275840   4.048   7.924   1.295
25200WAT      O75841   2.453   3.953   1.022
25200WAT     H175842   2.415   4.037   1.061
25200WAT     H275843   2.438   3.878   1.086
25201WAT      O75844   4.632   2.207   6.741
25201WAT     H175845   4.598   2.253   6.659
25201WAT     H275846   4.659   2.275   6.809
25202WAT      O75847   6.146   9.776   3.612
25202WAT     H175848   6.138   9.706   3.682
25202WAT     H275849   6.206   9.849   3.644
25203WAT      O75850   9.296   3.685   0.420
25203WAT     H175851   9.202   3.690   0.456
25203WAT     H275852   9.351   3.627   0.480
25204WAT      O75853   3.810   8.654   7.607
25204WAT     H175854   3.734   8.671   7.670
25204WAT     H275855   3.890   8.705   7.638
25205WAT      O75856   7.281   5.541   8.996
25205WAT     H175857   7.247   5.571   8.907
25205WAT     H275858   7.208   5.492   9.044
25206WAT      O75859   2.468   8.528   5.520
25206WAT     H175860   2.487   8.431   5.527
25206WAT     H275861   2.395   8.553   5.583
25207WAT      O75862   2.956   5.588   4.782
25207WAT     H175863   3.014   5.510   4.807
25207WAT     H275864   2.906   5.619   4.863
25208WAT      O75865   5.847   9.535   0.164
25208WAT     H175866   5.879   9.617   0.117
25208WAT     H275867   5.747   9.530   0.158
25209WAT      O75868   0.809   0.678   4.348
25209WAT     H175869   0.907   0.695   4.354
25209WAT     H275870   0.760   0.765   4.358
25210WAT      O75871   1.185   6.424   4.899
25210WAT     H175872   1.173   6.494   4.970
25210WAT     H275873   1.099   6.376   4.884
25211WAT      O75874   6.149   3.276   2.760
25211WAT     H175875   6.192   3.293   2.848
25211WAT     H275876   6.219   3.268   2.689
25212WAT      O75877   4.076   0.465   8.902
25212WAT     H175878   4.157   0.411   8.878
25212WAT     H275879   4.034   0.501   8.819
25213WAT      O75880   1.322   0.034   4.313
25213WAT     H175881   1.339   0.132   4.318
25213WAT     H275882   1.236   0.018   4.265
25214WAT      O75883   0.409   7.422   6.621
25214WAT     H175884   0.339   7.357   6.649
25214WAT     H275885   0.494   7.374   6.600
25215WAT      O75886   0.236   1.589   1.453
25215WAT     H175887   0.173   1.662   1.428
25215WAT     H275888   0.190   1.501   1.444
25216WAT      O75889   7.085   0.757   7.110
25216WAT     H175890   7.036   0.672   7.092
25216WAT     H275891   7.118   0.796   7.023
25217WAT      O75892   0.384   2.569   3.098
25217WAT     H175893   0.330   2.627   3.160
25217WAT     H275894   0.471   2.613   3.079
25218WAT      O75895   9.704   2.884   8.110
25218WAT     H175896   9.747   2.837   8.033
25218WAT     H275897   9.766   2.882   8.188
25219WAT      O75898   7.419   0.935   7.428
25219WAT     H175899   7.366   0.994   7.367
25219WAT     H275900   7.502   0.904   7.381
25220WAT      O75901   0.796   6.257   7.553
25220WAT     H175902   0.724   6.259   7.483
25220WAT     H275903   0.884   6.239   7.510
25221WAT      O75904   0.426   2.285   4.888
25221WAT     H175905   0.432   2.186   4.901
25221WAT     H275906   0.372   2.325   4.962
25222WAT      O75907   9.516   4.217   8.124
25222WAT     H175908   9.448   4.290   8.124
25222WAT     H275909   9.517   4.173   8.214
25223WAT      O75910   4.378   9.515   3.237
25223WAT     H175911   4.344   9.422   3.248
25223WAT     H275912   4.409   9.549   3.326
25224WAT      O75913   1.455   0.445   3.562
25224WAT     H175914   1.532   0.396   3.520
25224WAT     H275915   1.487   0.495   3.643
25225WAT      O75916   3.370   4.565   5.790
25225WAT     H175917   3.371   4.665   5.800
25225WAT     H275918   3.281   4.530   5.819
25226WAT      O75919   6.703   3.971   6.506
25226WAT     H175920   6.736   3.879   6.488
25226WAT     H275921   6.755   4.037   6.451
25227WAT      O75922   4.172   2.046   6.080
25227WAT     H175923   4.091   2.085   6.035
25227WAT     H275924   4.171   1.947   6.072
25228WAT      O75925   3.086   6.749   6.619
25228WAT     H175926   3.156   6.760   6.548
25228WAT     H275927   3.130   6.728   6.706
25229WAT      O75928   3.286   4.908   8.194
25229WAT     H175929   3.256   4.867   8.108
25229WAT     H275930   3.355   4.849   8.236
25230WAT      O75931   9.825   1.966   5.001
25230WAT     H175932   9.816   1.995   5.097
25230WAT     H275933   9.761   1.892   4.983
25231WAT      O75934   1.704   8.876   4.389
25231WAT     H175935   1.717   8.968   4.352
25231WAT     H275936   1.640   8.880   4.466
25232WAT      O75937   5.886   7.831   8.424
25232WAT     H175938   5.981   7.822   8.396
25232WAT     H275939   5.881   7.888   8.506
25233WAT      O75940   3.870   7.587   0.211
25233WAT     H175941   3.836   7.598   0.305
25233WAT     H275942   3.826   7.655   0.152
25234WAT      O75943   7.514   7.286   7.514
25234WAT     H175944   7.471   7.287   7.424
25234WAT     H275945   7.459   7.231   7.577
25235WAT      O75946   6.717   2.248   9.844
25235WAT     H175947   6.654   2.176   9.816
25235WAT     H275948   6.665   2.330   9.869
25236WAT      O75949   3.391   6.541   7.671
25236WAT     H175950   3.364   6.464   7.729
25236WAT     H275951   3.490   6.552   7.675
25237WAT      O75952   4.104   0.876   8.700
25237WAT     H175953   4.068   0.828   8.780
25237WAT     H275954   4.033   0.883   8.630
25238WAT      O75955   5.650   5.705   8.864
25238WAT     H175956   5.664   5.764   8.784
25238WAT     H275957   5.714   5.731   8.936
25239WAT      O75958   5.618   6.858   9.848
25239WAT     H175959   5.712   6.891   9.856
25239WAT     H275960   5.555   6.935   9.853
25240WAT      O75961   9.001   9.136   9.354
25240WAT     H175962   8.908   9.167   9.374
25240WAT     H275963   9.040   9.193   9.281
25241WAT      O75964   4.967   0.931   8.586
25241WAT     H175965   4.992   0.864   8.655
25241WAT     H275966   4.868   0.942   8.583
25242WAT      O75967   6.304   4.436   6.978
25242WAT     H175968   6.245   4.483   7.044
25242WAT     H275969   6.264   4.444   6.886
25243WAT      O75970   8.670   5.750   0.236
25243WAT     H175971   8.767   5.733   0.253
25243WAT     H275972   8.620   5.754   0.323
25244WAT      O75973   5.974   3.772   1.270
25244WAT     H175974   5.886   3.787   1.224
25244WAT     H275975   6.027   3.857   1.268
25245WAT      O75976   0.749   7.119   8.624
25245WAT     H175977   0.706   7.128   8.535
25245WAT     H275978   0.836   7.168   8.625
25246WAT      O75979   1.930   1.331   6.926
25246WAT     H175980   1.960   1.251   6.977
25246WAT     H275981   1.975   1.332   6.836
25247WAT      O75982   4.442   9.209   0.953
25247WAT     H175983   4.531   9.219   0.997
25247WAT     H275984   4.371   9.200   1.023
25248WAT      O75985   6.224   1.542   7.076
25248WAT     H175986   6.183   1.624   7.117
25248WAT     H275987   6.154   1.491   7.026
25249WAT      O75988   2.608   9.004   6.389
25249WAT     H175989   2.644   9.080   6.337
25249WAT     H275990   2.509   9.014   6.399
25250WAT      O75991   9.521   0.533   6.844
25250WAT     H175992   9.555   0.567   6.932
25250WAT     H275993   9.469   0.606   6.799
25251WAT      O75994   7.379   0.999   1.874
25251WAT     H175995   7.335   1.050   1.800
25251WAT     H275996   7.310   0.944   1.922
25252WAT      O75997   0.421   1.471   2.583
25252WAT     H175998   0.394   1.442   2.491
25252WAT     H275999   0.500   1.417   2.612
25253WAT      O76000   7.978   4.051   9.115
25253WAT     H176001   8.054   4.114   9.097
25253WAT     H276002   7.951   4.007   9.030
25254WAT      O76003   1.461   0.463   2.280
25254WAT     H176004   1.535   0.451   2.213
25254WAT     H276005   1.392   0.524   2.241
25255WAT      O76006   9.068   2.105   1.472
25255WAT     H176007   9.146   2.148   1.427
25255WAT     H276008   8.985   2.122   1.418
25256WAT      O76009   5.871   7.046   9.597
25256WAT     H176010   5.916   7.130   9.569
25256WAT     H276011   5.835   7.057   9.690
25257WAT      O76012   8.256   0.135   3.671
25257WAT     H176013   8.260   0.060   3.605
25257WAT     H276014   8.162   0.151   3.699
25258WAT      O76015   2.787   2.930   5.145
25258WAT     H176016   2.863   2.951   5.084
25258WAT     H276017   2.764   3.011   5.199
25259WAT      O76018   9.779   1.001   2.963
25259WAT     H176019   9.734   1.063   3.028
25259WAT     H276020   9.713   0.969   2.896
25260WAT      O76021   8.067   4.155   0.036
25260WAT     H176022   8.108   4.067   0.012
25260WAT     H276023   8.129   4.229   0.010
25261WAT      O76024   5.009   9.346   1.347
25261WAT     H176025   5.002   9.247   1.352
25261WAT     H276026   5.106   9.372   1.338
25262WAT      O76027   7.128   3.742   3.909
25262WAT     H176028   7.145   3.679   3.833
25262WAT     H276029   7.082   3.824   3.876
25263WAT      O76030   2.650   4.316   9.577
25263WAT     H176031   2.575   4.323   9.511
25263WAT     H276032   2.634   4.238   9.638
25264WAT      O76033   0.309   4.950   6.178
25264WAT     H176034   0.361   4.865   6.164
25264WAT     H276035   0.246   4.938   6.255
25265WAT      O76036   4.762   0.029   4.991
25265WAT     H176037   4.787  -0.068   4.987
25265WAT     H276038   4.769   0.061   5.086
25266WAT      O76039   0.146   6.515   1.429
25266WAT     H176040   0.154   6.578   1.506
25266WAT     H276041   0.157   6.421   1.461
25267WAT      O76042   2.560   5.760   5.176
25267WAT     H176043   2.469   5.732   5.207
25267WAT     H276044   2.574   5.857   5.198
25268WAT      O76045   1.290   2.503   5.862
25268WAT     H176046   1.258   2.434   5.797
25268WAT     H276047   1.379   2.475   5.899
25269WAT      O76048   3.056   1.611   6.730
25269WAT     H176049   2.983   1.576   6.788
25269WAT     H276050   3.019   1.636   6.640
25270WAT      O76051   2.717   6.015   8.747
25270WAT     H176052   2.623   5.993   8.773
25270WAT     H276053   2.738   5.975   8.658
25271WAT      O76054   6.419   1.857   0.786
25271WAT     H176055   6.488   1.902   0.843
25271WAT     H276056   6.453   1.766   0.759
25272WAT      O76057   1.520   7.032   0.789
25272WAT     H176058   1.604   6.977   0.789
25272WAT     H276059   1.488   7.045   0.882
25273WAT      O76060   6.144   8.830   2.116
25273WAT     H176061   6.133   8.917   2.164
25273WAT     H276062   6.111   8.756   2.173
25274WAT      O76063   2.741   1.391   6.527
25274WAT     H176064   2.699   1.310   6.568
25274WAT     H276065   2.734   1.468   6.591
25275WAT      O76066   8.928   4.958   2.092
25275WAT     H176067   8.945   5.015   2.173
25275WAT     H276068   8.942   5.013   2.010
25276WAT      O76069   6.097   6.349   0.173
25276WAT     H176070   6.163   6.322   0.243
25276WAT     H276071   6.010   6.303   0.190
25277WAT      O76072   6.575   1.160   3.006
25277WAT     H176073   6.507   1.203   2.946
25277WAT     H276074   6.539   1.074   3.041
25278WAT      O76075   7.008   3.430   8.709
25278WAT     H176076   6.990   3.517   8.665
25278WAT     H276077   7.102   3.429   8.744
25279WAT      O76078   6.169   2.855   8.258
25279WAT     H176079   6.243   2.919   8.237
25279WAT     H276080   6.131   2.820   8.173
25280WAT      O76081   5.533   6.719   8.460
25280WAT     H176082   5.536   6.817   8.478
25280WAT     H276083   5.497   6.671   8.540
25281WAT      O76084   1.905   7.036   8.329
25281WAT     H176085   1.915   7.001   8.422
25281WAT     H276086   1.860   6.967   8.273
25282WAT      O76087   1.621   1.454   5.880
25282WAT     H176088   1.547   1.483   5.819
25282WAT     H276089   1.584   1.394   5.951
25283WAT      O76090   7.820   6.234   0.423
25283WAT     H176091   7.732   6.188   0.440
25283WAT     H276092   7.894   6.168   0.436
25284WAT      O76093   6.364   4.160   6.721
25284WAT     H176094   6.393   4.112   6.639
25284WAT     H276095   6.278   4.122   6.754
25285WAT      O76096   1.105   4.715   3.506
25285WAT     H176097   1.157   4.682   3.428
25285WAT     H276098   1.090   4.640   3.571
25286WAT      O76099   7.128   5.151   2.077
25286WAT     H176100   7.141   5.238   2.029
25286WAT     H276101   7.163   5.159   2.170
25287WAT      O76102   3.438   6.646   3.744
25287WAT     H176103   3.369   6.640   3.673
25287WAT     H276104   3.404   6.703   3.819
25288WAT      O76105   4.392   5.487   1.810
25288WAT     H176106   4.391   5.561   1.743
25288WAT     H276107   4.299   5.453   1.824
25289WAT      O76108   3.082   4.694   4.687
25289WAT     H176109   3.005   4.756   4.701
25289WAT     H276110   3.167   4.739   4.713
25290WAT      O76111   6.694   5.752   5.590
25290WAT     H176112   6.720   5.677   5.652
25290WAT     H276113   6.661   5.829   5.644
25291WAT      O76114   7.461   1.722   7.689
25291WAT     H176115   7.560   1.736   7.677
25291WAT     H276116   7.446   1.645   7.750
25292WAT      O76117   4.952   8.238   3.022
25292WAT     H176118   5.010   8.157   3.035
25292WAT     H276119   4.881   8.217   2.955
25293WAT      O76120   9.858   4.396   2.696
25293WAT     H176121   9.957   4.403   2.710
25293WAT     H276122   9.812   4.398   2.785
25294WAT      O76123   7.268   6.599   3.445
25294WAT     H176124   7.240   6.518   3.394
25294WAT     H276125   7.342   6.575   3.508
25295WAT      O76126   3.423   5.801   7.166
25295WAT     H176127   3.325   5.822   7.158
25295WAT     H276128   3.435   5.723   7.227
25296WAT      O76129   0.284   4.607   6.856
25296WAT     H176130   0.344   4.673   6.810
25296WAT     H276131   0.292   4.618   6.955
25297WAT      O76132   0.403   7.781   0.553
25297WAT     H176133   0.397   7.752   0.648
25297WAT     H276134   0.361   7.712   0.494
25298WAT      O76135   2.147   4.532   1.344
25298WAT     H176136   2.151   4.474   1.425
25298WAT     H276137   2.094   4.615   1.365
25299WAT      O76138   4.023   5.397   1.483
25299WAT     H176139   3.993   5.392   1.388
25299WAT     H276140   4.011   5.308   1.526
25300WAT      O76141   8.670   9.199   8.195
25300WAT     H176142   8.576   9.232   8.188
25300WAT     H276143   8.674   9.104   8.165
25301WAT      O76144   0.928   4.983   5.655
25301WAT     H176145   0.914   4.934   5.569
25301WAT     H276146   1.010   5.040   5.648
25302WAT      O76147   1.415   1.580   5.723
25302WAT     H176148   1.390   1.673   5.749
25302WAT     H276149   1.452   1.580   5.630
25303WAT      O76150   0.384   7.498   6.357
25303WAT     H176151   0.295   7.461   6.331
25303WAT     H276152   0.412   7.459   6.445
25304WAT      O76153   0.111   7.800   2.093
25304WAT     H176154   0.186   7.749   2.135
25304WAT     H276155   0.039   7.737   2.064
25305WAT      O76156   9.441   2.185   2.468
25305WAT     H176157   9.358   2.241   2.468
25305WAT     H276158   9.464   2.158   2.375
25306WAT      O76159   4.174   2.096   1.851
25306WAT     H176160   4.127   2.109   1.938
25306WAT     H276161   4.150   2.170   1.788
25307WAT      O76162   7.407   3.511   9.386
25307WAT     H176163   7.384   3.558   9.471
25307WAT     H276164   7.439   3.577   9.319
25308WAT      O76165   6.414   4.818   5.486
25308WAT     H176166   6.468   4.737   5.465
25308WAT     H276167   6.465   4.900   5.459
25309WAT      O76168   3.508   8.433   2.787
25309WAT     H176169   3.563   8.351   2.776
25309WAT     H276170   3.465   8.433   2.877
25310WAT      O76171   6.428   5.930   4.623
25310WAT     H176172   6.406   6.018   4.666
25310WAT     H276173   6.471   5.870   4.690
25311WAT      O76174   2.601   9.554   2.787
25311WAT     H176175   2.666   9.490   2.826
25311WAT     H276176   2.595   9.636   2.844
25312WAT      O76177   0.415   5.201   6.206
25312WAT     H176178   0.371   5.112   6.199
25312WAT     H276179   0.395   5.242   6.295
25313WAT      O76180   3.503   4.175   8.518
25313WAT     H176181   3.527   4.158   8.614
25313WAT     H276182   3.561   4.119   8.459
25314WAT      O76183   1.540   7.212   1.782
25314WAT     H176184   1.604   7.262   1.840
25314WAT     H276185   1.571   7.117   1.773
25315WAT      O76186   0.576   0.008   4.627
25315WAT     H176187   0.498   0.070   4.636
25315WAT     H276188   0.575  -0.035   4.537
25316WAT      O76189   9.779   6.201   8.377
25316WAT     H176190   9.719   6.265   8.329
25316WAT     H276191   9.786   6.227   8.473
25317WAT      O76192   8.564   8.172   2.015
25317WAT     H176193   8.596   8.210   2.102
25317WAT     H276194   8.611   8.218   1.940
25318WAT      O76195   4.553   4.984   3.244
25318WAT     H176196   4.532   4.964   3.148
25318WAT     H276197   4.623   5.055   3.249
25319WAT      O76198   0.240   3.720   7.960
25319WAT     H176199   0.303   3.739   7.886
25319WAT     H276200   0.286   3.733   8.048
25320WAT      O76201   7.705   1.885   6.731
25320WAT     H176202   7.709   1.803   6.676
25320WAT     H276203   7.655   1.866   6.816
25321WAT      O76204   2.490   1.214   5.343
25321WAT     H176205   2.534   1.304   5.334
25321WAT     H276206   2.536   1.148   5.283
25322WAT      O76207   2.955   5.749   8.894
25322WAT     H176208   2.979   5.685   8.967
25322WAT     H276209   3.038   5.788   8.855
25323WAT      O76210   5.835   5.515   1.463
25323WAT     H176211   5.845   5.426   1.418
25323WAT     H276212   5.924   5.546   1.497
25324WAT      O76213   5.438   6.898   9.228
25324WAT     H176214   5.525   6.849   9.221
25324WAT     H276215   5.425   6.929   9.322
25325WAT      O76216   2.926   7.270   3.667
25325WAT     H176217   3.025   7.280   3.679
25325WAT     H276218   2.884   7.251   3.755
25326WAT      O76219   8.264   7.555   9.701
25326WAT     H176220   8.307   7.608   9.627
25326WAT     H276221   8.178   7.598   9.727
25327WAT      O76222   2.720   5.295   3.239
25327WAT     H176223   2.712   5.236   3.158
25327WAT     H276224   2.648   5.271   3.304
25328WAT      O76225   7.277   7.014   4.931
25328WAT     H176226   7.225   7.086   4.886
25328WAT     H276227   7.263   7.019   5.030
25329WAT      O76228   5.150   0.222   3.248
25329WAT     H176229   5.202   0.175   3.319
25329WAT     H276230   5.067   0.262   3.287
25330WAT      O76231   4.816   8.587   9.648
25330WAT     H176232   4.768   8.525   9.585
25330WAT     H276233   4.856   8.534   9.723
25331WAT      O76234   4.367   5.494   1.208
25331WAT     H176235   4.354   5.483   1.307
25331WAT     H276236   4.281   5.519   1.166
25332WAT      O76237   1.283   2.072   5.610
25332WAT     H176238   1.188   2.043   5.596
25332WAT     H276239   1.336   2.050   5.528
25333WAT      O76240   6.168   6.959   5.556
25333WAT     H176241   6.203   7.035   5.610
25333WAT     H276242   6.082   6.926   5.595
25334WAT      O76243   1.272   3.590   7.696
25334WAT     H176244   1.175   3.586   7.672
25334WAT     H276245   1.304   3.685   7.687
25335WAT      O76246   2.223   5.859   5.841
25335WAT     H176247   2.126   5.847   5.862
25335WAT     H276248   2.251   5.790   5.774
25336WAT      O76249   2.360   1.885   4.037
25336WAT     H176250   2.409   1.826   4.102
25336WAT     H276251   2.262   1.866   4.044
25337WAT      O76252   3.629   9.049   5.597
25337WAT     H176253   3.609   9.018   5.690
25337WAT     H276254   3.598   8.981   5.531
25338WAT      O76255   0.735   0.658   5.235
25338WAT     H176256   0.800   0.624   5.303
25338WAT     H276257   0.738   0.758   5.233
25339WAT      O76258   2.086   3.975   3.642
25339WAT     H176259   2.170   3.999   3.592
25339WAT     H276260   2.090   3.878   3.668
25340WAT      O76261   0.379   3.909   0.694
25340WAT     H176262   0.303   3.972   0.706
25340WAT     H276263   0.438   3.911   0.775
25341WAT      O76264   4.868   1.087   0.919
25341WAT     H176265   4.910   1.065   1.007
25341WAT     H276266   4.783   1.136   0.934
25342WAT      O76267   7.739   7.174   6.642
25342WAT     H176268   7.743   7.247   6.573
25342WAT     H276269   7.674   7.105   6.612
25343WAT      O76270   7.545   8.917   3.171
25343WAT     H176271   7.616   8.876   3.113
25343WAT     H276272   7.460   8.925   3.120
25344WAT      O76273   3.637   3.684   4.929
25344WAT     H176274   3.573   3.647   4.996
25344WAT     H276275   3.716   3.624   4.921
25345WAT      O76276   6.118   3.613   4.468
25345WAT     H176277   6.126   3.553   4.547
25345WAT     H276278   6.146   3.705   4.493
25346WAT      O76279   1.434   7.003   9.519
25346WAT     H176280   1.505   7.024   9.586
25346WAT     H276281   1.374   6.933   9.554
25347WAT      O76282   8.335   0.697   4.671
25347WAT     H176283   8.264   0.698   4.742
25347WAT     H276284   8.311   0.633   4.599
25348WAT      O76285   0.612   0.096   1.197
25348WAT     H176286   0.551   0.150   1.255
25348WAT     H276287   0.699   0.081   1.245
25349WAT      O76288   5.153   4.067   4.389
25349WAT     H176289   5.243   4.028   4.407
25349WAT     H276290   5.121   4.116   4.470
25350WAT      O76291   4.045   8.769   1.732
25350WAT     H176292   4.066   8.854   1.779
25350WAT     H276293   4.035   8.695   1.799
25351WAT      O76294   3.673   9.137   9.107
25351WAT     H176295   3.752   9.199   9.105
25351WAT     H276296   3.690   9.063   9.172
25352WAT      O76297   4.001   2.906   3.471
25352WAT     H176298   3.985   2.937   3.377
25352WAT     H276299   3.988   2.982   3.534
25353WAT      O76300   2.347   1.206   7.824
25353WAT     H176301   2.364   1.125   7.768
25353WAT     H276302   2.268   1.255   7.789
25354WAT      O76303   9.680   8.397   3.364
25354WAT     H176304   9.590   8.401   3.407
25354WAT     H276305   9.737   8.332   3.415
25355WAT      O76306   3.338   3.800   4.192
25355WAT     H176307   3.299   3.747   4.117
25355WAT     H276308   3.436   3.785   4.197
25356WAT      O76309   2.721   0.938   1.987
25356WAT     H176310   2.643   0.960   2.046
25356WAT     H276311   2.689   0.923   1.894
25357WAT      O76312   8.255   4.091   1.390
25357WAT     H176313   8.258   4.054   1.483
25357WAT     H276314   8.170   4.141   1.377
25358WAT      O76315   3.671   4.979   3.719
25358WAT     H176316   3.755   4.928   3.704
25358WAT     H276317   3.609   4.924   3.777
25359WAT      O76318   5.403   8.987   1.784
25359WAT     H176319   5.390   8.981   1.883
25359WAT     H276320   5.326   8.944   1.738
25360WAT      O76321   4.506   9.558   2.474
25360WAT     H176322   4.434   9.500   2.438
25360WAT     H276323   4.577   9.571   2.405
25361WAT      O76324   5.403   0.323   7.716
25361WAT     H176325   5.388   0.347   7.620
25361WAT     H276326   5.500   0.312   7.732
25362WAT      O76327   7.501   2.589   7.537
25362WAT     H176328   7.456   2.639   7.611
25362WAT     H276329   7.548   2.509   7.575
25363WAT      O76330   0.054   4.447   6.793
25363WAT     H176331   0.132   4.503   6.819
25363WAT     H276332   0.049   4.441   6.693
25364WAT      O76333   7.128   4.945   7.042
25364WAT     H176334   7.110   5.014   7.112
25364WAT     H276335   7.130   4.854   7.084
25365WAT      O76336   8.895   2.449   4.313
25365WAT     H176337   8.830   2.508   4.362
25365WAT     H276338   8.896   2.358   4.354
25366WAT      O76339   4.178   8.499   3.702
25366WAT     H176340   4.233   8.453   3.633
25366WAT     H276341   4.220   8.587   3.726
25367WAT      O76342   6.771   2.411   7.535
25367WAT     H176343   6.795   2.444   7.626
25367WAT     H276344   6.783   2.485   7.468
25368WAT      O76345   6.748   6.907   4.661
25368WAT     H176346   6.652   6.883   4.651
25368WAT     H276347   6.755   6.996   4.705
25369WAT      O76348   8.772   2.462   2.613
25369WAT     H176349   8.691   2.450   2.555
25369WAT     H276350   8.749   2.440   2.707
25370WAT      O76351   5.268   1.850   5.620
25370WAT     H176352   5.316   1.827   5.535
25370WAT     H276353   5.234   1.766   5.662
25371WAT      O76354   5.303   6.076   0.965
25371WAT     H176355   5.271   5.999   0.910
25371WAT     H276356   5.402   6.072   0.974
25372WAT      O76357   4.808   7.138   7.652
25372WAT     H176358   4.804   7.231   7.616
25372WAT     H276359   4.716   7.109   7.679
25373WAT      O76360   3.294   0.932   2.223
25373WAT     H176361   3.272   0.840   2.192
25373WAT     H276362   3.333   0.984   2.147
25374WAT      O76363   6.614   3.463   1.050
25374WAT     H176364   6.693   3.523   1.046
25374WAT     H276365   6.611   3.415   1.138
25375WAT      O76366   4.921   1.619   9.826
25375WAT     H176367   4.896   1.524   9.805
25375WAT     H276368   4.846   1.663   9.875
25376WAT      O76369   9.336   8.890   5.066
25376WAT     H176370   9.297   8.955   5.001
25376WAT     H276371   9.270   8.872   5.139
25377WAT      O76372   9.811   2.918   0.152
25377WAT     H176373   9.871   2.868   0.215
25377WAT     H276374   9.717   2.912   0.184
25378WAT      O76375   4.757   6.352   0.322
25378WAT     H176376   4.785   6.264   0.360
25378WAT     H276377   4.669   6.379   0.361
25379WAT      O76378   6.842   3.335   5.500
25379WAT     H176379   6.909   3.269   5.534
25379WAT     H276380   6.774   3.353   5.572
25380WAT      O76381   5.714   2.349   0.532
25380WAT     H176382   5.687   2.386   0.443
25380WAT     H276383   5.722   2.423   0.598
25381WAT      O76384   9.657   3.143   1.581
25381WAT     H176385   9.705   3.083   1.645
25381WAT     H276386   9.605   3.087   1.516
25382WAT      O76387   0.644   4.325   7.608
25382WAT     H176388   0.701   4.263   7.555
25382WAT     H276389   0.628   4.286   7.699
25383WAT      O76390   8.430   1.205   0.460
25383WAT     H176391   8.521   1.176   0.427
25383WAT     H276392   8.379   1.245   0.384
25384WAT      O76393   3.091   6.072   4.128
25384WAT     H176394   3.185   6.097   4.152
25384WAT     H276395   3.070   6.107   4.036
25385WAT      O76396   7.476   0.959   3.662
25385WAT     H176397   7.413   1.029   3.694
25385WAT     H276398   7.568   0.997   3.657
25386WAT      O76399   1.143   0.359   3.012
25386WAT     H176400   1.164   0.384   2.917
25386WAT     H276401   1.227   0.358   3.066
25387WAT      O76402   4.860   7.307   7.300
25387WAT     H176403   4.824   7.214   7.289
25387WAT     H276404   4.910   7.314   7.386
25388WAT      O76405   6.830   4.285   0.529
25388WAT     H176406   6.906   4.239   0.575
25388WAT     H276407   6.744   4.249   0.562
25389WAT      O76408   9.767   7.931   7.183
25389WAT     H176409   9.816   7.855   7.139
25389WAT     H276410   9.795   7.938   7.279
25390WAT      O76411   0.381   4.024   4.067
25390WAT     H176412   0.338   4.096   4.120
25390WAT     H276413   0.356   3.935   4.105
25391WAT      O76414   6.745   9.589   9.098
25391WAT     H176415   6.672   9.583   9.030
25391WAT     H276416   6.711   9.558   9.187
25392WAT      O76417   5.134   1.234   1.525
25392WAT     H176418   5.144   1.144   1.568
25392WAT     H276419   5.223   1.267   1.495
25393WAT      O76420   7.073   5.536   7.153
25393WAT     H176421   7.040   5.451   7.112
25393WAT     H276422   7.072   5.527   7.253
25394WAT      O76423   3.711   0.454   2.230
25394WAT     H176424   3.734   0.524   2.298
25394WAT     H276425   3.793   0.432   2.177
25395WAT      O76426   3.394   6.917   8.148
25395WAT     H176427   3.387   6.852   8.072
25395WAT     H276428   3.305   6.959   8.164
25396WAT      O76429   5.132   9.837   3.934
25396WAT     H176430   5.171   9.923   3.901
25396WAT     H276431   5.173   9.813   4.022
25397WAT      O76432   7.645   3.014   5.824
25397WAT     H176433   7.690   3.102   5.811
25397WAT     H276434   7.608   2.982   5.737
25398WAT      O76435   3.084   4.912   1.977
25398WAT     H176436   3.164   4.882   2.028
25398WAT     H276437   3.113   4.971   1.901
25399WAT      O76438   8.025   6.618   9.789
25399WAT     H176439   8.001   6.715   9.792
25399WAT     H276440   8.098   6.604   9.722
25400WAT      O76441   8.573   1.181   6.019
25400WAT     H176442   8.588   1.149   6.112
25400WAT     H276443   8.547   1.278   6.021
25401WAT      O76444   9.797   8.246   4.379
25401WAT     H176445   9.786   8.174   4.310
25401WAT     H276446   9.740   8.224   4.459
25402WAT      O76447   9.771   7.711   4.781
25402WAT     H176448   9.682   7.666   4.788
25402WAT     H276449   9.840   7.643   4.755
25403WAT      O76450   0.210   1.149   6.971
25403WAT     H176451   0.293   1.154   6.916
25403WAT     H276452   0.186   1.241   7.003
25404WAT      O76453   4.902   1.867   0.902
25404WAT     H176454   4.986   1.897   0.946
25404WAT     H276455   4.859   1.944   0.856
25405WAT      O76456   6.611   5.588   3.825
25405WAT     H176457   6.602   5.652   3.901
25405WAT     H276458   6.592   5.636   3.739
25406WAT      O76459   0.782   9.150   5.991
25406WAT     H176460   0.727   9.180   6.070
25406WAT     H276461   0.860   9.096   6.023
25407WAT      O76462   5.373   2.256   7.011
25407WAT     H176463   5.290   2.305   6.984
25407WAT     H276464   5.372   2.164   6.973
25408WAT      O76465   0.527   2.557   5.543
25408WAT     H176466   0.566   2.642   5.578
25408WAT     H276467   0.585   2.480   5.570
25409WAT      O76468   5.252   9.393   1.584
25409WAT     H176469   5.292   9.476   1.623
25409WAT     H276470   5.305   9.365   1.503
25410WAT      O76471   0.062   5.360   8.706
25410WAT     H176472   0.027   5.303   8.632
25410WAT     H276473   0.125   5.306   8.763
25411WAT      O76474   3.737   4.307   7.052
25411WAT     H176475   3.755   4.293   7.150
25411WAT     H276476   3.731   4.405   7.033
25412WAT      O76477   9.144   5.137   8.083
25412WAT     H176478   9.092   5.052   8.073
25412WAT     H276479   9.169   5.172   7.992
25413WAT      O76480   7.628   6.359   9.051
25413WAT     H176481   7.573   6.282   9.016
25413WAT     H276482   7.580   6.401   9.128
25414WAT      O76483   7.719   6.653   5.413
25414WAT     H176484   7.773   6.577   5.376
25414WAT     H276485   7.780   6.728   5.439
25415WAT      O76486   1.241   3.919   1.491
25415WAT     H176487   1.272   3.842   1.547
25415WAT     H276488   1.144   3.907   1.470
25416WAT      O76489   2.831   4.745   3.774
25416WAT     H176490   2.759   4.678   3.757
25416WAT     H276491   2.920   4.702   3.761
25417WAT      O76492   8.272   7.653   4.131
25417WAT     H176493   8.370   7.648   4.151
25417WAT     H276494   8.255   7.620   4.038
25418WAT      O76495   7.436   9.471   4.019
25418WAT     H176496   7.354   9.425   3.984
25418WAT     H276497   7.417   9.509   4.109
25419WAT      O76498   1.588   9.044   7.436
25419WAT     H176499   1.505   8.995   7.410
25419WAT     H276500   1.656   8.979   7.472
25420WAT      O76501   2.105   9.394   5.300
25420WAT     H176502   2.178   9.350   5.249
25420WAT     H276503   2.048   9.447   5.238
25421WAT      O76504   7.312   0.247   7.609
25421WAT     H176505   7.255   0.264   7.529
25421WAT     H276506   7.266   0.284   7.690
25422WAT      O76507   1.029   4.888   2.092
25422WAT     H176508   1.003   4.793   2.073
25422WAT     H276509   0.947   4.940   2.118
25423WAT      O76510   7.747   2.724   6.595
25423WAT     H176511   7.675   2.667   6.556
25423WAT     H276512   7.725   2.747   6.690
25424WAT      O76513   4.465   0.319   0.838
25424WAT     H176514   4.441   0.290   0.745
25424WAT     H276515   4.392   0.376   0.875
25425WAT      O76516   6.475   8.986   9.873
25425WAT     H176517   6.515   8.984   9.965
25425WAT     H276518   6.421   9.070   9.863
25426WAT      O76519   0.348   6.511   8.008
25426WAT     H176520   0.402   6.460   7.942
25426WAT     H276521   0.383   6.493   8.100
25427WAT      O76522   0.348   3.211   7.053
25427WAT     H176523   0.403   3.231   7.134
25427WAT     H276524   0.359   3.115   7.028
25428WAT      O76525   6.005   2.933   6.635
25428WAT     H176526   6.041   3.020   6.602
25428WAT     H276527   5.986   2.940   6.733
25429WAT      O76528   7.946   2.755   7.247
25429WAT     H176529   7.902   2.666   7.242
25429WAT     H276530   7.967   2.777   7.342
25430WAT      O76531   6.328   6.964   1.144
25430WAT     H176532   6.338   6.968   1.244
25430WAT     H276533   6.260   7.032   1.115
25431WAT      O76534   7.395   1.466   2.088
25431WAT     H176535   7.407   1.391   2.022
25431WAT     H276536   7.480   1.477   2.140
25432WAT      O76537   4.165   6.987   6.563
25432WAT     H176538   4.125   6.896   6.571
25432WAT     H276539   4.231   6.988   6.487
25433WAT      O76540   4.851   2.419   7.979
25433WAT     H176541   4.790   2.352   8.021
25433WAT     H276542   4.903   2.376   7.906
25434WAT      O76543   3.003   6.983   9.800
25434WAT     H176544   3.085   7.020   9.757
25434WAT     H276545   3.024   6.893   9.840
25435WAT      O76546   1.070   9.434   7.480
25435WAT     H176547   1.027   9.347   7.507
25435WAT     H276548   1.045   9.505   7.546
25436WAT      O76549   6.863   1.855   4.386
25436WAT     H176550   6.821   1.887   4.471
25436WAT     H276551   6.852   1.756   4.378
25437WAT      O76552   6.731   1.036   4.699
25437WAT     H176553   6.659   1.085   4.651
25437WAT     H276554   6.781   1.100   4.758
25438WAT      O76555   6.596   7.585   8.362
25438WAT     H176556   6.565   7.572   8.456
25438WAT     H276557   6.522   7.560   8.299
25439WAT      O76558   3.129   7.140   3.230
25439WAT     H176559   3.201   7.150   3.162
25439WAT     H276560   3.169   7.112   3.317
25440WAT      O76561   1.691   7.994   6.293
25440WAT     H176562   1.747   7.978   6.211
25440WAT     H276563   1.600   8.026   6.266
25441WAT      O76564   7.415   7.483   3.668
25441WAT     H176565   7.454   7.526   3.587
25441WAT     H276566   7.316   7.501   3.672
25442WAT      O76567   4.189   4.559   3.709
25442WAT     H176568   4.284   4.533   3.691
25442WAT     H276569   4.186   4.650   3.750
25443WAT      O76570   5.833   2.634   4.469
25443WAT     H176571   5.742   2.600   4.495
25443WAT     H276572   5.822   2.719   4.418
25444WAT      O76573   6.582   9.625   9.630
25444WAT     H176574   6.627   9.619   9.719
25444WAT     H276575   6.633   9.687   9.571
25445WAT      O76576   3.076   6.431   9.481
25445WAT     H176577   3.092   6.376   9.399
25445WAT     H276578   2.994   6.488   9.467
25446WAT      O76579   6.350   6.915   4.400
25446WAT     H176580   6.253   6.907   4.425
25446WAT     H276581   6.388   6.996   4.446
25447WAT      O76582   5.090   5.232   5.288
25447WAT     H176583   5.143   5.200   5.209
25447WAT     H276584   4.994   5.207   5.275
25448WAT      O76585   8.257   3.815   7.901
25448WAT     H176586   8.343   3.866   7.903
25448WAT     H276587   8.268   3.730   7.952
25449WAT      O76588   2.896   3.510   6.847
25449WAT     H176589   2.980   3.456   6.838
25449WAT     H276590   2.920   3.605   6.869
25450WAT      O76591   5.344   7.320   2.838
25450WAT     H176592   5.399   7.237   2.836
25450WAT     H276593   5.366   7.377   2.760
25451WAT      O76594   5.171   5.855   8.951
25451WAT     H176595   5.237   5.794   8.908
25451WAT     H276596   5.182   5.947   8.914
25452WAT      O76597   3.577   4.995   9.250
25452WAT     H176598   3.604   5.091   9.254
25452WAT     H276599   3.625   4.943   9.321
25453WAT      O76600   9.835   8.124   8.554
25453WAT     H176601   9.743   8.121   8.591
25453WAT     H276602   9.883   8.205   8.588
25454WAT      O76603   4.148   2.327   6.817
25454WAT     H176604   4.191   2.261   6.879
25454WAT     H276605   4.151   2.418   6.858
25455WAT      O76606   8.849   1.719   2.679
25455WAT     H176607   8.918   1.647   2.668
25455WAT     H276608   8.758   1.677   2.681
25456WAT      O76609   6.248   2.128   1.457
25456WAT     H176610   6.340   2.133   1.496
25456WAT     H276611   6.211   2.037   1.470
25457WAT      O76612   2.248   1.156   4.156
25457WAT     H176613   2.347   1.150   4.145
25457WAT     H276614   2.216   1.246   4.127
25458WAT      O76615   8.887   2.142   5.728
25458WAT     H176616   8.951   2.218   5.722
25458WAT     H276617   8.899   2.094   5.815
25459WAT      O76618   7.719   5.991   8.156
25459WAT     H176619   7.722   5.891   8.164
25459WAT     H276620   7.668   6.029   8.233
25460WAT      O76621   8.749   3.048   8.577
25460WAT     H176622   8.753   3.131   8.633
25460WAT     H276623   8.721   3.071   8.484
25461WAT      O76624   2.433   4.698   7.065
25461WAT     H176625   2.471   4.668   6.977
25461WAT     H276626   2.343   4.738   7.050
25462WAT      O76627   2.743   0.902   1.496
25462WAT     H176628   2.799   0.830   1.537
25462WAT     H276629   2.797   0.955   1.431
25463WAT      O76630   3.134   0.678   9.713
25463WAT     H176631   3.198   0.719   9.648
25463WAT     H276632   3.062   0.630   9.662
25464WAT      O76633   5.872   5.837   9.846
25464WAT     H176634   5.786   5.800   9.812
25464WAT     H276635   5.871   5.937   9.838
25465WAT      O76636   9.114   1.277   7.280
25465WAT     H176637   9.184   1.348   7.281
25465WAT     H276638   9.079   1.264   7.373
25466WAT      O76639   4.786   1.793   0.620
25466WAT     H176640   4.858   1.836   0.674
25466WAT     H276641   4.815   1.786   0.524
25467WAT      O76642   2.690   4.136   6.690
25467WAT     H176643   2.776   4.088   6.669
25467WAT     H276644   2.662   4.114   6.784
25468WAT      O76645   8.241   9.744   2.285
25468WAT     H176646   8.228   9.788   2.374
25468WAT     H276647   8.154   9.705   2.255
25469WAT      O76648   9.206   7.678   6.765
25469WAT     H176649   9.281   7.618   6.736
25469WAT     H276650   9.228   7.773   6.740
25470WAT      O76651   1.024   3.541   8.879
25470WAT     H176652   1.021   3.638   8.855
25470WAT     H276653   0.950   3.492   8.833
25471WAT      O76654   0.321   1.901   1.824
25471WAT     H176655   0.395   1.906   1.757
25471WAT     H276656   0.234   1.882   1.777
25472WAT      O76657   6.047   7.317   7.250
25472WAT     H176658   6.031   7.331   7.152
25472WAT     H276659   6.006   7.231   7.279
25473WAT      O76660   1.833   5.493   2.410
25473WAT     H176661   1.834   5.399   2.376
25473WAT     H276662   1.796   5.554   2.339
25474WAT      O76663   8.351   8.402   1.323
25474WAT     H176664   8.291   8.414   1.245
25474WAT     H276665   8.444   8.383   1.292
25475WAT      O76666   5.074   5.892   7.159
25475WAT     H176667   5.139   5.852   7.223
25475WAT     H276668   5.008   5.822   7.131
25476WAT      O76669   7.583   8.274   8.872
25476WAT     H176670   7.524   8.337   8.922
25476WAT     H276671   7.532   8.191   8.848
25477WAT      O76672   7.839   7.381   0.505
25477WAT     H176673   7.821   7.453   0.437
25477WAT     H276674   7.899   7.312   0.465
25478WAT      O76675   1.474   6.760   6.347
25478WAT     H176676   1.557   6.793   6.300
25478WAT     H276677   1.468   6.803   6.437
25479WAT      O76678   1.090   8.515   9.422
25479WAT     H176679   1.098   8.615   9.425
25479WAT     H276680   1.160   8.478   9.361
25480WAT      O76681   3.210   1.711   6.184
25480WAT     H176682   3.214   1.612   6.195
25480WAT     H276683   3.115   1.740   6.176
25481WAT      O76684   0.761   7.815   4.666
25481WAT     H176685   0.842   7.764   4.637
25481WAT     H276686   0.680   7.758   4.654
25482WAT      O76687   8.672   4.841   0.417
25482WAT     H176688   8.587   4.861   0.368
25482WAT     H276689   8.650   4.798   0.505
25483WAT      O76690   6.808   7.026   2.375
25483WAT     H176691   6.889   7.083   2.388
25483WAT     H276692   6.726   7.082   2.385
25484WAT      O76693   0.713   3.742   3.483
25484WAT     H176694   0.615   3.751   3.466
25484WAT     H276695   0.730   3.663   3.542
25485WAT      O76696   5.747   6.741   4.326
25485WAT     H176697   5.802   6.779   4.400
25485WAT     H276698   5.698   6.660   4.358
25486WAT      O76699   1.254   5.443   0.664
25486WAT     H176700   1.161   5.448   0.627
25486WAT     H276701   1.266   5.356   0.712
25487WAT      O76702   8.437   0.746   6.616
25487WAT     H176703   8.471   0.839   6.601
25487WAT     H276704   8.350   0.734   6.569
25488WAT      O76705   4.945   1.488   2.443
25488WAT     H176706   4.984   1.558   2.502
25488WAT     H276707   4.877   1.435   2.493
25489WAT      O76708   2.480   7.445   6.245
25489WAT     H176709   2.441   7.398   6.166
25489WAT     H276710   2.577   7.464   6.227
25490WAT      O76711   2.794   1.563   0.790
25490WAT     H176712   2.825   1.534   0.880
25490WAT     H276713   2.710   1.617   0.800
25491WAT      O76714   2.055   5.203   1.865
25491WAT     H176715   2.007   5.262   1.801
25491WAT     H276716   2.023   5.108   1.854
25492WAT      O76717   4.264   2.730   1.327
25492WAT     H176718   4.271   2.809   1.388
25492WAT     H276719   4.235   2.760   1.236
25493WAT      O76720   8.857   3.919   0.939
25493WAT     H176721   8.887   3.896   0.847
25493WAT     H276722   8.937   3.922   1.000
25494WAT      O76723   2.196   8.310   3.368
25494WAT     H176724   2.155   8.362   3.442
25494WAT     H276725   2.128   8.291   3.298
25495WAT      O76726   3.231   1.809   2.133
25495WAT     H176727   3.192   1.892   2.174
25495WAT     H276728   3.308   1.834   2.074
25496WAT      O76729   0.827   6.859   9.258
25496WAT     H176730   0.839   6.778   9.315
25496WAT     H276731   0.846   6.941   9.311
25497WAT      O76732   0.858   9.665   6.907
25497WAT     H176733   0.855   9.709   6.817
25497WAT     H276734   0.927   9.592   6.906
25498WAT      O76735   9.546   7.133   3.378
25498WAT     H176736   9.559   7.040   3.413
25498WAT     H276737   9.514   7.192   3.451
25499WAT      O76738   6.749   2.438   0.357
25499WAT     H176739   6.789   2.358   0.312
25499WAT     H276740   6.822   2.504   0.377
25500WAT      O76741   4.638   2.312   3.358
25500WAT     H176742   4.630   2.319   3.458
25500WAT     H276743   4.633   2.403   3.318
25501WAT      O76744   1.551   8.859   7.661
25501WAT     H176745   1.502   8.788   7.712
25501WAT     H276746   1.498   8.943   7.661
25502WAT      O76747   0.359   4.066   8.511
25502WAT     H176748   0.270   4.023   8.491
25502WAT     H276749   0.393   4.033   8.599
25503WAT      O76750   6.603   6.544   5.764
25503WAT     H176751   6.551   6.597   5.696
25503WAT     H276752   6.636   6.606   5.835
25504WAT      O76753   5.673   4.786   1.245
25504WAT     H176754   5.654   4.849   1.321
25504WAT     H276755   5.700   4.839   1.164
25505WAT      O76756   4.585   9.388   0.781
25505WAT     H176757   4.540   9.318   0.835
25505WAT     H276758   4.576   9.477   0.827
25506WAT      O76759   3.006   8.668   8.994
25506WAT     H176760   3.091   8.623   8.967
25506WAT     H276761   2.942   8.599   9.031
25507WAT      O76762   6.884   1.154   8.858
25507WAT     H176763   6.881   1.225   8.927
25507WAT     H276764   6.920   1.192   8.772
25508WAT      O76765   6.640   8.865   2.822
25508WAT     H176766   6.610   8.809   2.745
25508WAT     H276767   6.560   8.900   2.871
25509WAT      O76768   9.351   1.603   0.599
25509WAT     H176769   9.440   1.612   0.554
25509WAT     H276770   9.326   1.690   0.640
25510WAT      O76771   5.698   8.825   3.079
25510WAT     H176772   5.695   8.920   3.112
25510WAT     H276773   5.782   8.782   3.111
25511WAT      O76774   8.925   4.374  -0.001
25511WAT     H176775   8.927   4.281   0.035
25511WAT     H276776   8.959   4.437   0.068
25512WAT      O76777   1.668   4.706   3.904
25512WAT     H176778   1.688   4.696   4.002
25512WAT     H276779   1.576   4.672   3.886
25513WAT      O76780   8.125   1.356   6.289
25513WAT     H176781   8.099   1.450   6.268
25513WAT     H276782   8.054   1.315   6.347
25514WAT      O76783   3.156   7.352   5.831
25514WAT     H176784   3.203   7.323   5.747
25514WAT     H276785   3.143   7.273   5.890
25515WAT      O76786   2.836   3.307   4.474
25515WAT     H176787   2.783   3.337   4.395
25515WAT     H276788   2.911   3.372   4.490
25516WAT      O76789   0.608   6.240   7.364
25516WAT     H176790   0.607   6.241   7.264
25516WAT     H276791   0.535   6.299   7.399
25517WAT      O76792   6.676   4.357   7.311
25517WAT     H176793   6.664   4.456   7.320
25517WAT     H276794   6.602   4.320   7.255
25518WAT      O76795   1.971   4.390   5.872
25518WAT     H176796   1.978   4.469   5.933
25518WAT     H276797   1.904   4.411   5.800
25519WAT      O76798   4.752   1.713   5.829
25519WAT     H176799   4.666   1.703   5.880
25519WAT     H276800   4.770   1.811   5.814
25520WAT      O76801   4.159   4.566   2.301
25520WAT     H176802   4.141   4.519   2.388
25520WAT     H276803   4.249   4.609   2.305
25521WAT      O76804   2.800   8.406   6.226
25521WAT     H176805   2.724   8.378   6.168
25521WAT     H276806   2.786   8.500   6.256
25522WAT      O76807   3.491   1.858   0.081
25522WAT     H176808   3.475   1.955   0.098
25522WAT     H276809   3.507   1.842  -0.016
25523WAT      O76810   1.056   8.356   1.626
25523WAT     H176811   1.016   8.272   1.590
25523WAT     H276812   1.149   8.338   1.658
25524WAT      O76813   8.060   3.773   8.185
25524WAT     H176814   8.121   3.808   8.256
25524WAT     H276815   8.104   3.697   8.137
25525WAT      O76816   0.292   0.190   0.164
25525WAT     H176817   0.255   0.116   0.221
25525WAT     H276818   0.264   0.278   0.201
25526WAT      O76819   2.667   2.718   5.232
25526WAT     H176820   2.631   2.684   5.145
25526WAT     H276821   2.717   2.803   5.216
25527WAT      O76822   2.499   3.125   9.113
25527WAT     H176823   2.469   3.034   9.143
25527WAT     H276824   2.426   3.191   9.131
25528WAT      O76825   5.880   9.613   0.421
25528WAT     H176826   5.879   9.590   0.324
25528WAT     H276827   5.904   9.710   0.433
25529WAT      O76828   6.908   7.381   2.114
25529WAT     H176829   6.892   7.284   2.099
25529WAT     H276830   6.820   7.428   2.119
25530WAT      O76831   4.844   2.116   6.586
25530WAT     H176832   4.926   2.173   6.581
25530WAT     H276833   4.785   2.148   6.659
25531WAT      O76834   5.436   3.981   9.211
25531WAT     H176835   5.419   4.014   9.118
25531WAT     H276836   5.358   4.003   9.270
25532WAT      O76837   7.749   2.683   8.200
25532WAT     H176838   7.664   2.735   8.191
25532WAT     H276839   7.827   2.742   8.177
25533WAT      O76840   5.791   8.223   6.420
25533WAT     H176841   5.810   8.259   6.329
25533WAT     H276842   5.766   8.127   6.414
25534WAT      O76843   1.495   6.333   1.908
25534WAT     H176844   1.583   6.353   1.951
25534WAT     H276845   1.441   6.417   1.903
25535WAT      O76846   1.339   9.142   4.846
25535WAT     H176847   1.438   9.140   4.828
25535WAT     H276848   1.300   9.052   4.827
25536WAT      O76849   5.489   3.065   3.200
25536WAT     H176850   5.493   3.160   3.229
25536WAT     H276851   5.435   3.012   3.267
25537WAT      O76852   0.763   1.332   5.541
25537WAT     H176853   0.739   1.251   5.487
25537WAT     H276854   0.775   1.307   5.636
25538WAT      O76855   5.738   0.330   6.868
25538WAT     H176856   5.818   0.296   6.918
25538WAT     H276857   5.733   0.429   6.876
25539WAT      O76858   6.459   4.040   2.130
25539WAT     H176859   6.502   4.000   2.211
25539WAT     H276860   6.361   4.024   2.132
25540WAT      O76861   4.771   1.115   7.136
25540WAT     H176862   4.708   1.055   7.184
25540WAT     H276863   4.745   1.121   7.039
25541WAT      O76864   6.550   3.552   4.608
25541WAT     H176865   6.644   3.584   4.595
25541WAT     H276866   6.513   3.590   4.692
25542WAT      O76867   0.526   3.774   5.775
25542WAT     H176868   0.472   3.731   5.847
25542WAT     H276869   0.623   3.752   5.787
25543WAT      O76870   6.726   7.469   9.283
25543WAT     H176871   6.684   7.385   9.249
25543WAT     H276872   6.825   7.467   9.268
25544WAT      O76873   1.689   9.556   5.374
25544WAT     H176874   1.684   9.498   5.293
25544WAT     H276875   1.696   9.498   5.456
25545WAT      O76876   9.148   5.286   2.056
25545WAT     H176877   9.193   5.230   2.126
25545WAT     H276878   9.217   5.329   1.998
25546WAT      O76879   6.361   4.116   7.523
25546WAT     H176880   6.405   4.193   7.570
25546WAT     H276881   6.277   4.092   7.572
25547WAT      O76882   6.570   2.712   2.584
25547WAT     H176883   6.611   2.625   2.555
25547WAT     H276884   6.490   2.732   2.527
25548WAT      O76885   1.788   6.489   4.314
25548WAT     H176886   1.829   6.574   4.345
25548WAT     H276887   1.776   6.427   4.392
25549WAT      O76888   6.083   9.503   6.015
25549WAT     H176889   5.984   9.511   6.023
25549WAT     H276890   6.110   9.407   6.025
25550WAT      O76891   1.342   9.158   2.825
25550WAT     H176892   1.404   9.237   2.820
25550WAT     H276893   1.356   9.110   2.912
25551WAT      O76894   6.612   3.464   8.002
25551WAT     H176895   6.574   3.501   7.917
25551WAT     H276896   6.544   3.406   8.046
25552WAT      O76897   7.554   8.729   1.256
25552WAT     H176898   7.618   8.692   1.323
25552WAT     H276899   7.561   8.829   1.256
25553WAT      O76900   3.974   1.158   2.668
25553WAT     H176901   3.967   1.190   2.574
25553WAT     H276902   4.052   1.095   2.677
25554WAT      O76903   9.166   9.557   6.321
25554WAT     H176904   9.219   9.471   6.317
25554WAT     H276905   9.157   9.594   6.228
25555WAT      O76906   2.094   1.688   2.135
25555WAT     H176907   2.174   1.748   2.141
25555WAT     H276908   2.086   1.634   2.219
25556WAT      O76909   5.037   0.509   1.950
25556WAT     H176910   5.075   0.468   2.033
25556WAT     H276911   4.946   0.469   1.933
25557WAT      O76912   5.719   2.223   7.821
25557WAT     H176913   5.691   2.291   7.888
25557WAT     H276914   5.812   2.243   7.789
25558WAT      O76915   6.830   9.625   0.656
25558WAT     H176916   6.788   9.535   0.654
25558WAT     H276917   6.860   9.647   0.749
25559WAT      O76918   6.257   0.705   3.630
25559WAT     H176919   6.163   0.736   3.615
25559WAT     H276920   6.276   0.625   3.573
25560WAT      O76921   4.287   3.630   0.207
25560WAT     H176922   4.338   3.635   0.121
25560WAT     H276923   4.190   3.616   0.187
25561WAT      O76924   4.310   2.921   9.229
25561WAT     H176925   4.232   2.922   9.166
25561WAT     H276926   4.321   3.012   9.270
25562WAT      O76927   0.448   1.951   3.027
25562WAT     H176928   0.509   1.901   3.089
25562WAT     H276929   0.374   1.993   3.080
25563WAT      O76930   8.662   7.241   5.906
25563WAT     H176931   8.640   7.288   5.992
25563WAT     H276932   8.628   7.148   5.909
25564WAT      O76933   6.059   9.264   5.610
25564WAT     H176934   6.102   9.257   5.700
25564WAT     H276935   6.061   9.360   5.581
25565WAT      O76936   4.085   1.433   9.723
25565WAT     H176937   4.047   1.415   9.813
25565WAT     H276938   4.053   1.523   9.691
25566WAT      O76939   6.740   5.470   9.632
25566WAT     H176940   6.723   5.372   9.644
25566WAT     H276941   6.833   5.483   9.598
25567WAT      O76942   5.337   7.343   9.460
25567WAT     H176943   5.258   7.337   9.521
25567WAT     H276944   5.333   7.270   9.392
25568WAT      O76945   3.518   0.548   8.114
25568WAT     H176946   3.449   0.614   8.144
25568WAT     H276947   3.540   0.564   8.018
25569WAT      O76948   7.245   9.834   6.963
25569WAT     H176949   7.181   9.879   7.026
25569WAT     H276950   7.332   9.883   6.963
25570WAT      O76951   6.132   3.746   7.198
25570WAT     H176952   6.190   3.733   7.118
25570WAT     H276953   6.123   3.660   7.247
25571WAT      O76954   1.907   5.447   6.840
25571WAT     H176955   1.890   5.418   6.746
25571WAT     H276956   1.820   5.472   6.883
25572WAT      O76957   6.166   7.519   0.549
25572WAT     H176958   6.124   7.498   0.638
25572WAT     H276959   6.219   7.603   0.556
25573WAT      O76960   7.183   8.060   6.379
25573WAT     H176961   7.242   7.993   6.422
25573WAT     H276962   7.206   8.068   6.282
25574WAT      O76963   2.345   6.527   2.685
25574WAT     H176964   2.418   6.462   2.666
25574WAT     H276965   2.361   6.611   2.635
25575WAT      O76966   5.904   6.395   4.059
25575WAT     H176967   5.981   6.372   4.118
25575WAT     H276968   5.930   6.381   3.964
25576WAT      O76969   4.330   7.724   9.018
25576WAT     H176970   4.426   7.707   9.041
25576WAT     H276971   4.305   7.817   9.043
25577WAT      O76972   5.989   3.191   4.325
25577WAT     H176973   5.911   3.254   4.327
25577WAT     H276974   5.966   3.107   4.374
25578WAT      O76975   2.079   0.862   5.387
25578WAT     H176976   2.077   0.859   5.287
25578WAT     H276977   2.119   0.948   5.418
25579WAT      O76978   1.689   7.297   5.620
25579WAT     H176979   1.695   7.299   5.720
25579WAT     H276980   1.757   7.235   5.583
25580WAT      O76981   2.777   4.086   8.426
25580WAT     H176982   2.762   3.995   8.388
25580WAT     H276983   2.829   4.142   8.362
25581WAT      O76984   4.749   0.830   8.320
25581WAT     H176985   4.717   0.917   8.356
25581WAT     H276986   4.671   0.774   8.292
25582WAT      O76987   0.762   1.674   2.874
25582WAT     H176988   0.728   1.649   2.965
25582WAT     H276989   0.692   1.653   2.806
25583WAT      O76990   1.793   4.968   7.747
25583WAT     H176991   1.825   4.902   7.678
25583WAT     H276992   1.694   4.975   7.744
25584WAT      O76993   1.326   4.540   4.671
25584WAT     H176994   1.246   4.571   4.619
25584WAT     H276995   1.362   4.616   4.725
25585WAT      O76996   0.343   6.125   7.266
25585WAT     H176997   0.364   6.210   7.313
25585WAT     H276998   0.271   6.076   7.315
25586WAT      O76999   4.259   5.369   7.864
25586WAT     H177000   4.179   5.351   7.921
25586WAT     H277001   4.236   5.350   7.768
25587WAT      O77002   1.589   6.916   5.368
25587WAT     H177003   1.659   6.903   5.438
25587WAT     H277004   1.502   6.877   5.400
25588WAT      O77005   9.739   2.417   9.330
25588WAT     H177006   9.735   2.471   9.414
25588WAT     H277007   9.730   2.477   9.251
25589WAT      O77008   5.571   6.987   6.610
25589WAT     H177009   5.631   7.065   6.593
25589WAT     H277010   5.598   6.942   6.695
25590WAT      O77011   8.037   0.280   0.708
25590WAT     H177012   8.094   0.220   0.651
25590WAT     H277013   8.054   0.260   0.804
25591WAT      O77014   7.027   5.440   9.062
25591WAT     H177015   7.010   5.342   9.074
25591WAT     H277016   6.992   5.490   9.141
25592WAT      O77017   1.964   8.905   6.791
25592WAT     H177018   2.009   8.910   6.702
25592WAT     H277019   1.966   8.995   6.834
25593WAT      O77020   0.615   7.885   6.639
25593WAT     H177021   0.602   7.880   6.540
25593WAT     H277022   0.555   7.818   6.684
25594WAT      O77023   6.182   7.404   3.541
25594WAT     H177024   6.189   7.503   3.543
25594WAT     H277025   6.161   7.374   3.448
25595WAT      O77026   4.067   6.283   5.165
25595WAT     H177027   4.024   6.359   5.115
25595WAT     H277028   4.044   6.289   5.262
25596WAT      O77029   9.766   4.917   1.407
25596WAT     H177030   9.749   4.868   1.492
25596WAT     H277031   9.810   5.004   1.426
25597WAT      O77032   6.731   9.628   0.277
25597WAT     H177033   6.816   9.671   0.306
25597WAT     H277034   6.653   9.684   0.305
25598WAT      O77035   7.390   5.117   3.291
25598WAT     H177036   7.478   5.070   3.281
25598WAT     H277037   7.336   5.106   3.208
25599WAT      O77038   0.831   2.155   0.504
25599WAT     H177039   0.833   2.254   0.492
25599WAT     H277040   0.736   2.123   0.502
25600WAT      O77041   2.150   2.557   3.231
25600WAT     H177042   2.137   2.656   3.228
25600WAT     H277043   2.204   2.533   3.312
25601WAT      O77044   1.764   7.444   2.548
25601WAT     H177045   1.841   7.444   2.485
25601WAT     H277046   1.798   7.437   2.642
25602WAT      O77047   2.119   3.948   5.867
25602WAT     H177048   2.122   3.879   5.795
25602WAT     H277049   2.128   4.039   5.826
25603WAT      O77050   2.282   4.899   4.745
25603WAT     H177051   2.366   4.863   4.704
25603WAT     H277052   2.203   4.852   4.706
25604WAT      O77053   7.131   1.112   5.289
25604WAT     H177054   7.037   1.127   5.320
25604WAT     H277055   7.156   1.016   5.303
25605WAT      O77056   5.066   7.450   8.637
25605WAT     H177057   4.971   7.458   8.669
25605WAT     H277058   5.074   7.370   8.577
25606WAT      O77059   9.671   3.167   8.371
25606WAT     H177060   9.579   3.131   8.390
25606WAT     H277061   9.685   3.251   8.424
25607WAT      O77062   3.891   9.587   7.874
25607WAT     H177063   3.813   9.638   7.909
25607WAT     H277064   3.935   9.537   7.949
25608WAT      O77065   0.434   3.247   3.448
25608WAT     H177066   0.493   3.277   3.373
25608WAT     H277067   0.491   3.204   3.519
25609WAT      O77068   9.021   3.854   2.705
25609WAT     H177069   9.084   3.918   2.748
25609WAT     H277070   8.930   3.895   2.699
25610WAT      O77071   2.968   0.234   4.418
25610WAT     H177072   2.961   0.331   4.395
25610WAT     H277073   2.996   0.225   4.514
25611WAT      O77074   7.992   2.975   0.250
25611WAT     H177075   7.971   2.972   0.153
25611WAT     H277076   7.918   2.931   0.302
25612WAT      O77077   2.458   9.071   1.765
25612WAT     H177078   2.491   9.030   1.679
25612WAT     H277079   2.402   9.005   1.814
25613WAT      O77080   2.206   2.718   7.340
25613WAT     H177081   2.292   2.769   7.334
25613WAT     H277082   2.187   2.675   7.252
25614WAT      O77083   4.356   1.184   9.149
25614WAT     H177084   4.330   1.179   9.245
25614WAT     H277085   4.274   1.187   9.092
25615WAT      O77086   4.939   5.412   5.075
25615WAT     H177087   4.890   5.336   5.118
25615WAT     H277088   4.923   5.496   5.127
25616WAT      O77089   4.749   5.544   6.964
25616WAT     H177090   4.743   5.484   6.884
25616WAT     H277091   4.657   5.562   6.999
25617WAT      O77092   1.557   7.912   0.644
25617WAT     H177093   1.560   7.956   0.554
25617WAT     H277094   1.576   7.980   0.715
25618WAT      O77095   4.690   1.434   0.772
25618WAT     H177096   4.630   1.354   0.767
25618WAT     H277097   4.644   1.513   0.731
25619WAT      O77098   8.014   9.298   1.658
25619WAT     H177099   8.085   9.259   1.600
25619WAT     H277100   8.051   9.374   1.711
25620WAT      O77101   2.946   8.361   6.756
25620WAT     H177102   2.876   8.380   6.687
25620WAT     H277103   2.935   8.268   6.790
25621WAT      O77104   1.165   5.564   7.378
25621WAT     H177105   1.203   5.477   7.347
25621WAT     H277106   1.099   5.597   7.311
25622WAT      O77107   2.741   3.815   7.486
25622WAT     H177108   2.712   3.911   7.476
25622WAT     H277109   2.701   3.761   7.412
25623WAT      O77110   2.234   0.045   5.394
25623WAT     H177111   2.323   0.011   5.365
25623WAT     H277112   2.241   0.141   5.420
25624WAT      O77113   5.798   6.744   4.046
25624WAT     H177114   5.895   6.735   4.026
25624WAT     H277115   5.784   6.746   4.145
25625WAT      O77116   2.222   2.636   5.194
25625WAT     H177117   2.139   2.667   5.241
25625WAT     H277118   2.298   2.634   5.259
25626WAT      O77119   9.036   6.449   3.146
25626WAT     H177120   9.112   6.401   3.191
25626WAT     H277121   9.037   6.428   3.048
25627WAT      O77122   2.391   7.056   7.840
25627WAT     H177123   2.404   7.132   7.776
25627WAT     H277124   2.380   7.093   7.933
25628WAT      O77125   5.163   9.669   7.227
25628WAT     H177126   5.074   9.629   7.204
25628WAT     H277127   5.206   9.617   7.300
25629WAT      O77128   6.538   0.399   1.648
25629WAT     H177129   6.620   0.360   1.689
25629WAT     H277130   6.546   0.397   1.548
25630WAT      O77131   5.566   7.504   9.242
25630WAT     H177132   5.504   7.536   9.313
25630WAT     H277133   5.552   7.406   9.228
25631WAT      O77134   0.845   7.534   4.597
25631WAT     H177135   0.827   7.491   4.508
25631WAT     H277136   0.785   7.495   4.666
25632WAT      O77137   5.427   5.235   0.710
25632WAT     H177138   5.365   5.283   0.647
25632WAT     H277139   5.439   5.141   0.680
25633WAT      O77140   6.588   1.166   0.325
25633WAT     H177141   6.656   1.104   0.286
25633WAT     H277142   6.598   1.168   0.424
25634WAT      O77143   4.767   0.247   4.528
25634WAT     H177144   4.670   0.250   4.553
25634WAT     H277145   4.788   0.162   4.481
25635WAT      O77146   3.830   6.940   0.435
25635WAT     H177147   3.895   6.927   0.510
25635WAT     H277148   3.879   6.964   0.352
25636WAT      O77149   9.294   2.093   5.532
25636WAT     H177150   9.212   2.044   5.560
25636WAT     H277151   9.358   2.030   5.489
25637WAT      O77152   6.944   9.078   1.557
25637WAT     H177153   7.011   9.050   1.626
25637WAT     H277154   6.928   9.176   1.564
25638WAT      O77155   4.456   2.565   8.236
25638WAT     H177156   4.411   2.570   8.147
25638WAT     H277157   4.439   2.476   8.278
25639WAT      O77158   4.760   3.795   1.716
25639WAT     H177159   4.676   3.771   1.667
25639WAT     H277160   4.797   3.714   1.761
25640WAT      O77161   9.793   2.862   9.581
25640WAT     H177162   9.776   2.863   9.483
25640WAT     H277163   9.889   2.886   9.599
25641WAT      O77164   6.425   5.522   8.306
25641WAT     H177165   6.425   5.549   8.403
25641WAT     H277166   6.494   5.452   8.290
25642WAT      O77167   4.015   2.287   4.341
25642WAT     H177168   3.956   2.247   4.271
25642WAT     H277169   4.082   2.347   4.298
25643WAT      O77170   1.607   5.996   5.325
25643WAT     H177171   1.587   5.898   5.324
25643WAT     H277172   1.564   6.038   5.406
25644WAT      O77173   2.026   9.824   4.479
25644WAT     H177174   2.096   9.856   4.544
25644WAT     H277175   2.068   9.763   4.412
25645WAT      O77176   7.866   2.508   4.269
25645WAT     H177177   7.899   2.415   4.287
25645WAT     H277178   7.916   2.546   4.191
25646WAT      O77179   5.513   3.650   3.022
25646WAT     H177180   5.498   3.671   2.925
25646WAT     H277181   5.472   3.723   3.078
25647WAT      O77182   7.915   4.661   1.332
25647WAT     H177183   7.975   4.683   1.255
25647WAT     H277184   7.954   4.586   1.385
25648WAT      O77185   4.534   7.168   8.177
25648WAT     H177186   4.501   7.179   8.270
25648WAT     H277187   4.509   7.077   8.144
25649WAT      O77188   9.341   1.527   3.488
25649WAT     H177189   9.426   1.580   3.495
25649WAT     H277190   9.349   1.461   3.414
25650WAT      O77191   6.107   6.724   2.423
25650WAT     H177192   6.123   6.763   2.332
25650WAT     H277193   6.010   6.731   2.445
25651WAT      O77194   3.571   9.553   1.194
25651WAT     H177195   3.536   9.604   1.115
25651WAT     H277196   3.497   9.499   1.234
25652WAT      O77197   7.757   0.452   6.227
25652WAT     H177198   7.799   0.431   6.138
25652WAT     H277199   7.733   0.367   6.273
25653WAT      O77200   2.161   5.921   1.956
25653WAT     H177201   2.152   6.014   1.993
25653WAT     H277202   2.101   5.859   2.007
25654WAT      O77203   2.697   9.591   1.730
25654WAT     H177204   2.758   9.513   1.723
25654WAT     H277205   2.640   9.596   1.648
25655WAT      O77206   1.642   8.671   5.364
25655WAT     H177207   1.594   8.608   5.425
25655WAT     H277208   1.575   8.727   5.314
25656WAT      O77209   6.573   0.515   0.210
25656WAT     H177210   6.567   0.522   0.110
25656WAT     H277211   6.642   0.579   0.244
25657WAT      O77212   5.850   3.382   5.611
25657WAT     H177213   5.903   3.417   5.689
25657WAT     H277214   5.832   3.457   5.548
25658WAT      O77215   1.673   0.483   7.247
25658WAT     H177216   1.703   0.527   7.331
25658WAT     H277217   1.752   0.453   7.194
25659WAT      O77218   5.667   1.601   6.768
25659WAT     H177219   5.636   1.544   6.692
25659WAT     H277220   5.728   1.672   6.734
25660WAT      O77221   6.015   2.419   1.282
25660WAT     H177222   6.100   2.365   1.285
25660WAT     H277223   6.019   2.491   1.350
25661WAT      O77224   4.696   2.701   0.430
25661WAT     H177225   4.740   2.612   0.419
25661WAT     H277226   4.745   2.754   0.500
25662WAT      O77227   1.329   0.838   6.777
25662WAT     H177228   1.362   0.894   6.700
25662WAT     H277229   1.389   0.759   6.789
25663WAT      O77230   6.287   3.004   0.273
25663WAT     H177231   6.317   3.012   0.178
25663WAT     H277232   6.284   2.908   0.300
25664WAT      O77233   7.063   7.815   1.424
25664WAT     H177234   7.152   7.831   1.465
25664WAT     H277235   7.001   7.890   1.449
25665WAT      O77236   7.821   3.479   0.319
25665WAT     H177237   7.891   3.416   0.284
25665WAT     H277238   7.838   3.496   0.416
25666WAT      O77239   2.145   1.562   3.435
25666WAT     H177240   2.105   1.649   3.464
25666WAT     H277241   2.191   1.519   3.513
25667WAT      O77242   5.065   7.352   1.470
25667WAT     H177243   5.148   7.297   1.469
25667WAT     H277244   5.071   7.421   1.542
25668WAT      O77245   7.085   8.269   5.503
25668WAT     H177246   7.045   8.199   5.563
25668WAT     H277247   7.053   8.359   5.532
25669WAT      O77248   0.333   1.392   3.926
25669WAT     H177249   0.325   1.421   3.831
25669WAT     H277250   0.406   1.324   3.935
25670WAT      O77251   5.300   4.359   7.107
25670WAT     H177252   5.364   4.282   7.102
25670WAT     H277253   5.241   4.348   7.186
25671WAT      O77254   4.882   3.912   9.259
25671WAT     H177255   4.876   3.842   9.330
25671WAT     H277256   4.817   3.985   9.278
25672WAT      O77257   8.920   9.664   2.211
25672WAT     H177258   8.946   9.601   2.138
25672WAT     H277259   8.860   9.735   2.174
25673WAT      O77260   5.260   3.951   6.361
25673WAT     H177261   5.268   3.853   6.342
25673WAT     H277262   5.348   3.996   6.345
25674WAT      O77263   9.042   8.877   8.892
25674WAT     H177264   9.008   8.842   8.805
25674WAT     H277265   9.096   8.807   8.938
25675WAT      O77266   6.344   4.907   3.329
25675WAT     H177267   6.418   4.844   3.355
25675WAT     H277268   6.383   4.991   3.292
25676WAT      O77269   7.130   2.383   8.289
25676WAT     H177270   7.100   2.402   8.196
25676WAT     H277271   7.112   2.462   8.347
25677WAT      O77272   6.503   2.499   0.222
25677WAT     H177273   6.588   2.488   0.274
25677WAT     H277274   6.521   2.482   0.125
25678WAT      O77275   1.139   1.119   1.896
25678WAT     H177276   1.130   1.219   1.897
25678WAT     H277277   1.224   1.092   1.942
25679WAT      O77278   0.549   9.540   2.993
25679WAT     H177279   0.629   9.568   2.938
25679WAT     H277280   0.489   9.482   2.938
25680WAT      O77281   4.424   1.538   6.886
25680WAT     H177282   4.367   1.607   6.841
25680WAT     H277283   4.437   1.563   6.982
25681WAT      O77284   2.641   2.090   7.336
25681WAT     H177285   2.569   2.115   7.271
25681WAT     H277286   2.602   2.033   7.409
25682WAT      O77287   0.008   9.072   5.841
25682WAT     H177288   0.082   9.049   5.778
25682WAT     H277289  -0.077   9.030   5.810
25683WAT      O77290   4.883   2.925   6.954
25683WAT     H177291   4.966   2.969   6.987
25683WAT     H277292   4.804   2.961   7.004
25684WAT      O77293   3.182   7.874   7.127
25684WAT     H177294   3.167   7.784   7.168
25684WAT     H277295   3.279   7.895   7.127
25685WAT      O77296   2.781   3.811   9.810
25685WAT     H177297   2.817   3.750   9.881
25685WAT     H277298   2.800   3.771   9.720
25686WAT      O77299   0.762   0.813   3.938
25686WAT     H177300   0.779   0.725   3.894
25686WAT     H277301   0.837   0.836   3.999
25687WAT      O77302   8.791   7.767   2.944
25687WAT     H177303   8.742   7.850   2.971
25687WAT     H277304   8.731   7.688   2.956
25688WAT      O77305   4.083   2.954   2.007
25688WAT     H177306   4.119   2.995   1.924
25688WAT     H277307   4.100   3.015   2.085
25689WAT      O77308   6.364   7.571   6.360
25689WAT     H177309   6.384   7.668   6.346
25689WAT     H277310   6.266   7.560   6.380
25690WAT      O77311   5.484   3.570   7.687
25690WAT     H177312   5.431   3.562   7.771
25690WAT     H277313   5.492   3.480   7.643
25691WAT      O77314   3.659   2.333   0.724
25691WAT     H177315   3.626   2.338   0.630
25691WAT     H277316   3.584   2.355   0.786
25692WAT      O77317   4.346   9.244   9.412
25692WAT     H177318   4.446   9.246   9.410
25692WAT     H277319   4.316   9.192   9.492
25693WAT      O77320   4.071   2.996   8.999
25693WAT     H177321   3.981   3.036   8.986
25693WAT     H277322   4.127   3.013   8.918
25694WAT      O77323   9.350   1.314   6.118
25694WAT     H177324   9.350   1.407   6.080
25694WAT     H277325   9.444   1.286   6.138
25695WAT      O77326   2.529   1.930   6.628
25695WAT     H177327   2.616   1.945   6.581
25695WAT     H277328   2.499   2.015   6.671
25696WAT      O77329   4.965   0.246   0.946
25696WAT     H177330   4.872   0.271   0.971
25696WAT     H277331   5.007   0.193   1.020
25697WAT      O77332   1.200   4.069   4.887
25697WAT     H177333   1.102   4.084   4.893
25697WAT     H277334   1.245   4.151   4.852
25698WAT      O77335   5.196   9.090   1.058
25698WAT     H177336   5.275   9.151   1.055
25698WAT     H277337   5.113   9.144   1.071
25699WAT      O77338   0.163   1.427   4.635
25699WAT     H177339   0.226   1.352   4.657
25699WAT     H277340   0.085   1.424   4.699
25700WAT      O77341   7.139   2.131   6.428
25700WAT     H177342   7.226   2.180   6.419
25700WAT     H277343   7.064   2.197   6.432
25701WAT      O77344   1.378   2.674   2.341
25701WAT     H177345   1.443   2.599   2.351
25701WAT     H277346   1.426   2.757   2.311
25702WAT      O77347   0.811   5.916   2.688
25702WAT     H177348   0.719   5.895   2.723
25702WAT     H277349   0.825   5.866   2.602
25703WAT      O77350   7.263   6.187   6.511
25703WAT     H177351   7.309   6.206   6.598
25703WAT     H277352   7.252   6.088   6.501
25704WAT      O77353   2.651   3.079   0.120
25704WAT     H177354   2.598   3.129   0.188
25704WAT     H277355   2.747   3.077   0.147
25705WAT      O77356   1.537   5.408   3.541
25705WAT     H177357   1.547   5.336   3.472
25705WAT     H277358   1.456   5.463   3.520
25706WAT      O77359   1.105   8.585   8.959
25706WAT     H177360   1.089   8.665   9.017
25706WAT     H277361   1.018   8.545   8.931
25707WAT      O77362   9.448   0.667   9.199
25707WAT     H177363   9.486   0.625   9.281
25707WAT     H277364   9.349   0.649   9.195
25708WAT      O77365   6.956   8.449   1.695
25708WAT     H177366   6.983   8.352   1.695
25708WAT     H277367   6.860   8.456   1.721
25709WAT      O77368   5.970   6.277   2.376
25709WAT     H177369   6.033   6.352   2.393
25709WAT     H277370   5.906   6.302   2.304
25710WAT      O77371   7.147   8.219   1.620
25710WAT     H177372   7.178   8.164   1.542
25710WAT     H277373   7.060   8.185   1.653
25711WAT      O77374   4.354   2.694   5.831
25711WAT     H177375   4.355   2.721   5.735
25711WAT     H277376   4.398   2.764   5.886
25712WAT      O77377   4.737   9.415   4.520
25712WAT     H177378   4.790   9.331   4.535
25712WAT     H277379   4.640   9.392   4.514
25713WAT      O77380   2.438   4.983   8.083
25713WAT     H177381   2.450   5.026   8.173
25713WAT     H277382   2.450   5.052   8.012
25714WAT      O77383   9.640   9.738   6.801
25714WAT     H177384   9.571   9.811   6.801
25714WAT     H277385   9.607   9.660   6.853
25715WAT      O77386   0.505   9.327   7.079
25715WAT     H177387   0.485   9.326   7.177
25715WAT     H277388   0.566   9.404   7.058
25716WAT      O77389   1.087   9.556   4.793
25716WAT     H177390   0.994   9.545   4.827
25716WAT     H277391   1.145   9.484   4.832
25717WAT      O77392   6.322   2.480   6.202
25717WAT     H177393   6.231   2.443   6.182
25717WAT     H277394   6.325   2.511   6.297
25718WAT      O77395   8.893   6.339   6.934
25718WAT     H177396   8.939   6.267   6.882
25718WAT     H277397   8.803   6.356   6.894
25719WAT      O77398   6.264   2.032   4.831
25719WAT     H177399   6.183   2.008   4.885
25719WAT     H277400   6.252   2.001   4.737
25720WAT      O77401   3.702   3.107   7.088
25720WAT     H177402   3.795   3.087   7.118
25720WAT     H277403   3.637   3.062   7.150
25721WAT      O77404   8.826   0.868   6.087
25721WAT     H177405   8.729   0.853   6.109
25721WAT     H277406   8.874   0.780   6.094
25722WAT      O77407   0.873   1.191   8.100
25722WAT     H177408   0.840   1.108   8.055
25722WAT     H277409   0.934   1.167   8.176
25723WAT      O77410   1.829   9.531   5.757
25723WAT     H177411   1.763   9.476   5.705
25723WAT     H277412   1.921   9.498   5.739
25724WAT      O77413   5.525   1.254   2.558
25724WAT     H177414   5.469   1.256   2.476
25724WAT     H277415   5.582   1.336   2.561
25725WAT      O77416   5.381   5.453   9.420
25725WAT     H177417   5.356   5.448   9.517
25725WAT     H277418   5.298   5.451   9.364
25726WAT      O77419   8.900   0.559   7.801
25726WAT     H177420   8.984   0.607   7.779
25726WAT     H277421   8.863   0.516   7.718
25727WAT      O77422   6.201   4.361   7.932
25727WAT     H177423   6.103   4.346   7.949
25727WAT     H277424   6.244   4.274   7.907
25728WAT      O77425   2.908   2.088   7.176
25728WAT     H177426   2.904   2.127   7.084
25728WAT     H277427   2.824   2.109   7.225
25729WAT      O77428   3.613   9.394   7.423
25729WAT     H177429   3.577   9.445   7.345
25729WAT     H277430   3.551   9.318   7.444
25730WAT      O77431   1.779   3.538   6.805
25730WAT     H177432   1.840   3.520   6.882
25730WAT     H277433   1.684   3.534   6.836
25731WAT      O77434   9.830   7.445   2.226
25731WAT     H177435   9.928   7.432   2.235
25731WAT     H277436   9.795   7.388   2.152
25732WAT      O77437   3.427   8.382   3.440
25732WAT     H177438   3.510   8.390   3.495
25732WAT     H277439   3.405   8.285   3.427
25733WAT      O77440   4.125   1.192   6.402
25733WAT     H177441   4.206   1.201   6.343
25733WAT     H277442   4.043   1.199   6.346
25734WAT      O77443   3.765   8.152   8.026
25734WAT     H177444   3.814   8.238   8.012
25734WAT     H277445   3.774   8.095   7.944
25735WAT      O77446   7.363   0.818   9.679
25735WAT     H177447   7.306   0.800   9.759
25735WAT     H277448   7.314   0.789   9.597
25736WAT      O77449   5.409   4.156   2.260
25736WAT     H177450   5.370   4.242   2.226
25736WAT     H277451   5.421   4.162   2.359
25737WAT      O77452   7.888   8.946   6.153
25737WAT     H177453   7.845   8.866   6.111
25737WAT     H277454   7.878   8.941   6.253
25738WAT      O77455   8.797   2.475   2.275
25738WAT     H177456   8.857   2.540   2.322
25738WAT     H277457   8.846   2.389   2.260
25739WAT      O77458   7.720   9.202   9.756
25739WAT     H177459   7.679   9.125   9.708
25739WAT     H277460   7.732   9.279   9.693
25740WAT      O77461   5.963   3.093   4.854
25740WAT     H177462   6.003   3.021   4.910
25740WAT     H277463   6.020   3.107   4.772
25741WAT      O77464   3.673   1.090   5.156
25741WAT     H177465   3.725   1.033   5.221
25741WAT     H277466   3.606   1.144   5.206
25742WAT      O77467   2.621   7.446   2.206
25742WAT     H177468   2.672   7.532   2.216
25742WAT     H277469   2.524   7.467   2.200
25743WAT      O77470   6.181   9.560   4.398
25743WAT     H177471   6.136   9.471   4.384
25743WAT     H277472   6.280   9.547   4.399
25744WAT      O77473   6.038   6.187   0.941
25744WAT     H177474   6.038   6.087   0.938
25744WAT     H277475   5.986   6.222   0.863
25745WAT      O77476   5.292   9.832   8.119
25745WAT     H177477   5.333   9.779   8.045
25745WAT     H277478   5.244   9.911   8.082
25746WAT      O77479   3.036   8.076   4.919
25746WAT     H177480   3.024   8.029   4.832
25746WAT     H277481   2.954   8.065   4.975
25747WAT      O77482   9.044   5.825   0.502
25747WAT     H177483   9.009   5.808   0.410
25747WAT     H277484   9.140   5.853   0.496
25748WAT      O77485   4.111   9.282   9.257
25748WAT     H177486   4.202   9.280   9.299
25748WAT     H277487   4.083   9.376   9.243
25749WAT      O77488   1.660   1.893  -0.003
25749WAT     H177489   1.692   1.846   0.080
25749WAT     H277490   1.693   1.988  -0.002
25750WAT      O77491   3.021   6.226   1.427
25750WAT     H177492   3.081   6.285   1.373
25750WAT     H277493   2.927   6.257   1.417
25751WAT      O77494   4.413   1.460   0.002
25751WAT     H177495   4.446   1.432  -0.089
25751WAT     H277496   4.445   1.395   0.070
25752WAT      O77497   5.939   3.942   5.527
25752WAT     H177498   5.890   3.999   5.593
25752WAT     H277499   5.877   3.913   5.455
25753WAT      O77500   2.556   3.663   2.844
25753WAT     H177501   2.482   3.676   2.910
25753WAT     H277502   2.609   3.748   2.836
25754WAT      O77503   9.068   8.672   6.001
25754WAT     H177504   8.978   8.716   5.995
25754WAT     H277505   9.087   8.626   5.914
25755WAT      O77506   1.595   4.549   2.607
25755WAT     H177507   1.672   4.591   2.558
25755WAT     H277508   1.527   4.619   2.629
25756WAT      O77509   1.768   3.786   1.371
25756WAT     H177510   1.868   3.785   1.377
25756WAT     H277511   1.740   3.778   1.276
25757WAT      O77512   2.615   6.687   6.347
25757WAT     H177513   2.645   6.727   6.433
25757WAT     H277514   2.548   6.747   6.303
25758WAT      O77515   1.814   8.504   8.170
25758WAT     H177516   1.894   8.465   8.124
25758WAT     H277517   1.757   8.430   8.205
25759WAT      O77518   3.356   6.428   5.441
25759WAT     H177519   3.377   6.383   5.355
25759WAT     H277520   3.258   6.424   5.459
25760WAT      O77521   1.267   4.168   3.680
25760WAT     H177522   1.222   4.248   3.717
25760WAT     H277523   1.364   4.187   3.668
25761WAT      O77524   1.423   8.975   8.118
25761WAT     H177525   1.509   8.923   8.115
25761WAT     H277526   1.443   9.072   8.104
25762WAT      O77527   8.614   7.722   3.467
25762WAT     H177528   8.622   7.652   3.396
25762WAT     H277529   8.548   7.791   3.439
25763WAT      O77530   6.083   6.110   8.832
25763WAT     H177531   6.052   6.204   8.845
25763WAT     H277532   6.059   6.056   8.912
25764WAT      O77533   7.158   3.508   8.348
25764WAT     H177534   7.133   3.512   8.444
25764WAT     H277535   7.256   3.527   8.338
25765WAT      O77536   9.729   4.284   3.709
25765WAT     H177537   9.725   4.333   3.621
25765WAT     H277538   9.703   4.346   3.783
25766WAT      O77539   7.862   3.626   3.615
25766WAT     H177540   7.820   3.679   3.541
25766WAT     H277541   7.851   3.529   3.597
25767WAT      O77542   2.915   5.022   2.840
25767WAT     H177543   2.967   5.022   2.754
25767WAT     H277544   2.873   4.932   2.852
25768WAT      O77545   3.009   5.986   8.312
25768WAT     H177546   3.036   6.001   8.407
25768WAT     H277547   3.067   5.915   8.272
25769WAT      O77548   4.779   5.848   7.942
25769WAT     H177549   4.836   5.882   8.017
25769WAT     H277550   4.720   5.921   7.908
25770WAT      O77551   0.569   2.107   7.687
25770WAT     H177552   0.530   2.097   7.595
25770WAT     H277553   0.571   2.204   7.712
25771WAT      O77554   9.075   0.530   1.697
25771WAT     H177555   9.161   0.531   1.746
25771WAT     H277556   9.056   0.621   1.659
25772WAT      O77557   6.951   0.709   2.816
25772WAT     H177558   6.869   0.672   2.860
25772WAT     H277559   6.926   0.749   2.728
25773WAT      O77560   9.547   2.706   4.338
25773WAT     H177561   9.531   2.792   4.291
25773WAT     H277562   9.645   2.694   4.353
25774WAT      O77563   9.630   5.141   5.317
25774WAT     H177564   9.679   5.136   5.404
25774WAT     H277565   9.551   5.079   5.319
25775WAT      O77566   2.499   0.780   2.798
25775WAT     H177567   2.431   0.726   2.847
25775WAT     H277568   2.466   0.875   2.789
25776WAT      O77569   4.534   7.121   7.690
25776WAT     H177570   4.538   7.061   7.611
25776WAT     H277571   4.462   7.189   7.677
25777WAT      O77572   7.236   9.195   4.412
25777WAT     H177573   7.216   9.231   4.321
25777WAT     H277574   7.160   9.140   4.445
25778WAT      O77575   8.916   1.071   3.421
25778WAT     H177576   8.916   0.996   3.355
25778WAT     H277577   9.006   1.114   3.424
25779WAT      O77578   6.261   7.140   5.773
25779WAT     H177579   6.355   7.111   5.790
25779WAT     H277580   6.214   7.153   5.860
25780WAT      O77581   8.610   8.272   9.672
25780WAT     H177582   8.603   8.176   9.699
25780WAT     H277583   8.704   8.305   9.687
25781WAT      O77584   7.671   1.040   5.136
25781WAT     H177585   7.589   1.074   5.091
25781WAT     H277586   7.651   1.021   5.233
25782WAT      O77587   6.581   5.419   0.541
25782WAT     H177588   6.673   5.455   0.529
25782WAT     H277589   6.568   5.388   0.635
25783WAT      O77590   2.780   3.797   1.881
25783WAT     H177591   2.711   3.863   1.911
25783WAT     H277592   2.784   3.721   1.946
25784WAT      O77593   0.469   8.908   6.005
25784WAT     H177594   0.380   8.898   6.048
25784WAT     H277595   0.539   8.921   6.076
25785WAT      O77596   1.253   7.855   2.136
25785WAT     H177597   1.293   7.835   2.046
25785WAT     H277598   1.156   7.876   2.125
25786WAT      O77599   5.033   2.478   5.667
25786WAT     H177600   5.108   2.543   5.674
25786WAT     H277601   4.976   2.484   5.749
25787WAT      O77602   3.638   3.485   0.444
25787WAT     H177603   3.729   3.522   0.463
25787WAT     H277604   3.631   3.393   0.481
25788WAT      O77605   8.115   0.145   3.195
25788WAT     H177606   8.195   0.085   3.207
25788WAT     H277607   8.040   0.111   3.252
25789WAT      O77608   7.055   2.107   4.353
25789WAT     H177609   6.992   2.129   4.428
25789WAT     H277610   7.004   2.094   4.269
25790WAT      O77611   9.563   8.223   5.500
25790WAT     H177612   9.627   8.226   5.423
25790WAT     H277613   9.477   8.267   5.473
25791WAT      O77614   1.648   5.893   0.130
25791WAT     H177615   1.739   5.916   0.096
25791WAT     H277616   1.579   5.936   0.072
25792WAT      O77617   1.726   0.449   8.668
25792WAT     H177618   1.754   0.513   8.596
25792WAT     H277619   1.643   0.482   8.712
25793WAT      O77620   9.271   8.663   5.609
25793WAT     H177621   9.334   8.639   5.535
25793WAT     H277622   9.323   8.695   5.688
25794WAT      O77623   6.712   2.450   3.272
25794WAT     H177624   6.622   2.492   3.260
25794WAT     H277625   6.705   2.377   3.340
25795WAT      O77626   1.254   7.960   8.498
25795WAT     H177627   1.294   8.045   8.534
25795WAT     H277628   1.318   7.918   8.433
25796WAT      O77629   6.353   8.509   0.595
25796WAT     H177630   6.355   8.410   0.607
25796WAT     H277631   6.363   8.553   0.684
25797WAT      O77632   1.281   3.920   1.954
25797WAT     H177633   1.335   3.920   2.038
25797WAT     H277634   1.218   3.842   1.955
25798WAT      O77635   5.309   9.613   0.728
25798WAT     H177636   5.327   9.710   0.710
25798WAT     H277637   5.348   9.588   0.816
25799WAT      O77638   6.565   8.067   0.375
25799WAT     H177639   6.465   8.079   0.371
25799WAT     H277640   6.586   7.971   0.391
25800WAT      O77641   7.228   2.952   7.454
25800WAT     H177642   7.323   2.927   7.475
25800WAT     H277643   7.221   3.051   7.442
25801WAT      O77644   7.906   6.477   4.414
25801WAT     H177645   7.916   6.378   4.400
25801WAT     H277646   7.853   6.515   4.338
25802WAT      O77647   4.712   4.810   0.716
25802WAT     H177648   4.714   4.764   0.627
25802WAT     H277649   4.800   4.855   0.732
25803WAT      O77650   7.303   3.387   8.734
25803WAT     H177651   7.337   3.379   8.828
25803WAT     H277652   7.375   3.427   8.677
25804WAT      O77653   5.198   7.064   9.614
25804WAT     H177654   5.149   7.124   9.551
25804WAT     H277655   5.138   6.990   9.643
25805WAT      O77656   8.109   5.905   8.443
25805WAT     H177657   8.157   5.916   8.529
25805WAT     H277658   8.100   5.808   8.421
25806WAT      O77659   7.906   8.995   4.632
25806WAT     H177660   7.887   8.969   4.538
25806WAT     H277661   7.854   9.078   4.655
25807WAT      O77662   4.489   8.927   2.463
25807WAT     H177663   4.398   8.967   2.458
25807WAT     H277664   4.484   8.830   2.438
25808WAT      O77665   1.964   0.664   0.749
25808WAT     H177666   2.029   0.608   0.697
25808WAT     H277667   1.929   0.611   0.826
25809WAT      O77668   8.477   7.178   1.048
25809WAT     H177669   8.470   7.274   1.074
25809WAT     H277670   8.398   7.152   0.993
25810WAT      O77671   6.130   7.108   1.994
25810WAT     H177672   6.218   7.147   2.021
25810WAT     H277673   6.115   7.124   1.897
25811WAT      O77674   0.844   5.595   4.762
25811WAT     H177675   0.781   5.593   4.840
25811WAT     H277676   0.819   5.670   4.701
25812WAT      O77677   8.116   2.882   4.557
25812WAT     H177678   8.027   2.886   4.602
25812WAT     H277679   8.113   2.814   4.483
25813WAT      O77680   7.946   3.123   5.591
25813WAT     H177681   7.954   3.128   5.691
25813WAT     H277682   7.849   3.128   5.565
25814WAT      O77683   8.009   6.609   2.277
25814WAT     H177684   8.090   6.635   2.330
25814WAT     H277685   8.032   6.536   2.213
25815WAT      O77686   2.438   3.817   0.371
25815WAT     H177687   2.482   3.794   0.458
25815WAT     H277688   2.506   3.813   0.297
25816WAT      O77689   5.159   0.914   1.661
25816WAT     H177690   5.259   0.913   1.661
25816WAT     H277691   5.126   0.843   1.724
25817WAT      O77692   1.344   4.442   1.591
25817WAT     H177693   1.415   4.420   1.658
25817WAT     H277694   1.387   4.477   1.508
25818WAT      O77695   6.387   4.868   8.405
25818WAT     H177696   6.352   4.782   8.371
25818WAT     H277697   6.349   4.886   8.496
25819WAT      O77698   2.120   7.132   2.699
25819WAT     H177699   2.095   7.122   2.795
25819WAT     H277700   2.038   7.156   2.646
25820WAT      O77701   4.180   4.167   8.267
25820WAT     H177702   4.238   4.174   8.186
25820WAT     H277703   4.150   4.072   8.279
25821WAT      O77704   7.674   8.872   2.200
25821WAT     H177705   7.774   8.882   2.198
25821WAT     H277706   7.635   8.944   2.257
25822WAT      O77707   1.784   2.138   0.035
25822WAT     H177708   1.869   2.112   0.080
25822WAT     H277709   1.793   2.230  -0.003
25823WAT      O77710   6.544   5.160   3.681
25823WAT     H177711   6.460   5.170   3.627
25823WAT     H277712   6.553   5.239   3.742
25824WAT      O77713   0.959   1.567   5.044
25824WAT     H177714   0.900   1.615   4.979
25824WAT     H277715   0.908   1.549   5.128
25825WAT      O77716   4.985   0.274   5.209
25825WAT     H177717   4.986   0.175   5.200
25825WAT     H277718   5.078   0.309   5.218
25826WAT      O77719   8.907   7.308   5.803
25826WAT     H177720   8.815   7.295   5.841
25826WAT     H277721   8.905   7.292   5.705
25827WAT      O77722   2.173   0.497   0.544
25827WAT     H177723   2.214   0.531   0.629
25827WAT     H277724   2.210   0.547   0.467
25828WAT      O77725   7.192   9.455   9.372
25828WAT     H177726   7.237   9.369   9.347
25828WAT     H277727   7.116   9.473   9.309
25829WAT      O77728   8.970   0.823   3.274
25829WAT     H177729   9.060   0.858   3.249
25829WAT     H277730   8.911   0.819   3.193
25830WAT      O77731   0.113   3.475   6.692
25830WAT     H177732   0.126   3.551   6.628
25830WAT     H277733   0.062   3.508   6.772
25831WAT      O77734   1.966   6.467   8.179
25831WAT     H177735   1.963   6.419   8.268
25831WAT     H277736   1.973   6.399   8.106
25832WAT      O77737   9.109   5.117   8.364
25832WAT     H177738   9.106   5.107   8.264
25832WAT     H277739   9.074   5.208   8.389
25833WAT      O77740   0.066   4.207   5.680
25833WAT     H177741   0.118   4.252   5.752
25833WAT     H277742  -0.009   4.267   5.651
25834WAT      O77743   1.563   4.200   4.235
25834WAT     H177744   1.611   4.114   4.217
25834WAT     H277745   1.610   4.250   4.308
25835WAT      O77746   5.391   1.798   5.365
25835WAT     H177747   5.411   1.708   5.326
25835WAT     H277748   5.399   1.868   5.295
25836WAT      O77749   7.668   4.968   0.354
25836WAT     H177750   7.744   4.907   0.333
25836WAT     H277751   7.703   5.059   0.376
25837WAT      O77752   3.784   0.630   2.437
25837WAT     H177753   3.788   0.539   2.477
25837WAT     H277754   3.771   0.698   2.509
25838WAT      O77755   3.646   7.824   2.604
25838WAT     H177756   3.569   7.812   2.667
25838WAT     H277757   3.720   7.870   2.652
25839WAT      O77758   9.076   5.312   5.419
25839WAT     H177759   9.093   5.216   5.442
25839WAT     H277760   9.134   5.339   5.343
25840WAT      O77761   7.097   3.038   8.440
25840WAT     H177762   7.054   2.985   8.513
25840WAT     H277763   7.191   3.006   8.427
25841WAT      O77764   0.840   8.945   8.283
25841WAT     H177765   0.931   8.940   8.324
25841WAT     H277766   0.847   8.932   8.184
25842WAT      O77767   4.276   2.983   1.440
25842WAT     H177768   4.367   3.016   1.412
25842WAT     H277769   4.285   2.930   1.524
25843WAT      O77770   5.010   6.438   3.699
25843WAT     H177771   4.966   6.506   3.757
25843WAT     H277772   4.983   6.346   3.729
25844WAT      O77773   5.563   2.295   3.519
25844WAT     H177774   5.571   2.230   3.594
25844WAT     H277775   5.467   2.304   3.493
25845WAT      O77776   3.094   6.037   9.030
25845WAT     H177777   3.026   5.980   9.075
25845WAT     H277778   3.054   6.081   8.950
25846WAT      O77779   5.618   0.617   1.829
25846WAT     H177780   5.631   0.526   1.789
25846WAT     H277781   5.521   0.642   1.825
25847WAT      O77782   7.526   6.049   9.633
25847WAT     H177783   7.441   6.045   9.580
25847WAT     H277784   7.600   6.081   9.574
25848WAT      O77785   5.874   8.636   1.255
25848WAT     H177786   5.941   8.706   1.231
25848WAT     H277787   5.826   8.663   1.338
25849WAT      O77788   6.406   0.047   4.166
25849WAT     H177789   6.364   0.098   4.242
25849WAT     H277790   6.345  -0.027   4.138
25850WAT      O77791   8.338   3.670   5.251
25850WAT     H177792   8.329   3.599   5.320
25850WAT     H277793   8.429   3.666   5.210
25851WAT      O77794   4.632   2.755   1.241
25851WAT     H177795   4.587   2.801   1.318
25851WAT     H277796   4.564   2.731   1.172
25852WAT      O77797   9.714   6.716   7.937
25852WAT     H177798   9.813   6.735   7.939
25852WAT     H277799   9.684   6.705   7.842
25853WAT      O77800   6.357   7.612   3.858
25853WAT     H177801   6.362   7.512   3.857
25853WAT     H277802   6.353   7.644   3.952
25854WAT      O77803   4.939   9.545   7.861
25854WAT     H177804   4.919   9.465   7.919
25854WAT     H277805   4.936   9.628   7.917
25855WAT      O77806   2.524   4.957   9.602
25855WAT     H177807   2.443   4.922   9.555
25855WAT     H277808   2.606   4.917   9.561
25856WAT      O77809   4.008   4.263   9.395
25856WAT     H177810   3.979   4.179   9.348
25856WAT     H277811   3.969   4.266   9.487
25857WAT      O77812   4.843   3.002   0.032
25857WAT     H177813   4.784   3.063  -0.021
25857WAT     H277814   4.796   2.916   0.048
25858WAT      O77815   8.177   2.610   2.043
25858WAT     H177816   8.250   2.576   1.985
25858WAT     H277817   8.170   2.709   2.032
25859WAT      O77818   3.620   7.633   9.402
25859WAT     H177819   3.704   7.603   9.447
25859WAT     H277820   3.623   7.609   9.306
25860WAT      O77821   9.009   4.517   0.212
25860WAT     H177822   9.073   4.592   0.231
25860WAT     H277823   8.927   4.527   0.268
25861WAT      O77824   5.849   1.250   2.484
25861WAT     H177825   5.799   1.313   2.544
25861WAT     H277826   5.838   1.279   2.389
25862WAT      O77827   8.987   1.012   5.023
25862WAT     H177828   9.006   0.916   5.003
25862WAT     H277829   8.958   1.021   5.118
25863WAT      O77830   5.938   6.056   1.652
25863WAT     H177831   6.026   6.084   1.688
25863WAT     H277832   5.949   6.020   1.559
25864WAT      O77833   2.128   4.954   9.494
25864WAT     H177834   2.072   5.037   9.495
25864WAT     H277835   2.070   4.874   9.478
25865WAT      O77836   9.254   5.089   2.216
25865WAT     H177837   9.266   5.007   2.160
25865WAT     H277838   9.176   5.077   2.277
25866WAT      O77839   1.026   1.574   6.096
25866WAT     H177840   1.113   1.618   6.074
25866WAT     H277841   0.978   1.627   6.165
25867WAT      O77842   2.229   1.867   3.107
25867WAT     H177843   2.145   1.858   3.161
25867WAT     H277844   2.289   1.934   3.149
25868WAT      O77845   0.419   4.887   1.009
25868WAT     H177846   0.460   4.906   0.920
25868WAT     H277847   0.478   4.924   1.081
25869WAT      O77848   1.188   9.339   8.328
25869WAT     H177849   1.209   9.376   8.418
25869WAT     H277850   1.240   9.255   8.313
25870WAT      O77851   4.702   0.101   0.392
25870WAT     H177852   4.665   0.183   0.349
25870WAT     H277853   4.795   0.119   0.423
25871WAT      O77854   0.396   6.506   0.459
25871WAT     H177855   0.343   6.525   0.376
25871WAT     H277856   0.341   6.451   0.522
25872WAT      O77857   6.808   8.264   3.841
25872WAT     H177858   6.762   8.346   3.877
25872WAT     H277859   6.805   8.192   3.911
25873WAT      O77860   3.563   1.294   0.224
25873WAT     H177861   3.487   1.275   0.286
25873WAT     H277862   3.528   1.337   0.141
25874WAT      O77863   5.523   9.765   5.063
25874WAT     H177864   5.442   9.824   5.064
25874WAT     H277865   5.517   9.703   4.984
25875WAT      O77866   0.550   9.805   3.099
25875WAT     H177867   0.565   9.816   3.197
25875WAT     H277868   0.549   9.708   3.075
25876WAT      O77869   1.142   8.189   2.321
25876WAT     H177870   1.205   8.117   2.352
25876WAT     H277871   1.157   8.207   2.224
25877WAT      O77872   4.954   1.841   6.243
25877WAT     H177873   4.925   1.745   6.246
25877WAT     H277874   4.877   1.900   6.267
25878WAT      O77875   8.439   3.777   1.321
25878WAT     H177876   8.481   3.865   1.300
25878WAT     H277877   8.508   3.705   1.314
25879WAT      O77878   4.019   5.273   3.899
25879WAT     H177879   4.025   5.284   3.800
25879WAT     H277880   4.015   5.176   3.922
25880WAT      O77881   4.613   7.798   2.997
25880WAT     H177882   4.669   7.805   3.079
25880WAT     H277883   4.553   7.877   2.990
25881WAT      O77884   6.896   2.417   4.540
25881WAT     H177885   6.842   2.413   4.456
25881WAT     H277886   6.836   2.433   4.618
25882WAT      O77887   4.473   1.273   3.739
25882WAT     H177888   4.490   1.320   3.653
25882WAT     H277889   4.549   1.291   3.802
25883WAT      O77890   5.834   3.366   7.635
25883WAT     H177891   5.826   3.428   7.557
25883WAT     H277892   5.888   3.408   7.707
25884WAT      O77893   9.632   3.906   1.855
25884WAT     H177894   9.605   3.845   1.781
25884WAT     H277895   9.656   3.852   1.936
25885WAT      O77896   7.935   4.190   3.301
25885WAT     H177897   7.842   4.207   3.332
25885WAT     H277898   7.990   4.273   3.311
25886WAT      O77899   9.675   2.505   8.335
25886WAT     H177900   9.676   2.407   8.315
25886WAT     H277901   9.715   2.556   8.259
25887WAT      O77902   5.976   3.083   5.945
25887WAT     H177903   6.009   3.020   6.015
25887WAT     H277904   6.047   3.096   5.876
25888WAT      O77905   2.715   8.432   0.788
25888WAT     H177906   2.621   8.405   0.813
25888WAT     H277907   2.777   8.406   0.861
25889WAT      O77908   8.781   1.880   6.088
25889WAT     H177909   8.825   1.791   6.077
25889WAT     H277910   8.785   1.907   6.184
25890WAT      O77911   0.481   2.951   6.250
25890WAT     H177912   0.445   2.990   6.335
25890WAT     H277913   0.428   2.985   6.172
25891WAT      O77914   3.599   5.013   4.411
25891WAT     H177915   3.593   4.936   4.347
25891WAT     H277916   3.625   5.095   4.361
25892WAT      O77917   9.533   4.063   7.189
25892WAT     H177918   9.600   3.994   7.214
25892WAT     H277919   9.566   4.154   7.216
25893WAT      O77920   9.124   3.072   7.174
25893WAT     H177921   9.091   3.112   7.259
25893WAT     H277922   9.078   2.984   7.158
25894WAT      O77923   7.126   8.390   6.373
25894WAT     H177924   7.139   8.447   6.454
25894WAT     H277925   7.052   8.427   6.317
25895WAT      O77926   7.291   8.673   9.470
25895WAT     H177927   7.377   8.706   9.431
25895WAT     H277928   7.289   8.691   9.568
25896WAT      O77929   8.661   6.040   5.924
25896WAT     H177930   8.660   6.134   5.956
25896WAT     H277931   8.719   5.984   5.985
25897WAT      O77932   5.697   7.297   4.873
25897WAT     H177933   5.729   7.273   4.965
25897WAT     H277934   5.753   7.248   4.805
25898WAT      O77935   1.701   5.326   1.586
25898WAT     H177936   1.784   5.331   1.642
25898WAT     H277937   1.629   5.280   1.638
25899WAT      O77938   6.427   3.050   5.719
25899WAT     H177939   6.453   2.977   5.783
25899WAT     H277940   6.508   3.079   5.667
25900WAT      O77941   5.220   7.806   3.668
25900WAT     H177942   5.165   7.772   3.744
25900WAT     H277943   5.189   7.897   3.641
25901WAT      O77944   1.559   2.697   3.335
25901WAT     H177945   1.546   2.676   3.432
25901WAT     H277946   1.538   2.793   3.318
25902WAT      O77947   5.909   1.380   9.417
25902WAT     H177948   5.978   1.406   9.485
25902WAT     H277949   5.873   1.289   9.439
25903WAT      O77950   2.611   9.431   4.922
25903WAT     H177951   2.658   9.436   5.010
25903WAT     H277952   2.562   9.344   4.916
25904WAT      O77953   9.647   0.583   6.420
25904WAT     H177954   9.693   0.576   6.332
25904WAT     H277955   9.710   0.553   6.492
25905WAT      O77956   1.848   2.468   0.902
25905WAT     H177957   1.828   2.554   0.856
25905WAT     H277958   1.871   2.399   0.833
25906WAT      O77959   2.243   0.094   4.598
25906WAT     H177960   2.286   0.114   4.687
25906WAT     H277961   2.230   0.180   4.548
25907WAT      O77962   9.490   4.640   1.051
25907WAT     H177963   9.536   4.719   1.010
25907WAT     H277964   9.512   4.636   1.149
25908WAT      O77965   0.391   7.843   9.271
25908WAT     H177966   0.444   7.850   9.186
25908WAT     H277967   0.295   7.864   9.253
25909WAT      O77968   0.973   8.248   8.015
25909WAT     H177969   0.915   8.167   8.013
25909WAT     H277970   1.020   8.253   8.103
25910WAT      O77971   7.310   7.148   5.649
25910WAT     H177972   7.219   7.189   5.649
25910WAT     H277973   7.335   7.123   5.743
25911WAT      O77974   0.404   5.336   1.782
25911WAT     H177975   0.435   5.284   1.702
25911WAT     H277976   0.469   5.410   1.801
25912WAT      O77977   4.537   1.183   7.608
25912WAT     H177978   4.567   1.232   7.525
25912WAT     H277979   4.602   1.110   7.629
25913WAT      O77980   3.886   9.741   6.448
25913WAT     H177981   3.923   9.649   6.440
25913WAT     H277982   3.958   9.808   6.427
25914WAT      O77983   3.563   9.682   7.497
25914WAT     H177984   3.469   9.686   7.463
25914WAT     H277985   3.563   9.640   7.588
25915WAT      O77986   5.553   7.292   3.305
25915WAT     H177987   5.594   7.204   3.282
25915WAT     H277988   5.525   7.339   3.221
25916WAT      O77989   9.019   0.729   1.079
25916WAT     H177990   9.115   0.724   1.052
25916WAT     H277991   8.966   0.774   1.007
25917WAT      O77992   7.332   3.996   1.984
25917WAT     H177993   7.272   4.054   2.040
25917WAT     H277994   7.427   4.022   1.999
25918WAT      O77995   6.485   2.330   3.802
25918WAT     H177996   6.576   2.372   3.804
25918WAT     H277997   6.493   2.233   3.825
25919WAT      O77998   3.519   5.810   4.565
25919WAT     H177999   3.572   5.894   4.570
25919WAT     H278000   3.428   5.826   4.604
25920WAT      O78001   9.886   7.166   9.545
25920WAT     H178002   9.864   7.259   9.576
25920WAT     H278003   9.903   7.167   9.446
25921WAT      O78004   7.960   4.889   5.485
25921WAT     H178005   7.925   4.816   5.543
25921WAT     H278006   7.994   4.964   5.541
25922WAT      O78007   3.311   4.262   2.943
25922WAT     H178008   3.269   4.224   3.026
25922WAT     H278009   3.376   4.333   2.968
25923WAT      O78010   6.207   9.541   8.405
25923WAT     H178011   6.288   9.505   8.359
25923WAT     H278012   6.159   9.604   8.344
25924WAT      O78013   8.783   2.336   9.796
25924WAT     H178014   8.727   2.336   9.713
25924WAT     H278015   8.740   2.277   9.864
25925WAT      O78016   3.838   6.105   0.519
25925WAT     H178017   3.846   6.036   0.590
25925WAT     H278018   3.848   6.062   0.429
25926WAT      O78019   2.061   3.710   3.694
25926WAT     H178020   1.966   3.739   3.682
25926WAT     H278021   2.072   3.670   3.785
25927WAT      O78022   1.777   3.572   9.301
25927WAT     H178023   1.822   3.482   9.297
25927WAT     H278024   1.847   3.644   9.296
25928WAT      O78025   8.734   3.358   8.073
25928WAT     H178026   8.736   3.284   8.140
25928WAT     H278027   8.645   3.361   8.029
25929WAT      O78028   8.779   9.515   7.633
25929WAT     H178029   8.762   9.452   7.709
25929WAT     H278030   8.877   9.523   7.617
25930WAT      O78031   0.235   7.649   7.350
25930WAT     H178032   0.147   7.601   7.342
25930WAT     H278033   0.300   7.608   7.286
25931WAT      O78034   6.263   8.532   4.286
25931WAT     H178035   6.240   8.608   4.347
25931WAT     H278036   6.202   8.533   4.207
25932WAT      O78037   1.560   5.359   9.412
25932WAT     H178038   1.517   5.444   9.382
25932WAT     H278039   1.568   5.297   9.333
25933WAT      O78040   0.662   7.512   4.820
25933WAT     H178041   0.706   7.574   4.886
25933WAT     H278042   0.619   7.437   4.870
25934WAT      O78043   3.094   3.353   7.690
25934WAT     H178044   3.033   3.356   7.611
25934WAT     H278045   3.055   3.294   7.761
25935WAT      O78046   6.885   3.128   0.247
25935WAT     H178047   6.956   3.105   0.314
25935WAT     H278048   6.827   3.201   0.283
25936WAT      O78049   9.024   2.864   3.535
25936WAT     H178050   9.072   2.874   3.448
25936WAT     H278051   8.959   2.789   3.529
25937WAT      O78052   1.435   3.866   2.199
25937WAT     H178053   1.515   3.926   2.187
25937WAT     H278054   1.464   3.778   2.236
25938WAT      O78055   7.848   4.765   0.304
25938WAT     H178056   7.794   4.681   0.308
25938WAT     H278057   7.928   4.751   0.247
25939WAT      O78058   8.519   4.776   3.853
25939WAT     H178059   8.448   4.835   3.813
25939WAT     H278060   8.555   4.715   3.783
25940WAT      O78061   7.043   5.155   5.729
25940WAT     H178062   7.004   5.132   5.640
25940WAT     H278063   7.143   5.149   5.725
25941WAT      O78064   3.455   6.454   4.682
25941WAT     H178065   3.431   6.407   4.597
25941WAT     H278066   3.441   6.394   4.760
25942WAT      O78067   9.154   6.178   3.849
25942WAT     H178068   9.089   6.158   3.776
25942WAT     H278069   9.198   6.093   3.878
25943WAT      O78070   4.976   0.599   7.479
25943WAT     H178071   5.063   0.647   7.493
25943WAT     H278072   4.912   0.660   7.431
25944WAT      O78073   5.842   0.377   0.028
25944WAT     H178074   5.865   0.406   0.121
25944WAT     H278075   5.799   0.287   0.030
25945WAT      O78076   3.974   9.675   5.128
25945WAT     H178077   3.930   9.701   5.213
25945WAT     H278078   4.073   9.667   5.142
25946WAT      O78079   3.610   3.389   1.535
25946WAT     H178080   3.520   3.412   1.572
25946WAT     H278081   3.627   3.442   1.452
25947WAT      O78082   6.844   8.822   7.252
25947WAT     H178083   6.747   8.836   7.234
25947WAT     H278084   6.856   8.748   7.319
25948WAT      O78085   2.789   7.461   6.735
25948WAT     H178086   2.779   7.539   6.673
25948WAT     H278087   2.699   7.438   6.773
25949WAT      O78088   8.270   0.584   2.690
25949WAT     H178089   8.253   0.642   2.770
25949WAT     H278090   8.342   0.625   2.634
25950WAT      O78091   7.211   3.864   5.527
25950WAT     H178092   7.310   3.856   5.541
25950WAT     H278093   7.164   3.851   5.615
25951WAT      O78094   0.128   5.735   4.278
25951WAT     H178095   0.193   5.721   4.203
25951WAT     H278096   0.079   5.821   4.265
25952WAT      O78097   5.724   7.927   8.136
25952WAT     H178098   5.660   7.908   8.210
25952WAT     H278099   5.802   7.864   8.142
25953WAT      O78100   3.105   5.379   4.866
25953WAT     H178101   3.125   5.313   4.793
25953WAT     H278102   3.190   5.417   4.900
25954WAT      O78103   5.683   3.731   6.885
25954WAT     H178104   5.646   3.735   6.792
25954WAT     H278105   5.720   3.640   6.903
25955WAT      O78106   0.634   6.166   4.678
25955WAT     H178107   0.607   6.172   4.582
25955WAT     H278108   0.608   6.076   4.714
25956WAT      O78109   3.736   5.238   3.630
25956WAT     H178110   3.834   5.259   3.637
25956WAT     H278111   3.722   5.142   3.654
25957WAT      O78112   2.200   7.900   5.767
25957WAT     H178113   2.275   7.881   5.704
25957WAT     H278114   2.205   7.994   5.798
25958WAT      O78115   5.360   5.959   9.483
25958WAT     H178116   5.340   5.865   9.510
25958WAT     H278117   5.343   6.021   9.560
25959WAT      O78118   0.084   2.369   9.065
25959WAT     H178119   0.064   2.412   8.977
25959WAT     H278120   0.040   2.279   9.069
25960WAT      O78121   3.662   4.136   2.967
25960WAT     H178122   3.715   4.052   2.981
25960WAT     H278123   3.655   4.186   3.053
25961WAT      O78124   1.972   2.199   4.683
25961WAT     H178125   2.040   2.202   4.610
25961WAT     H278126   1.963   2.289   4.725
25962WAT      O78127   2.723   5.629   9.716
25962WAT     H178128   2.720   5.545   9.661
25962WAT     H278129   2.766   5.702   9.662
25963WAT      O78130   5.620   9.556   6.998
25963WAT     H178131   5.654   9.561   7.092
25963WAT     H278132   5.592   9.647   6.968
25964WAT      O78133   0.452   9.275   7.341
25964WAT     H178134   0.480   9.181   7.321
25964WAT     H278135   0.359   9.274   7.379
25965WAT      O78136   1.784   7.052   0.550
25965WAT     H178137   1.817   7.145   0.563
25965WAT     H278138   1.856   6.987   0.573
25966WAT      O78139   7.082   9.537   4.513
25966WAT     H178140   7.132   9.622   4.527
25966WAT     H278141   7.089   9.509   4.418
25967WAT      O78142   6.106   3.678   4.196
25967WAT     H178143   6.112   3.658   4.294
25967WAT     H278144   6.096   3.592   4.145
25968WAT      O78145   8.678   7.694   5.468
25968WAT     H178146   8.662   7.680   5.566
25968WAT     H278147   8.618   7.765   5.434
25969WAT      O78148   2.701   1.592   6.704
25969WAT     H178149   2.759   1.562   6.780
25969WAT     H278150   2.629   1.652   6.739
25970WAT      O78151   3.558   7.552   7.342
25970WAT     H178152   3.658   7.549   7.351
25970WAT     H278153   3.534   7.555   7.245
25971WAT      O78154   6.281   7.383   2.322
25971WAT     H178155   6.340   7.380   2.242
25971WAT     H278156   6.263   7.290   2.354
25972WAT      O78157   2.898   3.309   8.976
25972WAT     H178158   2.842   3.285   9.055
25972WAT     H278159   2.862   3.264   8.894
25973WAT      O78160   6.710   4.597   8.585
25973WAT     H178161   6.783   4.533   8.609
25973WAT     H278162   6.749   4.676   8.539
25974WAT      O78163   0.483   6.024   1.704
25974WAT     H178164   0.407   6.037   1.640
25974WAT     H278165   0.492   6.106   1.761
25975WAT      O78166   7.199   0.589   5.927
25975WAT     H178167   7.190   0.593   5.827
25975WAT     H278168   7.109   0.579   5.968
25976WAT      O78169   3.576   3.771   8.517
25976WAT     H178170   3.560   3.691   8.459
25976WAT     H278171   3.592   3.851   8.460
25977WAT      O78172   5.187   6.174   3.622
25977WAT     H178173   5.147   6.225   3.547
25977WAT     H278174   5.116   6.121   3.668
25978WAT      O78175   8.629   7.544   2.386
25978WAT     H178176   8.536   7.519   2.362
25978WAT     H278177   8.691   7.523   2.310
25979WAT      O78178   4.308   6.784   3.178
25979WAT     H178179   4.346   6.877   3.180
25979WAT     H278180   4.379   6.719   3.206
25980WAT      O78181   4.018   9.663   6.745
25980WAT     H178182   4.086   9.594   6.767
25980WAT     H278183   4.054   9.754   6.767
25981WAT      O78184   6.046   2.236   3.753
25981WAT     H178185   6.138   2.196   3.751
25981WAT     H278186   6.044   2.314   3.815
25982WAT      O78187   7.142   7.846   0.368
25982WAT     H178188   7.098   7.865   0.280
25982WAT     H278189   7.074   7.809   0.432
25983WAT      O78190   2.266   8.527   2.609
25983WAT     H178191   2.194   8.493   2.547
25983WAT     H278192   2.341   8.565   2.554
25984WAT      O78193   4.462   0.742   7.249
25984WAT     H178194   4.433   0.710   7.159
25984WAT     H278195   4.493   0.664   7.304
25985WAT      O78196   1.907   7.962   1.106
25985WAT     H178197   1.823   7.944   1.055
25985WAT     H278198   1.968   7.883   1.100
25986WAT      O78199   0.033   8.898   3.233
25986WAT     H178200   0.130   8.924   3.237
25986WAT     H278201   0.023   8.803   3.262
25987WAT      O78202   2.320   2.818   1.558
25987WAT     H178203   2.325   2.803   1.459
25987WAT     H278204   2.261   2.897   1.576
25988WAT      O78205   5.443   5.572   7.866
25988WAT     H178206   5.456   5.628   7.785
25988WAT     H278207   5.531   5.533   7.894
25989WAT      O78208   1.512   1.260   0.731
25989WAT     H178209   1.464   1.232   0.648
25989WAT     H278210   1.485   1.201   0.807
25990WAT      O78211   5.377   3.346   3.953
25990WAT     H178212   5.374   3.246   3.942
25990WAT     H278213   5.293   3.386   3.917
25991WAT      O78214   9.162   5.068   9.047
25991WAT     H178215   9.218   5.143   9.014
25991WAT     H278216   9.221   4.992   9.074
25992WAT      O78217   0.926   7.921   6.279
25992WAT     H178218   0.988   7.844   6.262
25992WAT     H278219   0.832   7.894   6.256
25993WAT      O78220   4.293   1.386   7.159
25993WAT     H178221   4.364   1.456   7.164
25993WAT     H278222   4.289   1.336   7.246
25994WAT      O78223   5.341   4.309   3.657
25994WAT     H178224   5.294   4.359   3.585
25994WAT     H278225   5.324   4.354   3.745
25995WAT      O78226   0.480   4.348   1.961
25995WAT     H178227   0.496   4.410   1.885
25995WAT     H278228   0.556   4.283   1.968
25996WAT      O78229   6.792   1.908   4.888
25996WAT     H178230   6.751   1.897   4.798
25996WAT     H278231   6.884   1.947   4.879
25997WAT      O78232   0.591   7.344   6.290
25997WAT     H178233   0.529   7.418   6.314
25997WAT     H278234   0.553   7.257   6.320
25998WAT      O78235   3.310   3.774   0.680
25998WAT     H178236   3.395   3.750   0.633
25998WAT     H278237   3.331   3.832   0.758
25999WAT      O78238   3.855   7.503   3.303
25999WAT     H178239   3.926   7.434   3.305
25999WAT     H278240   3.794   7.491   3.381
26000WAT      O78241   9.506   6.623   6.393
26000WAT     H178242   9.462   6.607   6.305
26000WAT     H278243   9.584   6.561   6.403
26001WAT      O78244   8.727   3.447   4.911
26001WAT     H178245   8.760   3.531   4.868
26001WAT     H278246   8.751   3.449   5.009
26002WAT      O78247   3.395   2.425   2.728
26002WAT     H178248   3.382   2.335   2.686
26002WAT     H278249   3.487   2.432   2.764
26003WAT      O78250   0.622   3.615   8.524
26003WAT     H178251   0.635   3.574   8.434
26003WAT     H278252   0.525   3.626   8.543
26004WAT      O78253   1.267   2.423   5.464
26004WAT     H178254   1.282   2.378   5.376
26004WAT     H278255   1.281   2.357   5.538
26005WAT      O78256   4.045   6.979   7.302
26005WAT     H178257   4.002   7.069   7.313
26005WAT     H278258   3.980   6.917   7.258
26006WAT      O78259   3.237   1.135   8.278
26006WAT     H178260   3.295   1.216   8.280
26006WAT     H278261   3.241   1.089   8.366
26007WAT      O78262   2.407   4.186   6.697
26007WAT     H178263   2.392   4.285   6.709
26007WAT     H278264   2.502   4.170   6.673
26008WAT      O78265   7.714   7.039   3.364
26008WAT     H178266   7.763   6.984   3.431
26008WAT     H278267   7.765   7.041   3.278
26009WAT      O78268   6.962   1.099   9.629
26009WAT     H178269   6.944   1.198   9.627
26009WAT     H278270   6.931   1.058   9.543
26010WAT      O78271   0.563   6.406   5.881
26010WAT     H178272   0.636   6.337   5.882
26010WAT     H278273   0.599   6.492   5.916
26011WAT      O78274   3.177   9.104   3.966
26011WAT     H178275   3.233   9.073   3.889
26011WAT     H278276   3.184   9.038   4.041
26012WAT      O78277   8.729   6.787   6.302
26012WAT     H178278   8.801   6.754   6.364
26012WAT     H278279   8.769   6.846   6.232
26013WAT      O78280   4.332   0.952   6.816
26013WAT     H178281   4.400   1.024   6.829
26013WAT     H278282   4.267   0.953   6.893
26014WAT      O78283   4.010   0.721   8.910
26014WAT     H178284   3.946   0.747   8.982
26014WAT     H278285   4.038   0.626   8.923
26015WAT      O78286   8.427   2.155   9.236
26015WAT     H178287   8.343   2.101   9.239
26015WAT     H278288   8.497   2.104   9.185
26016WAT      O78289   0.529   8.771   4.935
26016WAT     H178290   0.434   8.759   4.964
26016WAT     H278291   0.557   8.866   4.951
26017WAT      O78292   7.842   4.996   0.903
26017WAT     H178293   7.762   5.045   0.866
26017WAT     H278294   7.855   4.911   0.853
26018WAT      O78295   3.399   0.803   5.990
26018WAT     H178296   3.394   0.707   6.016
26018WAT     H278297   3.485   0.843   6.024
26019WAT      O78298   8.451   6.402   3.396
26019WAT     H178299   8.523   6.466   3.422
26019WAT     H278300   8.480   6.349   3.316
26020WAT      O78301   6.870   2.374   5.180
26020WAT     H178302   6.920   2.317   5.115
26020WAT     H278303   6.893   2.470   5.164
26021WAT      O78304   5.222   6.258   2.638
26021WAT     H178305   5.181   6.346   2.612
26021WAT     H278306   5.224   6.251   2.738
26022WAT      O78307   8.041   3.253   6.195
26022WAT     H178308   7.981   3.213   6.126
26022WAT     H278309   8.047   3.190   6.273
26023WAT      O78310   8.192   5.917   2.203
26023WAT     H178311   8.224   6.012   2.192
26023WAT     H278312   8.094   5.912   2.182
26024WAT      O78313   2.353   3.218   8.621
26024WAT     H178314   2.270   3.248   8.574
26024WAT     H278315   2.329   3.175   8.708
26025WAT      O78316   7.933   5.033   7.961
26025WAT     H178317   7.960   4.998   7.871
26025WAT     H278318   7.966   5.127   7.971
26026WAT      O78319   7.129   5.699   2.324
26026WAT     H178320   7.161   5.616   2.278
26026WAT     H278321   7.190   5.775   2.303
26027WAT      O78322   4.044   6.049   2.109
26027WAT     H178323   3.991   6.098   2.179
26027WAT     H278324   4.061   6.110   2.032
26028WAT      O78325   9.175   3.224   3.551
26028WAT     H178326   9.183   3.156   3.624
26028WAT     H278327   9.183   3.316   3.591
26029WAT      O78328   6.073   4.412   3.885
26029WAT     H178329   6.021   4.497   3.896
26029WAT     H278330   6.026   4.352   3.820
26030WAT      O78331   6.945   6.174   1.959
26030WAT     H178332   6.937   6.209   1.865
26030WAT     H278333   6.962   6.251   2.021
26031WAT      O78334   8.996   9.209   4.540
26031WAT     H178335   8.918   9.255   4.495
26031WAT     H278336   9.037   9.144   4.476
26032WAT      O78337   7.592   1.150   9.424
26032WAT     H178338   7.579   1.124   9.519
26032WAT     H278339   7.689   1.149   9.401
26033WAT      O78340   6.180   7.917   9.434
26033WAT     H178341   6.173   8.004   9.483
26033WAT     H278342   6.088   7.880   9.419
26034WAT      O78343   1.450   3.879   8.877
26034WAT     H178344   1.410   3.793   8.907
26034WAT     H278345   1.463   3.878   8.778
26035WAT      O78346   7.890   6.620   4.098
26035WAT     H178347   7.833   6.540   4.115
26035WAT     H278348   7.871   6.655   4.006
26036WAT      O78349   5.396   7.917   4.750
26036WAT     H178350   5.460   7.968   4.807
26036WAT     H278351   5.400   7.953   4.656
26037WAT      O78352   8.747   0.608   8.977
26037WAT     H178353   8.732   0.702   8.946
26037WAT     H278354   8.677   0.584   9.045
26038WAT      O78355   4.958   4.636   6.207
26038WAT     H178356   4.990   4.557   6.260
26038WAT     H278357   4.864   4.657   6.232
26039WAT      O78358   0.831   0.865   0.296
26039WAT     H178359   0.912   0.847   0.351
26039WAT     H278360   0.784   0.946   0.331
26040WAT      O78361   6.977   6.118   9.257
26040WAT     H178362   7.054   6.122   9.193
26040WAT     H278363   6.903   6.064   9.216
26041WAT      O78364   6.804   8.913   8.442
26041WAT     H178365   6.749   8.855   8.502
26041WAT     H278366   6.774   9.008   8.449
26042WAT      O78367   5.932   9.746   7.453
26042WAT     H178368   6.024   9.766   7.487
26042WAT     H278369   5.897   9.664   7.498
26043WAT      O78370   0.625   4.822   8.310
26043WAT     H178371   0.630   4.830   8.210
26043WAT     H278372   0.678   4.896   8.351
26044WAT      O78373   6.835   7.283   0.516
26044WAT     H178374   6.860   7.239   0.602
26044WAT     H278375   6.890   7.366   0.504
26045WAT      O78376   7.353   7.668   6.232
26045WAT     H178377   7.293   7.591   6.210
26045WAT     H278378   7.448   7.642   6.213
26046WAT      O78379   0.961   7.655   1.687
26046WAT     H178380   1.051   7.645   1.730
26046WAT     H278381   0.972   7.675   1.590
26047WAT      O78382   3.729   1.847   4.902
26047WAT     H178383   3.762   1.927   4.952
26047WAT     H278384   3.637   1.865   4.868
26048WAT      O78385   3.954   0.037   7.106
26048WAT     H178386   3.980   0.067   7.198
26048WAT     H278387   4.011   0.084   7.039
26049WAT      O78388   2.625   8.291   1.753
26049WAT     H178389   2.633   8.383   1.714
26049WAT     H278390   2.537   8.282   1.799
26050WAT      O78391   7.439   0.875   4.997
26050WAT     H178392   7.345   0.869   4.962
26050WAT     H278393   7.470   0.970   4.991
26051WAT      O78394   8.225   3.773   5.493
26051WAT     H178395   8.280   3.840   5.543
26051WAT     H278396   8.266   3.756   5.404
26052WAT      O78397   7.192   7.210   6.085
26052WAT     H178398   7.107   7.177   6.126
26052WAT     H278399   7.222   7.146   6.014
26053WAT      O78400   9.157   7.198   0.492
26053WAT     H178401   9.254   7.175   0.485
26053WAT     H278402   9.119   7.159   0.576
26054WAT      O78403   7.258   9.147   4.967
26054WAT     H178404   7.219   9.055   4.966
26054WAT     H278405   7.283   9.174   4.874
26055WAT      O78406   2.470   2.758   4.804
26055WAT     H178407   2.429   2.684   4.751
26055WAT     H278408   2.542   2.802   4.750
26056WAT      O78409   9.225   7.676   1.529
26056WAT     H178410   9.198   7.613   1.456
26056WAT     H278411   9.324   7.669   1.544
26057WAT      O78412   2.571   5.666   6.552
26057WAT     H178413   2.594   5.761   6.575
26057WAT     H278414   2.653   5.619   6.517
26058WAT      O78415   7.814   7.612   5.249
26058WAT     H178416   7.768   7.700   5.241
26058WAT     H278417   7.885   7.605   5.178
26059WAT      O78418   2.259   9.316   4.887
26059WAT     H178419   2.305   9.333   4.800
26059WAT     H278420   2.175   9.370   4.892
26060WAT      O78421   0.659   7.865   6.308
26060WAT     H178422   0.611   7.794   6.255
26060WAT     H278423   0.592   7.931   6.341
26061WAT      O78424   3.893   3.146   2.310
26061WAT     H178425   3.987   3.115   2.293
26061WAT     H278426   3.854   3.183   2.226
26062WAT      O78427   4.266   3.512   4.917
26062WAT     H178428   4.242   3.544   4.825
26062WAT     H278429   4.268   3.590   4.979
26063WAT      O78430   3.545   4.599   2.283
26063WAT     H178431   3.572   4.664   2.354
26063WAT     H278432   3.448   4.612   2.261
26064WAT      O78433   9.894   6.762   1.152
26064WAT     H178434   9.826   6.790   1.219
26064WAT     H278435   9.854   6.763   1.061
26065WAT      O78436   2.300   0.869   7.551
26065WAT     H178437   2.323   0.879   7.455
26065WAT     H278438   2.206   0.899   7.566
26066WAT      O78439   9.324   6.224   9.148
26066WAT     H178440   9.320   6.127   9.172
26066WAT     H278441   9.246   6.272   9.190
26067WAT      O78442   7.046   4.638   2.580
26067WAT     H178443   7.047   4.593   2.669
26067WAT     H278444   6.995   4.724   2.586
26068WAT      O78445   1.535   8.441   5.511
26068WAT     H178446   1.619   8.387   5.508
26068WAT     H278447   1.466   8.399   5.453
26069WAT      O78448   5.864   2.162   1.637
26069WAT     H178449   5.793   2.230   1.656
26069WAT     H278450   5.953   2.208   1.629
26070WAT      O78451   8.149   8.392   5.093
26070WAT     H178452   8.051   8.391   5.078
26070WAT     H278453   8.196   8.406   5.006
26071WAT      O78454   0.326   4.085   7.234
26071WAT     H178455   0.226   4.088   7.240
26071WAT     H278456   0.358   3.995   7.265
26072WAT      O78457   5.299   4.773   9.366
26072WAT     H178458   5.209   4.801   9.331
26072WAT     H278459   5.305   4.798   9.463
26073WAT      O78460   2.540   7.032   5.190
26073WAT     H178461   2.450   7.023   5.149
26073WAT     H278462   2.531   7.071   5.282
26074WAT      O78463   2.470   1.099   8.184
26074WAT     H178464   2.432   1.011   8.216
26074WAT     H278465   2.399   1.168   8.186
26075WAT      O78466   5.091   8.894   4.350
26075WAT     H178467   5.171   8.836   4.349
26075WAT     H278468   5.009   8.838   4.364
26076WAT      O78469   7.098   7.478   0.213
26076WAT     H178470   7.087   7.379   0.217
26076WAT     H278471   7.067   7.511   0.124
26077WAT      O78472   8.711   7.240   3.567
26077WAT     H178473   8.734   7.302   3.492
26077WAT     H278474   8.730   7.285   3.655
26078WAT      O78475   1.276   5.196   7.451
26078WAT     H178476   1.178   5.199   7.471
26078WAT     H278477   1.290   5.183   7.352
26079WAT      O78478   9.142   7.269   2.114
26079WAT     H178479   9.074   7.290   2.044
26079WAT     H278480   9.106   7.292   2.204
26080WAT      O78481   9.553   5.447   2.005
26080WAT     H178482   9.608   5.441   1.922
26080WAT     H278483   9.584   5.378   2.071
26081WAT      O78484   9.427   7.585   2.127
26081WAT     H178485   9.393   7.543   2.211
26081WAT     H278486   9.414   7.523   2.050
26082WAT      O78487   6.562   8.585   0.896
26082WAT     H178488   6.634   8.580   0.826
26082WAT     H278489   6.483   8.634   0.860
26083WAT      O78490   3.069   0.045   2.874
26083WAT     H178491   2.985   0.073   2.919
26083WAT     H278492   3.077   0.093   2.786
26084WAT      O78493   8.112   2.882   3.266
26084WAT     H178494   8.199   2.927   3.246
26084WAT     H278495   8.115   2.842   3.357
26085WAT      O78496   5.619   4.579   2.426
26085WAT     H178497   5.668   4.527   2.496
26085WAT     H278498   5.521   4.567   2.439
26086WAT      O78499   5.655   7.279   0.128
26086WAT     H178500   5.563   7.246   0.148
26086WAT     H278501   5.691   7.231   0.048
26087WAT      O78502   7.937   8.144   1.025
26087WAT     H178503   8.036   8.151   1.034
26087WAT     H278504   7.913   8.127   0.929
26088WAT      O78505   7.165   7.945   3.191
26088WAT     H178506   7.092   7.955   3.124
26088WAT     H278507   7.135   7.884   3.264
26089WAT      O78508   0.513   2.852   3.250
26089WAT     H178509   0.424   2.840   3.293
26089WAT     H278510   0.533   2.950   3.241
26090WAT      O78511   4.577   1.192   5.239
26090WAT     H178512   4.621   1.105   5.261
26090WAT     H278513   4.500   1.207   5.301
26091WAT      O78514   4.420   8.727   9.628
26091WAT     H178515   4.433   8.818   9.591
26091WAT     H278516   4.327   8.696   9.610
26092WAT      O78517   4.876   2.370   1.851
26092WAT     H178518   4.851   2.387   1.755
26092WAT     H278519   4.972   2.394   1.866
26093WAT      O78520   8.115   4.903   4.846
26093WAT     H178521   8.029   4.867   4.882
26093WAT     H278522   8.149   4.844   4.773
26094WAT      O78523   1.638   0.136   4.088
26094WAT     H178524   1.712   0.105   4.029
26094WAT     H278525   1.615   0.065   4.155
26095WAT      O78526   6.779   3.743   9.507
26095WAT     H178527   6.689   3.762   9.469
26095WAT     H278528   6.771   3.723   9.605
26096WAT      O78529   2.265   8.683   9.069
26096WAT     H178530   2.294   8.663   9.162
26096WAT     H278531   2.169   8.656   9.058
26097WAT      O78532   5.560   9.464   4.331
26097WAT     H178533   5.564   9.553   4.376
26097WAT     H278534   5.477   9.456   4.277
26098WAT      O78535   3.890   0.958   0.779
26098WAT     H178536   3.886   0.875   0.835
26098WAT     H278537   3.798   0.981   0.748
26099WAT      O78538   8.928   5.736   1.277
26099WAT     H178539   8.945   5.819   1.329
26099WAT     H278540   8.951   5.752   1.181
26100WAT      O78541   4.576   4.018   5.825
26100WAT     H178542   4.633   3.964   5.764
26100WAT     H278543   4.632   4.059   5.896
26101WAT      O78544   1.603   8.670   6.546
26101WAT     H178545   1.631   8.607   6.617
26101WAT     H278546   1.505   8.663   6.531
26102WAT      O78547   4.378   1.918   1.061
26102WAT     H178548   4.419   1.831   1.088
26102WAT     H278549   4.318   1.904   0.982
26103WAT      O78550   9.075   5.394   8.494
26103WAT     H178551   9.160   5.440   8.471
26103WAT     H278552   9.076   5.368   8.591
26104WAT      O78553   7.016   1.000   9.288
26104WAT     H178554   7.005   1.091   9.327
26104WAT     H278555   7.042   0.936   9.360
26105WAT      O78556   0.655   9.459   0.772
26105WAT     H178557   0.669   9.462   0.871
26105WAT     H278558   0.640   9.552   0.738
26106WAT      O78559   9.594   7.776   0.261
26106WAT     H178560   9.533   7.697   0.254
26106WAT     H278561   9.545   7.858   0.235
26107WAT      O78562   8.963   9.485   1.994
26107WAT     H178563   8.911   9.400   1.994
26107WAT     H278564   8.943   9.536   1.910
26108WAT      O78565   1.476   3.646   4.985
26108WAT     H178566   1.462   3.726   5.044
26108WAT     H278567   1.387   3.608   4.960
26109WAT      O78568   4.894   9.091   3.499
26109WAT     H178569   4.969   9.056   3.443
26109WAT     H278570   4.866   9.181   3.465
26110WAT      O78571   9.233   9.239   4.853
26110WAT     H178572   9.164   9.188   4.905
26110WAT     H278573   9.187   9.304   4.792
26111WAT      O78574   2.845   5.964   7.585
26111WAT     H178575   2.934   5.956   7.541
26111WAT     H278576   2.852   6.027   7.663
26112WAT      O78577   4.224   8.702   7.674
26112WAT     H178578   4.229   8.644   7.593
26112WAT     H278579   4.139   8.755   7.673
26113WAT      O78580   2.177   7.163   5.541
26113WAT     H178581   2.083   7.195   5.526
26113WAT     H278582   2.240   7.223   5.491
26114WAT      O78583   1.138   6.607   5.645
26114WAT     H178584   1.049   6.641   5.674
26114WAT     H278585   1.203   6.683   5.638
26115WAT      O78586   4.440   6.003   8.271
26115WAT     H178587   4.504   5.951   8.327
26115WAT     H278588   4.474   6.097   8.260
26116WAT      O78589   7.618   4.936   6.168
26116WAT     H178590   7.692   4.986   6.123
26116WAT     H278591   7.532   4.955   6.120
26117WAT      O78592   9.527   4.377   8.622
26117WAT     H178593   9.603   4.415   8.675
26117WAT     H278594   9.441   4.413   8.656
26118WAT      O78595   0.454   1.610   7.413
26118WAT     H178596   0.542   1.588   7.455
26118WAT     H278597   0.407   1.526   7.386
26119WAT      O78598   2.562   0.094   0.722
26119WAT     H178599   2.578   0.192   0.737
26119WAT     H278600   2.467   0.072   0.745
26120WAT      O78601   6.689   1.942   4.604
26120WAT     H178602   6.606   1.970   4.558
26120WAT     H278603   6.749   2.022   4.618
26121WAT      O78604   7.574   4.042   4.172
26121WAT     H178605   7.620   4.008   4.090
26121WAT     H278606   7.536   3.965   4.223
26122WAT      O78607   5.985   5.786   3.433
26122WAT     H178608   5.970   5.687   3.438
26122WAT     H278609   6.001   5.812   3.338
26123WAT      O78610   5.775   8.509   8.793
26123WAT     H178611   5.790   8.608   8.794
26123WAT     H278612   5.739   8.479   8.881
26124WAT      O78613   5.418   9.143   4.615
26124WAT     H178614   5.409   9.069   4.548
26124WAT     H278615   5.436   9.104   4.706
26125WAT      O78616   1.372   0.956   8.294
26125WAT     H178617   1.403   0.917   8.208
26125WAT     H278618   1.350   1.053   8.281
26126WAT      O78619   3.375   3.532   1.711
26126WAT     H178620   3.275   3.527   1.710
26126WAT     H278621   3.404   3.628   1.713
26127WAT      O78622   3.604   5.551   1.564
26127WAT     H178623   3.643   5.623   1.622
26127WAT     H278624   3.650   5.552   1.476
26128WAT      O78625   6.562   3.948   9.686
26128WAT     H178626   6.479   3.911   9.726
26128WAT     H278627   6.580   3.904   9.599
26129WAT      O78628   5.633   1.930   0.037
26129WAT     H178629   5.649   1.966  -0.055
26129WAT     H278630   5.700   1.858   0.057
26130WAT      O78631   6.819   1.979   4.138
26130WAT     H178632   6.845   1.958   4.232
26130WAT     H278633   6.884   1.936   4.075
26131WAT      O78634   7.293   4.916   1.061
26131WAT     H178635   7.282   5.005   1.017
26131WAT     H278636   7.212   4.895   1.116
26132WAT      O78637   0.164   8.209   6.981
26132WAT     H178638   0.070   8.210   7.015
26132WAT     H278639   0.195   8.115   6.970
26133WAT      O78640   6.691   3.184   4.011
26133WAT     H178641   6.770   3.203   4.069
26133WAT     H278642   6.635   3.113   4.052
26134WAT      O78643   6.197   5.447   1.661
26134WAT     H178644   6.275   5.500   1.694
26134WAT     H278645   6.135   5.429   1.737
26135WAT      O78646   8.267   4.956   0.666
26135WAT     H178647   8.205   4.902   0.609
26135WAT     H278648   8.231   5.048   0.676
26136WAT      O78649   4.063   1.398   5.032
26136WAT     H178650   3.991   1.344   5.076
26136WAT     H278651   4.060   1.492   5.065
26137WAT      O78652   9.533   6.289   8.028
26137WAT     H178653   9.575   6.335   8.106
26137WAT     H278654   9.491   6.203   8.059
26138WAT      O78655   6.822   1.953   6.245
26138WAT     H178656   6.837   1.958   6.343
26138WAT     H278657   6.784   1.863   6.221
26139WAT      O78658   0.991   5.499   4.153
26139WAT     H178659   0.905   5.510   4.104
26139WAT     H278660   0.974   5.456   4.242
26140WAT      O78661   6.372   3.386   4.109
26140WAT     H178662   6.356   3.380   4.011
26140WAT     H278663   6.461   3.345   4.131
26141WAT      O78664   6.252   0.356   5.638
26141WAT     H178665   6.181   0.342   5.570
26141WAT     H278666   6.260   0.454   5.659
26142WAT      O78667   6.463   4.216   8.828
26142WAT     H178668   6.410   4.290   8.787
26142WAT     H278669   6.561   4.236   8.818
26143WAT      O78670   0.493   6.866   4.521
26143WAT     H178671   0.519   6.777   4.558
26143WAT     H278672   0.576   6.915   4.492
26144WAT      O78673   8.586   6.374   8.498
26144WAT     H178674   8.608   6.467   8.468
26144WAT     H278675   8.522   6.332   8.433
26145WAT      O78676   6.468   2.381   2.267
26145WAT     H178677   6.546   2.415   2.319
26145WAT     H278678   6.499   2.317   2.198
26146WAT      O78679   4.120   1.176   5.620
26146WAT     H178680   4.200   1.158   5.678
26146WAT     H278681   4.073   1.259   5.653
26147WAT      O78682   7.242   2.600   9.697
26147WAT     H178683   7.196   2.668   9.640
26147WAT     H278684   7.298   2.647   9.765
26148WAT      O78685   2.923   2.330   0.583
26148WAT     H178686   2.965   2.420   0.570
26148WAT     H278687   2.993   2.265   0.613
26149WAT      O78688   4.424   1.910   3.525
26149WAT     H178689   4.369   1.994   3.536
26149WAT     H278690   4.521   1.934   3.528
26150WAT      O78691   2.442   9.066   3.149
26150WAT     H178692   2.418   9.132   3.078
26150WAT     H278693   2.391   8.981   3.133
26151WAT      O78694   1.582   8.007   9.447
26151WAT     H178695   1.563   7.938   9.378
26151WAT     H278696   1.609   7.963   9.533
26152WAT      O78697   6.299   3.312   1.226
26152WAT     H178698   6.224   3.309   1.293
26152WAT     H278699   6.291   3.395   1.171
26153WAT      O78700   1.108   3.573   1.498
26153WAT     H178701   1.088   3.655   1.445
26153WAT     H278702   1.128   3.599   1.593
26154WAT      O78703   4.802   2.156   3.537
26154WAT     H178704   4.788   2.254   3.531
26154WAT     H278705   4.883   2.130   3.485
26155WAT      O78706   2.666   4.956   8.397
26155WAT     H178707   2.590   5.020   8.384
26155WAT     H278708   2.723   4.955   8.315
26156WAT      O78709   9.833   6.481   3.494
26156WAT     H178710   9.790   6.533   3.420
26156WAT     H278711   9.778   6.490   3.578
26157WAT      O78712   2.318   1.611   8.138
26157WAT     H178713   2.284   1.535   8.083
26157WAT     H278714   2.245   1.678   8.152
26158WAT      O78715   2.611   0.633   2.579
26158WAT     H178716   2.635   0.536   2.577
26158WAT     H278717   2.567   0.655   2.666
26159WAT      O78718   6.149   0.297   4.134
26159WAT     H178719   6.063   0.334   4.098
26159WAT     H278720   6.150   0.198   4.121
26160WAT      O78721   2.401   1.649   0.225
26160WAT     H178722   2.381   1.555   0.198
26160WAT     H278723   2.328   1.681   0.286
26161WAT      O78724   0.266   7.210   6.701
26161WAT     H178725   0.178   7.214   6.748
26161WAT     H278726   0.297   7.115   6.693
26162WAT      O78727   5.679   0.869   9.111
26162WAT     H178728   5.634   0.919   9.036
26162WAT     H278729   5.642   0.776   9.116
26163WAT      O78730   7.897   5.438   7.183
26163WAT     H178731   7.838   5.381   7.126
26163WAT     H278732   7.845   5.474   7.259
26164WAT      O78733   3.268   2.496   1.329
26164WAT     H178734   3.181   2.456   1.299
26164WAT     H278735   3.276   2.589   1.292
26165WAT      O78736   3.082   2.932   6.114
26165WAT     H178737   3.109   2.860   6.177
26165WAT     H278738   2.984   2.926   6.095
26166WAT      O78739   1.235   2.863   7.504
26166WAT     H178740   1.278   2.779   7.538
26166WAT     H278741   1.174   2.899   7.575
26167WAT      O78742   8.094   1.997   2.888
26167WAT     H178743   8.108   2.032   2.796
26167WAT     H278744   8.007   2.032   2.924
26168WAT      O78745   0.965   6.238   3.627
26168WAT     H178746   0.870   6.252   3.656
26168WAT     H278747   1.025   6.299   3.680
26169WAT      O78748   6.519   9.439   5.423
26169WAT     H178749   6.447   9.404   5.363
26169WAT     H278750   6.608   9.418   5.384
26170WAT      O78751   8.401   0.338   2.243
26170WAT     H178752   8.386   0.245   2.275
26170WAT     H278753   8.458   0.388   2.308
26171WAT      O78754   1.057   4.193   7.244
26171WAT     H178755   1.098   4.111   7.285
26171WAT     H278756   1.058   4.268   7.310
26172WAT      O78757   8.805   0.595   1.191
26172WAT     H178758   8.806   0.585   1.291
26172WAT     H278759   8.878   0.657   1.164
26173WAT      O78760   1.327   4.512   0.846
26173WAT     H178761   1.267   4.581   0.887
26173WAT     H278762   1.276   4.428   0.830
26174WAT      O78763   2.134   9.142   4.257
26174WAT     H178764   2.149   9.046   4.234
26174WAT     H278765   2.057   9.149   4.321
26175WAT      O78766   7.740   2.680   8.940
26175WAT     H178767   7.691   2.767   8.946
26175WAT     H278768   7.818   2.689   8.879
26176WAT      O78769   0.087   8.575   3.094
26176WAT     H178770   0.085   8.475   3.089
26176WAT     H278771   0.015   8.606   3.156
26177WAT      O78772   4.393   6.495   8.040
26177WAT     H178773   4.380   6.503   8.139
26177WAT     H278774   4.312   6.453   7.999
26178WAT      O78775   7.511   0.246   2.154
26178WAT     H178776   7.569   0.232   2.234
26178WAT     H278777   7.419   0.274   2.182
26179WAT      O78778   3.321   9.178   7.113
26179WAT     H178779   3.368   9.265   7.101
26179WAT     H278780   3.384   9.110   7.151
26180WAT      O78781   0.334   4.367   0.154
26180WAT     H178782   0.284   4.288   0.118
26180WAT     H278783   0.323   4.445   0.093
26181WAT      O78784   6.313   7.733   3.217
26181WAT     H178785   6.361   7.694   3.297
26181WAT     H278786   6.256   7.662   3.176
26182WAT      O78787   8.478   1.990   6.238
26182WAT     H178788   8.471   2.082   6.201
26182WAT     H278789   8.442   1.924   6.171
26183WAT      O78790   5.803   7.720   2.589
26183WAT     H178791   5.872   7.649   2.601
26183WAT     H278792   5.842   7.796   2.536
26184WAT      O78793   5.392   4.153   8.180
26184WAT     H178794   5.380   4.113   8.271
26184WAT     H278795   5.440   4.088   8.121
26185WAT      O78796   2.289   6.791   4.673
26185WAT     H178797   2.313   6.723   4.743
26185WAT     H278798   2.357   6.788   4.599
26186WAT      O78799   6.491   5.244   0.236
26186WAT     H178800   6.577   5.259   0.284
26186WAT     H278801   6.485   5.304   0.157
26187WAT      O78802   0.683   6.873   9.035
26187WAT     H178803   0.745   6.862   9.112
26187WAT     H278804   0.690   6.966   8.999
26188WAT      O78805   5.730   1.741   5.234
26188WAT     H178806   5.786   1.708   5.310
26188WAT     H278807   5.777   1.817   5.189
26189WAT      O78808   9.667   2.599   9.084
26189WAT     H178809   9.715   2.650   9.014
26189WAT     H278810   9.639   2.510   9.048
26190WAT      O78811   2.377   9.723   3.486
26190WAT     H178812   2.339   9.721   3.393
26190WAT     H278813   2.331   9.655   3.543
26191WAT      O78814   3.282   4.606   9.629
26191WAT     H178815   3.206   4.645   9.577
26191WAT     H278816   3.355   4.581   9.566
26192WAT      O78817   2.180   2.613   4.845
26192WAT     H178818   2.247   2.571   4.784
26192WAT     H278819   2.087   2.585   4.817
26193WAT      O78820   1.325   1.815   0.995
26193WAT     H178821   1.252   1.849   1.055
26193WAT     H278822   1.349   1.885   0.928
26194WAT      O78823   2.078   9.769   8.904
26194WAT     H178824   1.979   9.764   8.912
26194WAT     H278825   2.112   9.694   8.848
26195WAT      O78826   0.097   2.443   1.068
26195WAT     H178827   0.126   2.347   1.068
26195WAT     H278828   0.015   2.452   1.125
26196WAT      O78829   4.149   5.790   1.421
26196WAT     H178830   4.076   5.853   1.393
26196WAT     H278831   4.132   5.700   1.383
26197WAT      O78832   9.308   7.178   8.760
26197WAT     H178833   9.327   7.235   8.840
26197WAT     H278834   9.213   7.147   8.764
26198WAT      O78835   7.378   3.011   5.755
26198WAT     H178836   7.438   3.016   5.835
26198WAT     H278837   7.349   3.103   5.730
26199WAT      O78838   9.135   9.273   3.131
26199WAT     H178839   9.066   9.344   3.147
26199WAT     H278840   9.094   9.183   3.146
26200WAT      O78841   7.939   9.545   5.704
26200WAT     H178842   7.925   9.531   5.802
26200WAT     H278843   8.010   9.614   5.691
26201WAT      O78844   7.824   6.055   6.611
26201WAT     H178845   7.815   5.962   6.575
26201WAT     H278846   7.896   6.057   6.680
26202WAT      O78847   3.148   7.240   8.503
26202WAT     H178848   3.122   7.336   8.510
26202WAT     H278849   3.071   7.187   8.466
26203WAT      O78850   7.582   5.345   6.778
26203WAT     H178851   7.574   5.419   6.844
26203WAT     H278852   7.641   5.273   6.816
26204WAT      O78853   7.040   8.995   6.828
26204WAT     H178854   6.967   9.061   6.842
26204WAT     H278855   7.053   8.979   6.730
26205WAT      O78856   3.649   1.476   0.839
26205WAT     H178857   3.597   1.394   0.865
26205WAT     H278858   3.684   1.464   0.746
26206WAT      O78859   0.237   7.913   1.501
26206WAT     H178860   0.209   7.961   1.418
26206WAT     H278861   0.253   7.979   1.574
26207WAT      O78862   7.169   9.575   3.468
26207WAT     H178863   7.221   9.594   3.385
26207WAT     H278864   7.082   9.623   3.465
26208WAT      O78865   3.258   6.453   3.937
26208WAT     H178866   3.337   6.456   3.998
26208WAT     H278867   3.279   6.394   3.859
26209WAT      O78868   3.555   1.625   1.395
26209WAT     H178869   3.493   1.646   1.319
26209WAT     H278870   3.577   1.528   1.394
26210WAT      O78871   4.113   7.519   2.562
26210WAT     H178872   4.088   7.597   2.619
26210WAT     H278873   4.206   7.491   2.582
26211WAT      O78874   9.704   3.873   4.263
26211WAT     H178875   9.648   3.917   4.333
26211WAT     H278876   9.721   3.937   4.188
26212WAT      O78877   1.673   5.221   5.875
26212WAT     H178878   1.614   5.240   5.796
26212WAT     H278879   1.630   5.151   5.932
26213WAT      O78880   8.954   1.621   7.061
26213WAT     H178881   8.983   1.677   7.138
26213WAT     H278882   8.895   1.547   7.094
26214WAT      O78883   1.588   1.279   4.856
26214WAT     H178884   1.507   1.293   4.913
26214WAT     H278885   1.581   1.335   4.773
26215WAT      O78886   3.171   8.443   9.611
26215WAT     H178887   3.130   8.531   9.588
26215WAT     H278888   3.126   8.406   9.693
26216WAT      O78889   8.037   0.036   8.170
26216WAT     H178890   7.981   0.011   8.091
26216WAT     H278891   8.098  -0.040   8.192
26217WAT      O78892   9.798   6.818   4.921
26217WAT     H178893   9.732   6.875   4.871
26217WAT     H278894   9.873   6.876   4.954
26218WAT      O78895   1.618   8.014   4.786
26218WAT     H178896   1.531   8.061   4.795
26218WAT     H278897   1.655   7.993   4.876
26219WAT      O78898   1.886   6.129   2.039
26219WAT     H178899   1.832   6.045   2.031
26219WAT     H278900   1.924   6.151   1.949
26220WAT      O78901   4.799   8.007   2.987
26220WAT     H178902   4.742   8.089   2.991
26220WAT     H278903   4.740   7.927   2.972
26221WAT      O78904   7.022   7.471   7.875
26221WAT     H178905   7.066   7.542   7.820
26221WAT     H278906   7.017   7.501   7.970
26222WAT      O78907   2.380   0.430   6.022
26222WAT     H178908   2.467   0.396   6.058
26222WAT     H278909   2.381   0.424   5.922
26223WAT      O78910   5.694   7.264   7.729
26223WAT     H178911   5.620   7.281   7.794
26223WAT     H278912   5.771   7.324   7.750
26224WAT      O78913   5.892   3.783   6.524
26224WAT     H178914   5.816   3.788   6.589
26224WAT     H278915   5.942   3.870   6.524
26225WAT      O78916   6.696   0.170   8.135
26225WAT     H178917   6.749   0.115   8.071
26225WAT     H278918   6.664   0.112   8.211
26226WAT      O78919   9.839   7.844   3.470
26226WAT     H178920   9.936   7.863   3.481
26226WAT     H278921   9.827   7.759   3.418
26227WAT      O78922   7.213   3.414   9.218
26227WAT     H178923   7.148   3.356   9.267
26227WAT     H278924   7.292   3.433   9.276
26228WAT      O78925   3.679   3.341   9.693
26228WAT     H178926   3.609   3.409   9.670
26228WAT     H278927   3.708   3.353   9.788
26229WAT      O78928   0.159   5.738   0.528
26229WAT     H178929   0.218   5.663   0.557
26229WAT     H278930   0.101   5.766   0.605
26230WAT      O78931   0.105   8.297   2.356
26230WAT     H178932   0.082   8.227   2.424
26230WAT     H278933   0.154   8.373   2.401
26231WAT      O78934   6.899   2.794   6.641
26231WAT     H178935   6.965   2.814   6.714
26231WAT     H278936   6.936   2.722   6.582
26232WAT      O78937   0.936   9.219   2.935
26232WAT     H178938   0.865   9.180   2.877
26232WAT     H278939   0.979   9.296   2.888
26233WAT      O78940   8.685   1.853   8.198
26233WAT     H178941   8.739   1.858   8.114
26233WAT     H278942   8.692   1.940   8.247
26234WAT      O78943   4.627   1.010   4.475
26234WAT     H178944   4.597   0.956   4.554
26234WAT     H278945   4.644   0.948   4.398
26235WAT      O78946   0.093   3.653   3.571
26235WAT     H178947   0.172   3.691   3.523
26235WAT     H278948   0.047   3.587   3.511
26236WAT      O78949   5.946   0.247   3.116
26236WAT     H178950   6.041   0.278   3.112
26236WAT     H278951   5.926   0.211   3.207
26237WAT      O78952   2.344   0.183   8.452
26237WAT     H178953   2.343   0.149   8.358
26237WAT     H278954   2.315   0.279   8.453
26238WAT      O78955   7.002   9.317   6.581
26238WAT     H178956   7.074   9.370   6.537
26238WAT     H278957   6.926   9.305   6.516
26239WAT      O78958   3.352   3.477   6.521
26239WAT     H178959   3.360   3.468   6.422
26239WAT     H278960   3.380   3.569   6.549
26240WAT      O78961   8.190   0.290   7.907
26240WAT     H178962   8.250   0.263   7.982
26240WAT     H278963   8.223   0.376   7.867
26241WAT      O78964   6.688   3.363   4.813
26241WAT     H178965   6.765   3.418   4.781
26241WAT     H278966   6.616   3.423   4.848
26242WAT      O78967   5.432   9.440   6.284
26242WAT     H178968   5.408   9.479   6.373
26242WAT     H278969   5.349   9.427   6.230
26243WAT      O78970   0.948   2.358   7.176
26243WAT     H178971   0.877   2.290   7.194
26243WAT     H278972   1.037   2.320   7.202
26244WAT      O78973   6.061   2.741   7.695
26244WAT     H178974   6.127   2.815   7.689
26244WAT     H278975   5.969   2.779   7.702
26245WAT      O78976   2.258   8.890   4.181
26245WAT     H178977   2.253   8.841   4.268
26245WAT     H278978   2.344   8.941   4.177
26246WAT      O78979   4.239   7.274   8.059
26246WAT     H178980   4.225   7.221   8.143
26246WAT     H278981   4.334   7.267   8.030
26247WAT      O78982   5.053   5.182   6.876
26247WAT     H178983   4.983   5.217   6.939
26247WAT     H278984   5.032   5.087   6.853
26248WAT      O78985   1.601   2.462   5.079
26248WAT     H178986   1.502   2.467   5.090
26248WAT     H278987   1.641   2.407   5.153
26249WAT      O78988   2.095   7.662   6.914
26249WAT     H178989   2.005   7.622   6.898
26249WAT     H278990   2.140   7.614   6.990
26250WAT      O78991   8.334   0.274   8.692
26250WAT     H178992   8.265   0.323   8.639
26250WAT     H278993   8.414   0.332   8.705
26251WAT      O78994   2.927   4.883   4.933
26251WAT     H178995   2.894   4.968   4.893
26251WAT     H278996   2.885   4.805   4.887
26252WAT      O78997   7.946   9.604   2.534
26252WAT     H178998   7.976   9.698   2.548
26252WAT     H278999   7.864   9.603   2.477
26253WAT      O79000   2.932   3.805   6.367
26253WAT     H179001   2.896   3.717   6.399
26253WAT     H279002   2.857   3.868   6.351
26254WAT      O79003   4.828   5.824   8.486
26254WAT     H179004   4.885   5.886   8.432
26254WAT     H279005   4.732   5.845   8.470
26255WAT      O79006   4.748   2.645   3.721
26255WAT     H179007   4.827   2.702   3.744
26255WAT     H279008   4.693   2.691   3.651
26256WAT      O79009   6.074   9.181   1.549
26256WAT     H179010   6.061   9.255   1.484
26256WAT     H279011   6.159   9.195   1.600
26257WAT      O79012   9.681   6.819   1.824
26257WAT     H179013   9.615   6.886   1.858
26257WAT     H279014   9.660   6.729   1.862
26258WAT      O79015   9.152   7.633   8.249
26258WAT     H179016   9.166   7.638   8.348
26258WAT     H279017   9.101   7.550   8.227
26259WAT      O79018   0.895   8.662   0.806
26259WAT     H179019   0.930   8.609   0.728
26259WAT     H279020   0.819   8.720   0.775
26260WAT      O79021   7.193   4.053   4.281
26260WAT     H179022   7.141   3.979   4.324
26260WAT     H279023   7.235   4.019   4.196
26261WAT      O79024   1.872   4.073   2.638
26261WAT     H179025   1.945   4.063   2.570
26261WAT     H279026   1.825   4.160   2.624
26262WAT      O79027   6.289   4.703   8.724
26262WAT     H179028   6.254   4.781   8.671
26262WAT     H279029   6.214   4.659   8.772
26263WAT      O79030   9.137   4.142   8.073
26263WAT     H179031   9.058   4.091   8.107
26263WAT     H279032   9.106   4.232   8.041
26264WAT      O79033   0.244   4.696   0.767
26264WAT     H179034   0.306   4.626   0.803
26264WAT     H279035   0.296   4.777   0.742
26265WAT      O79036   4.450   7.546   6.167
26265WAT     H179037   4.358   7.554   6.204
26265WAT     H279038   4.446   7.536   6.068
26266WAT      O79039   0.176   7.463   8.717
26266WAT     H179040   0.275   7.469   8.704
26266WAT     H279041   0.137   7.406   8.645
26267WAT      O79042   2.953   5.231   5.077
26267WAT     H179043   3.011   5.257   5.000
26267WAT     H279044   3.008   5.232   5.161
26268WAT      O79045   9.343   9.010   0.056
26268WAT     H179046   9.288   9.092   0.071
26268WAT     H279047   9.360   8.999  -0.042
26269WAT      O79048   5.630   2.337   6.483
26269WAT     H179049   5.612   2.425   6.439
26269WAT     H279050   5.581   2.332   6.570
26270WAT      O79051   1.668   8.705   9.823
26270WAT     H179052   1.594   8.705   9.890
26270WAT     H279053   1.731   8.781   9.842
26271WAT      O79054   2.026   0.520   8.353
26271WAT     H179055   2.030   0.587   8.428
26271WAT     H279056   1.966   0.556   8.281
26272WAT      O79057   5.938   8.907   2.552
26272WAT     H179058   5.850   8.924   2.595
26272WAT     H279059   5.981   8.994   2.528
26273WAT      O79060   0.144   3.996   5.150
26273WAT     H179061   0.068   3.960   5.204
26273WAT     H279062   0.213   3.925   5.136
26274WAT      O79063   0.551   4.235   8.914
26274WAT     H179064   0.593   4.259   8.827
26274WAT     H279065   0.462   4.281   8.922
26275WAT      O79066   5.236   6.650   4.686
26275WAT     H179067   5.208   6.556   4.668
26275WAT     H279068   5.236   6.701   4.600
26276WAT      O79069   6.520   4.455   8.453
26276WAT     H179070   6.465   4.526   8.409
26276WAT     H279071   6.605   4.495   8.488
26277WAT      O79072   7.602   8.123   2.926
26277WAT     H179073   7.667   8.058   2.887
26277WAT     H279074   7.631   8.216   2.907
26278WAT      O79075   2.280   9.685   9.063
26278WAT     H179076   2.355   9.747   9.043
26278WAT     H279077   2.199   9.712   9.011
26279WAT      O79078   8.092   9.143   7.249
26279WAT     H179079   8.075   9.135   7.151
26279WAT     H279080   8.013   9.108   7.299
26280WAT      O79081   5.901   8.373   8.265
26280WAT     H179082   5.903   8.275   8.246
26280WAT     H279083   5.978   8.397   8.325
26281WAT      O79084   0.001   3.474   3.374
26281WAT     H179085   0.089   3.509   3.342
26281WAT     H279086  -0.015   3.382   3.336
26282WAT      O79087   3.834   7.976   2.746
26282WAT     H179088   3.836   8.060   2.801
26282WAT     H279089   3.910   7.977   2.682
26283WAT      O79090   2.891   3.046   3.434
26283WAT     H179091   2.887   3.126   3.374
26283WAT     H279092   2.923   3.073   3.525
26284WAT      O79093   6.876   1.401   9.584
26284WAT     H179094   6.842   1.452   9.505
26284WAT     H279095   6.919   1.464   9.649
26285WAT      O79096   1.506   3.480   3.518
26285WAT     H179097   1.568   3.422   3.570
26285WAT     H279098   1.490   3.565   3.569
26286WAT      O79099   3.728   8.832   0.098
26286WAT     H179100   3.805   8.823   0.035
26286WAT     H279101   3.642   8.825   0.047
26287WAT      O79102   9.265   7.517   8.008
26287WAT     H179103   9.304   7.431   8.042
26287WAT     H279104   9.244   7.577   8.085
26288WAT      O79105   3.078   1.688   8.474
26288WAT     H179106   2.988   1.659   8.444
26288WAT     H279107   3.076   1.785   8.497
26289WAT      O79108   4.870   8.268   0.614
26289WAT     H179109   4.951   8.307   0.571
26289WAT     H279110   4.796   8.335   0.614
26290WAT      O79111   8.093   0.806   0.452
26290WAT     H179112   8.152   0.729   0.427
26290WAT     H279113   8.028   0.777   0.522
26291WAT      O79114   8.720   7.396   7.309
26291WAT     H179115   8.640   7.455   7.320
26291WAT     H279116   8.740   7.383   7.212
26292WAT      O79117   8.036   6.654   0.965
26292WAT     H179118   7.937   6.670   0.963
26292WAT     H279119   8.074   6.672   0.874
26293WAT      O79120   4.284   2.654   4.956
26293WAT     H179121   4.307   2.560   4.982
26293WAT     H279122   4.353   2.688   4.892
26294WAT      O79123   1.589   0.176   0.132
26294WAT     H179124   1.631   0.169   0.041
26294WAT     H279125   1.495   0.141   0.128
26295WAT      O79126   2.065   8.093   4.459
26295WAT     H179127   2.099   8.136   4.376
26295WAT     H279128   2.140   8.082   4.524
26296WAT      O79129   7.697   4.149   0.607
26296WAT     H179130   7.763   4.211   0.648
26296WAT     H279131   7.608   4.193   0.602
26297WAT      O79132   0.229   9.713   8.989
26297WAT     H179133   0.271   9.757   9.069
26297WAT     H279134   0.137   9.681   9.013
26298WAT      O79135   0.877   5.984   8.918
26298WAT     H179136   0.784   5.954   8.941
26298WAT     H279137   0.890   5.979   8.819
26299WAT      O79138   2.207   0.103   7.000
26299WAT     H179139   2.265   0.118   7.080
26299WAT     H279140   2.122   0.058   7.028
26300WAT      O79141   7.033   6.701   3.122
26300WAT     H179142   7.032   6.727   3.025
26300WAT     H279143   7.035   6.601   3.129
26301WAT      O79144   6.859   4.782   8.942
26301WAT     H179145   6.814   4.696   8.965
26301WAT     H279146   6.799   4.837   8.884
26302WAT      O79147   9.210   6.958   6.008
26302WAT     H179148   9.309   6.970   6.005
26302WAT     H279149   9.165   7.035   5.963
26303WAT      O79150   1.671   5.887   9.169
26303WAT     H179151   1.590   5.845   9.209
26303WAT     H279152   1.731   5.815   9.133
26304WAT      O79153   2.132   3.707   1.867
26304WAT     H179154   2.099   3.651   1.791
26304WAT     H279155   2.075   3.691   1.948
26305WAT      O79156   6.755   9.804   6.591
26305WAT     H179157   6.812   9.869   6.541
26305WAT     H279158   6.745   9.720   6.537
26306WAT      O79159   7.362   7.265   4.262
26306WAT     H179160   7.398   7.184   4.309
26306WAT     H279161   7.289   7.238   4.200
26307WAT      O79162   1.475   3.929   4.012
26307WAT     H179163   1.460   3.949   4.109
26307WAT     H279164   1.393   3.951   3.960
26308WAT      O79165   3.588   7.693   8.507
26308WAT     H179166   3.565   7.697   8.409
26308WAT     H279167   3.687   7.700   8.517
26309WAT      O79168   3.894   0.804   1.928
26309WAT     H179169   3.888   0.736   1.855
26309WAT     H279170   3.871   0.761   2.016
26310WAT      O79171   2.500   2.576   6.630
26310WAT     H179172   2.546   2.492   6.601
26310WAT     H279173   2.438   2.606   6.558
26311WAT      O79174   2.369   7.086   3.820
26311WAT     H179175   2.272   7.109   3.822
26311WAT     H279176   2.420   7.156   3.870
26312WAT      O79177   0.292   0.145   3.712
26312WAT     H179178   0.345   0.070   3.671
26312WAT     H279179   0.352   0.200   3.770
26313WAT      O79180   1.418   1.370   3.472
26313WAT     H179181   1.425   1.285   3.421
26313WAT     H279182   1.426   1.351   3.570
26314WAT      O79183   7.643   1.353   2.999
26314WAT     H179184   7.735   1.331   3.028
26314WAT     H279185   7.589   1.269   2.992
26315WAT      O79186   5.006   9.235   7.313
26315WAT     H179187   5.062   9.167   7.266
26315WAT     H279188   4.949   9.282   7.246
26316WAT      O79189   5.879   5.208   0.316
26316WAT     H179190   5.945   5.174   0.249
26316WAT     H279191   5.898   5.305   0.334
26317WAT      O79192   7.985   1.834   8.944
26317WAT     H179193   8.068   1.871   8.902
26317WAT     H279194   7.905   1.858   8.888
26318WAT      O79195   4.671   0.107   8.751
26318WAT     H179196   4.637   0.018   8.722
26318WAT     H279197   4.770   0.110   8.740
26319WAT      O79198   8.696   0.715   5.210
26319WAT     H179199   8.778   0.732   5.264
26319WAT     H279200   8.691   0.781   5.135
26320WAT      O79201   2.274   0.675   2.912
26320WAT     H179202   2.240   0.581   2.911
26320WAT     H279203   2.226   0.727   2.982
26321WAT      O79204   5.614   4.299   0.700
26321WAT     H179205   5.601   4.351   0.784
26321WAT     H279206   5.525   4.281   0.657
26322WAT      O79207   9.259   2.624   1.158
26322WAT     H179208   9.245   2.566   1.078
26322WAT     H279209   9.357   2.641   1.171
26323WAT      O79210   0.415   3.637   4.708
26323WAT     H179211   0.499   3.692   4.706
26323WAT     H279212   0.359   3.664   4.785
26324WAT      O79213   2.324   5.456   5.407
26324WAT     H179214   2.330   5.540   5.353
26324WAT     H279215   2.249   5.400   5.373
26325WAT      O79216   3.409   3.223   7.255
26325WAT     H179217   3.444   3.317   7.250
26325WAT     H279218   3.331   3.212   7.194
26326WAT      O79219   7.839   9.487   3.027
26326WAT     H179220   7.870   9.451   3.114
26326WAT     H279221   7.908   9.550   2.991
26327WAT      O79222   9.364   2.417   6.945
26327WAT     H179223   9.388   2.370   6.860
26327WAT     H279224   9.277   2.381   6.980
26328WAT      O79225   9.435   5.269   8.108
26328WAT     H179226   9.533   5.270   8.131
26328WAT     H279227   9.409   5.358   8.070
26329WAT      O79228   5.443   8.271   0.160
26329WAT     H179229   5.483   8.199   0.103
26329WAT     H279230   5.509   8.346   0.170
26330WAT      O79231   5.361   7.604   9.400
26330WAT     H179232   5.325   7.515   9.426
26330WAT     H279233   5.293   7.653   9.345
26331WAT      O79234   8.657   5.757   1.498
26331WAT     H179235   8.697   5.819   1.565
26331WAT     H279236   8.685   5.663   1.519
26332WAT      O79237   0.427   6.662   8.413
26332WAT     H179238   0.463   6.740   8.464
26332WAT     H279239   0.337   6.638   8.449
26333WAT      O79240   3.064   6.138   0.765
26333WAT     H179241   3.003   6.104   0.837
26333WAT     H279242   3.144   6.079   0.759
26334WAT      O79243   1.221   4.688   0.208
26334WAT     H179244   1.251   4.726   0.120
26334WAT     H279245   1.284   4.617   0.237
26335WAT      O79246   8.041   2.523   4.064
26335WAT     H179247   8.099   2.443   4.049
26335WAT     H279248   8.092   2.606   4.040
26336WAT      O79249   5.219   5.995   7.740
26336WAT     H179250   5.296   5.973   7.799
26336WAT     H279251   5.221   6.093   7.718
26337WAT      O79252   3.529   2.644   0.608
26337WAT     H179253   3.508   2.547   0.598
26337WAT     H279254   3.628   2.657   0.615
26338WAT      O79255   2.823   1.956   4.967
26338WAT     H179256   2.765   1.972   4.887
26338WAT     H279257   2.891   2.029   4.973
26339WAT      O79258   3.463   0.940   3.680
26339WAT     H179259   3.480   0.905   3.772
26339WAT     H279260   3.442   1.037   3.684
26340WAT      O79261   9.698   5.250   8.148
26340WAT     H179262   9.689   5.215   8.055
26340WAT     H279263   9.783   5.301   8.156
26341WAT      O79264   5.742   0.789   0.559
26341WAT     H179265   5.696   0.877   0.569
26341WAT     H279266   5.680   0.724   0.515
26342WAT      O79267   5.684   8.160   4.427
26342WAT     H179268   5.755   8.170   4.496
26342WAT     H279269   5.650   8.251   4.401
26343WAT      O79270   5.849   6.826   2.463
26343WAT     H179271   5.815   6.895   2.527
26343WAT     H279272   5.810   6.843   2.372
26344WAT      O79273   2.253   3.421   0.656
26344WAT     H179274   2.319   3.443   0.727
26344WAT     H279275   2.161   3.415   0.697
26345WAT      O79276   1.872   7.151   2.568
26345WAT     H179277   1.780   7.168   2.603
26345WAT     H279278   1.885   7.201   2.482
26346WAT      O79279   1.117   8.244   5.441
26346WAT     H179280   1.084   8.334   5.470
26346WAT     H279281   1.089   8.175   5.508
26347WAT      O79282   6.938   9.415   3.912
26347WAT     H179283   6.927   9.322   3.878
26347WAT     H279284   6.874   9.431   3.987
26348WAT      O79285   9.657   9.567   4.829
26348WAT     H179286   9.738   9.567   4.770
26348WAT     H279287   9.627   9.473   4.844
26349WAT      O79288   1.408   6.165   1.492
26349WAT     H179289   1.387   6.095   1.423
26349WAT     H279290   1.411   6.255   1.448
26350WAT      O79291   2.945   3.484   8.030
26350WAT     H179292   3.038   3.452   8.042
26350WAT     H279293   2.881   3.414   8.060
26351WAT      O79294   6.161   5.247   1.475
26351WAT     H179295   6.178   5.157   1.515
26351WAT     H279296   6.191   5.318   1.539
26352WAT      O79297   4.242   4.138   6.772
26352WAT     H179298   4.311   4.180   6.830
26352WAT     H279299   4.172   4.206   6.748
26353WAT      O79300   1.994   2.586   5.895
26353WAT     H179301   1.966   2.681   5.880
26353WAT     H279302   1.977   2.533   5.812
26354WAT      O79303   2.114   3.998   5.294
26354WAT     H179304   2.196   3.951   5.328
26354WAT     H279305   2.140   4.063   5.224
26355WAT      O79306   2.830   9.451   2.409
26355WAT     H179307   2.877   9.539   2.396
26355WAT     H279308   2.881   9.396   2.476
26356WAT      O79309   4.179   2.060   3.181
26356WAT     H179310   4.167   1.982   3.120
26356WAT     H279311   4.270   2.099   3.169
26357WAT      O79312   4.389   1.495   0.431
26357WAT     H179313   4.430   1.435   0.362
26357WAT     H279314   4.353   1.439   0.506
26358WAT      O79315   6.523   1.841   1.965
26358WAT     H179316   6.460   1.800   1.900
26358WAT     H279317   6.611   1.794   1.960
26359WAT      O79318   5.898   9.780   0.053
26359WAT     H179319   5.919   9.759  -0.043
26359WAT     H279320   5.984   9.791   0.104
26360WAT      O79321   5.342   4.175   2.881
26360WAT     H179322   5.286   4.094   2.897
26360WAT     H279323   5.350   4.192   2.783
26361WAT      O79324   4.524   8.581   5.323
26361WAT     H179325   4.425   8.570   5.323
26361WAT     H279326   4.549   8.661   5.377
26362WAT      O79327   6.278   4.766   9.347
26362WAT     H179328   6.311   4.685   9.395
26362WAT     H279329   6.354   4.810   9.300
26363WAT      O79330   2.682   5.291   0.081
26363WAT     H179331   2.670   5.289   0.180
26363WAT     H279332   2.658   5.202   0.042
26364WAT      O79333   4.275   4.754   7.167
26364WAT     H179334   4.310   4.835   7.214
26364WAT     H279335   4.350   4.708   7.118
26365WAT      O79336   8.607   5.926   4.678
26365WAT     H179337   8.695   5.881   4.664
26365WAT     H279338   8.609   6.017   4.635
26366WAT      O79339   1.626   4.196   0.363
26366WAT     H179340   1.660   4.128   0.297
26366WAT     H279341   1.540   4.164   0.402
26367WAT      O79342   8.382   0.377   5.339
26367WAT     H179343   8.343   0.465   5.363
26367WAT     H279344   8.407   0.328   5.423
26368WAT      O79345   5.244   2.862   9.495
26368WAT     H179346   5.148   2.875   9.520
26368WAT     H279347   5.260   2.766   9.475
26369WAT      O79348   3.167   9.724   4.100
26369WAT     H179349   3.227   9.742   4.178
26369WAT     H279350   3.088   9.785   4.104
26370WAT      O79351   6.052   3.019   0.399
26370WAT     H179352   6.067   2.954   0.473
26370WAT     H279353   6.132   3.021   0.339
26371WAT      O79354   2.701   4.303   2.896
26371WAT     H179355   2.627   4.235   2.897
26371WAT     H279356   2.669   4.388   2.937
26372WAT      O79357   6.371   4.141   7.889
26372WAT     H179358   6.455   4.179   7.928
26372WAT     H279359   6.385   4.046   7.864
26373WAT      O79360   2.953   0.617   6.971
26373WAT     H179361   3.026   0.555   6.946
26373WAT     H279362   2.968   0.706   6.929
26374WAT      O79363   5.740   3.287   3.245
26374WAT     H179364   5.646   3.318   3.262
26374WAT     H279365   5.771   3.232   3.323
26375WAT      O79366   5.976   3.509   1.332
26375WAT     H179367   5.974   3.609   1.323
26375WAT     H279368   5.984   3.468   1.241
26376WAT      O79369   3.430   4.104   7.809
26376WAT     H179370   3.337   4.084   7.779
26376WAT     H279371   3.482   4.142   7.732
26377WAT      O79372   1.175   7.865   0.586
26377WAT     H179373   1.231   7.825   0.659
26377WAT     H279374   1.222   7.855   0.498
26378WAT      O79375   2.444   5.146   3.009
26378WAT     H179376   2.420   5.229   2.959
26378WAT     H279377   2.388   5.138   3.091
26379WAT      O79378   2.071   5.430   6.559
26379WAT     H179379   2.126   5.357   6.600
26379WAT     H279380   2.117   5.465   6.477
26380WAT      O79381   5.013   4.707   2.838
26380WAT     H179382   4.923   4.663   2.836
26380WAT     H279383   5.067   4.675   2.761
26381WAT      O79384   6.332   2.219   2.762
26381WAT     H179385   6.424   2.242   2.729
26381WAT     H279386   6.270   2.213   2.684
26382WAT      O79387   5.194   7.852   7.495
26382WAT     H179388   5.143   7.827   7.577
26382WAT     H279389   5.285   7.884   7.520
26383WAT      O79390   9.389   3.668   4.058
26383WAT     H179391   9.448   3.737   4.016
26383WAT     H279392   9.440   3.618   4.127
26384WAT      O79393   0.165   2.543   3.387
26384WAT     H179394   0.195   2.617   3.327
26384WAT     H279395   0.077   2.566   3.427
26385WAT      O79396   9.848   5.529   7.948
26385WAT     H179397   9.864   5.488   8.038
26385WAT     H279398   9.884   5.468   7.877
26386WAT      O79399   8.818   1.858   7.956
26386WAT     H179400   8.764   1.909   7.890
26386WAT     H279401   8.847   1.771   7.916
26387WAT      O79402   0.341   4.099   7.843
26387WAT     H179403   0.360   4.009   7.803
26387WAT     H279404   0.281   4.151   7.782
26388WAT      O79405   4.122   0.919   1.555
26388WAT     H179406   4.132   1.018   1.541
26388WAT     H279407   4.034   0.901   1.600
26389WAT      O79408   9.387   5.090   0.540
26389WAT     H179409   9.438   5.007   0.516
26389WAT     H279410   9.435   5.139   0.612
26390WAT      O79411   1.417   3.744   7.393
26390WAT     H179412   1.342   3.698   7.345
26390WAT     H279413   1.478   3.675   7.433
26391WAT      O79414   8.991   4.867   4.753
26391WAT     H179415   8.975   4.955   4.707
26391WAT     H279416   9.089   4.848   4.755
26392WAT      O79417   7.001   6.819   9.649
26392WAT     H179418   6.969   6.725   9.662
26392WAT     H279419   6.930   6.872   9.603
26393WAT      O79420   0.372   9.510   8.907
26393WAT     H179421   0.415   9.462   8.984
26393WAT     H279422   0.311   9.581   8.942
26394WAT      O79423   3.849   5.602   8.723
26394WAT     H179424   3.842   5.635   8.629
26394WAT     H279425   3.900   5.667   8.778
26395WAT      O79426   7.075   9.607   7.658
26395WAT     H179427   6.990   9.571   7.696
26395WAT     H279428   7.053   9.666   7.580
26396WAT      O79429   0.645   6.662   7.931
26396WAT     H179430   0.659   6.709   8.018
26396WAT     H279431   0.720   6.598   7.915
26397WAT      O79432   5.999   6.205   3.013
26397WAT     H179433   6.055   6.237   3.089
26397WAT     H279434   5.918   6.262   3.004
26398WAT      O79435   2.412   3.102   2.655
26398WAT     H179436   2.498   3.112   2.706
26398WAT     H279437   2.417   3.022   2.596
26399WAT      O79438   5.049   0.113   2.762
26399WAT     H179439   4.955   0.139   2.784
26399WAT     H279440   5.088   0.063   2.839
26400WAT      O79441   3.644   8.387   0.706
26400WAT     H179442   3.630   8.359   0.801
26400WAT     H279443   3.672   8.308   0.651
26401WAT      O79444   7.490   7.080   9.518
26401WAT     H179445   7.443   7.150   9.464
26401WAT     H279446   7.560   7.122   9.574
26402WAT      O79447   2.116   1.912   4.607
26402WAT     H179448   2.152   1.884   4.517
26402WAT     H279449   2.019   1.934   4.599
26403WAT      O79450   7.370   8.803   9.093
26403WAT     H179451   7.277   8.815   9.128
26403WAT     H279452   7.431   8.777   9.169
26404WAT      O79453   8.336   9.042   6.690
26404WAT     H179454   8.409   9.091   6.643
26404WAT     H279455   8.255   9.039   6.631
26405WAT      O79456   7.185   8.571   6.558
26405WAT     H179457   7.267   8.544   6.609
26405WAT     H279458   7.191   8.668   6.535
26406WAT      O79459   8.227   6.715   2.362
26406WAT     H179460   8.232   6.789   2.295
26406WAT     H279461   8.315   6.669   2.368
26407WAT      O79462   9.619   5.465   9.193
26407WAT     H179463   9.520   5.451   9.195
26407WAT     H279464   9.638   5.562   9.179
26408WAT      O79465   8.307   6.917   6.673
26408WAT     H179466   8.402   6.910   6.642
26408WAT     H279467   8.305   6.960   6.764
26409WAT      O79468   1.959   9.118   0.382
26409WAT     H179469   1.995   9.189   0.322
26409WAT     H279470   1.894   9.062   0.331
26410WAT      O79471   5.847   7.591   2.295
26410WAT     H179472   5.903   7.537   2.232
26410WAT     H279473   5.893   7.677   2.315
26411WAT      O79474   8.755   5.779   5.701
26411WAT     H179475   8.785   5.874   5.713
26411WAT     H279476   8.700   5.751   5.780
26412WAT      O79477   3.314   3.189   7.534
26412WAT     H179478   3.370   3.202   7.452
26412WAT     H279479   3.331   3.264   7.597
26413WAT      O79480   3.159   7.929   0.781
26413WAT     H179481   3.187   7.869   0.706
26413WAT     H279482   3.065   7.960   0.765
26414WAT      O79483   6.389   3.838   5.924
26414WAT     H179484   6.408   3.812   5.830
26414WAT     H279485   6.407   3.760   5.985
26415WAT      O79486   1.925   5.683   9.719
26415WAT     H179487   1.875   5.611   9.767
26415WAT     H279488   2.023   5.664   9.722
26416WAT      O79489   8.079   6.415   1.783
26416WAT     H179490   8.156   6.378   1.835
26416WAT     H279491   8.091   6.513   1.771
26417WAT      O79492   8.611   2.965   0.121
26417WAT     H179493   8.553   2.934   0.046
26417WAT     H279494   8.557   3.022   0.183
26418WAT      O79495   6.701   3.063   5.699
26418WAT     H179496   6.750   3.141   5.738
26418WAT     H279497   6.743   2.978   5.731
26419WAT      O79498   7.318   1.390   3.472
26419WAT     H179499   7.389   1.458   3.454
26419WAT     H279500   7.326   1.315   3.407
26420WAT      O79501   4.788   4.584   2.460
26420WAT     H179502   4.821   4.669   2.502
26420WAT     H279503   4.859   4.545   2.402
26421WAT      O79504   1.289   5.179   8.519
26421WAT     H179505   1.293   5.224   8.430
26421WAT     H279506   1.341   5.093   8.515
26422WAT      O79507   2.245   7.087   1.186
26422WAT     H179508   2.301   7.045   1.115
26422WAT     H279509   2.271   7.183   1.197
26423WAT      O79510   5.411   4.677   3.711
26423WAT     H179511   5.457   4.719   3.790
26423WAT     H279512   5.346   4.608   3.743
26424WAT      O79513   1.458   8.433   8.849
26424WAT     H179514   1.543   8.405   8.894
26424WAT     H279515   1.380   8.400   8.901
26425WAT      O79516   2.626   0.696   8.560
26425WAT     H179517   2.534   0.710   8.524
26425WAT     H279518   2.624   0.625   8.630
26426WAT      O79519   0.579   5.462   8.537
26426WAT     H179520   0.510   5.411   8.485
26426WAT     H279521   0.553   5.559   8.541
26427WAT      O79522   0.610   8.875   2.658
26427WAT     H179523   0.542   8.831   2.600
26427WAT     H279524   0.698   8.878   2.609
26428WAT      O79525   9.283   2.633   3.513
26428WAT     H179526   9.318   2.726   3.519
26428WAT     H279527   9.357   2.568   3.528
26429WAT      O79528   2.428   1.625   6.358
26429WAT     H179529   2.415   1.525   6.357
26429WAT     H279530   2.459   1.652   6.449
26430WAT      O79531   6.338   2.016   8.515
26430WAT     H179532   6.251   2.057   8.486
26430WAT     H279533   6.404   2.089   8.534
26431WAT      O79534   9.541   7.820   6.650
26431WAT     H179535   9.618   7.807   6.588
26431WAT     H279536   9.491   7.904   6.626
26432WAT      O79537   8.284   7.275   3.562
26432WAT     H179538   8.293   7.372   3.542
26432WAT     H279539   8.366   7.227   3.533
26433WAT      O79540   0.916   0.311   8.092
26433WAT     H179541   0.947   0.317   7.998
26433WAT     H279542   0.816   0.308   8.095
26434WAT      O79543   9.246   1.837   0.953
26434WAT     H179544   9.159   1.820   0.999
26434WAT     H279545   9.229   1.865   0.859
26435WAT      O79546   4.892   8.257   8.056
26435WAT     H179547   4.903   8.221   8.149
26435WAT     H279548   4.795   8.258   8.032
26436WAT      O79549   7.117   2.998   0.345
26436WAT     H179550   7.089   2.946   0.425
26436WAT     H279551   7.198   3.052   0.367
26437WAT      O79552   4.648   5.529   3.632
26437WAT     H179553   4.560   5.498   3.667
26437WAT     H279554   4.712   5.452   3.628
26438WAT      O79555   8.150   9.511   1.821
26438WAT     H179556   8.088   9.584   1.849
26438WAT     H279557   8.237   9.550   1.790
26439WAT      O79558   6.472   6.386   3.902
26439WAT     H179559   6.451   6.439   3.820
26439WAT     H279560   6.568   6.401   3.927
26440WAT      O79561   9.624   8.194   4.602
26440WAT     H179562   9.676   8.117   4.638
26440WAT     H279563   9.562   8.228   4.673
26441WAT      O79564   0.973   5.635   7.762
26441WAT     H179565   1.043   5.595   7.702
26441WAT     H279566   0.996   5.731   7.780
26442WAT      O79567   6.688   5.126   4.059
26442WAT     H179568   6.616   5.115   4.127
26442WAT     H279569   6.668   5.069   3.979
26443WAT      O79570   8.308   7.394   2.576
26443WAT     H179571   8.382   7.399   2.644
26443WAT     H279572   8.229   7.446   2.609
26444WAT      O79573   0.472   9.454   4.539
26444WAT     H179574   0.518   9.511   4.471
26444WAT     H279575   0.434   9.373   4.494
26445WAT      O79576   2.392   6.208   2.174
26445WAT     H179577   2.406   6.147   2.097
26445WAT     H279578   2.303   6.254   2.165
26446WAT      O79579   2.774   1.699   3.988
26446WAT     H179580   2.862   1.705   4.037
26446WAT     H279581   2.781   1.751   3.903
26447WAT      O79582   5.218   6.545   6.044
26447WAT     H179583   5.251   6.639   6.034
26447WAT     H279584   5.158   6.539   6.124
26448WAT      O79585   8.131   8.218   6.242
26448WAT     H179586   8.187   8.155   6.294
26448WAT     H279587   8.073   8.270   6.304
26449WAT      O79588   3.275   4.626   1.991
26449WAT     H179589   3.208   4.636   2.065
26449WAT     H279590   3.229   4.640   1.903
26450WAT      O79591   9.871   7.941   5.522
26450WAT     H179592   9.942   8.008   5.545
26450WAT     H279593   9.832   7.963   5.433
26451WAT      O79594   0.042   6.482   7.279
26451WAT     H179595  -0.027   6.543   7.241
26451WAT     H279596   0.123   6.483   7.220
26452WAT      O79597   6.820   7.864   9.643
26452WAT     H179598   6.730   7.831   9.670
26452WAT     H279599   6.827   7.962   9.663
26453WAT      O79600   8.683   1.062   8.270
26453WAT     H179601   8.674   1.066   8.369
26453WAT     H279602   8.643   0.977   8.236
26454WAT      O79603   2.288   1.845   8.391
26454WAT     H179604   2.382   1.838   8.357
26454WAT     H279605   2.225   1.813   8.320
26455WAT      O79606   3.139   8.236   5.555
26455WAT     H179607   3.089   8.322   5.555
26455WAT     H279608   3.112   8.181   5.476
26456WAT      O79609   0.856   1.601   0.869
26456WAT     H179610   0.897   1.643   0.950
26456WAT     H279611   0.841   1.671   0.799
26457WAT      O79612   7.329   4.164   1.324
26457WAT     H179613   7.334   4.260   1.297
26457WAT     H279614   7.332   4.106   1.243
26458WAT      O79615   0.203   7.016   9.687
26458WAT     H179616   0.176   6.921   9.673
26458WAT     H279617   0.130   7.076   9.656
26459WAT      O79618   4.789   3.818   7.150
26459WAT     H179619   4.865   3.863   7.196
26459WAT     H279620   4.732   3.771   7.217
26460WAT      O79621   2.151   3.607   3.958
26460WAT     H179622   2.063   3.567   3.980
26460WAT     H279623   2.180   3.667   4.032
26461WAT      O79624   9.807   3.285   1.103
26461WAT     H179625   9.820   3.379   1.134
26461WAT     H279626   9.814   3.281   1.004
26462WAT      O79627   7.884   1.239   6.426
26462WAT     H179628   7.810   1.186   6.386
26462WAT     H279629   7.851   1.288   6.507
26463WAT      O79630   9.259   4.185   6.048
26463WAT     H179631   9.330   4.187   5.978
26463WAT     H279632   9.302   4.188   6.139
26464WAT      O79633   5.171   0.926   8.816
26464WAT     H179634   5.155   0.835   8.778
26464WAT     H279635   5.191   0.919   8.914
26465WAT      O79636   5.311   7.056   6.776
26465WAT     H179637   5.281   6.963   6.755
26465WAT     H279638   5.251   7.122   6.731
26466WAT      O79639   0.714   8.348   4.677
26466WAT     H179640   0.680   8.259   4.646
26466WAT     H279641   0.790   8.377   4.618
26467WAT      O79642   5.604   5.894   2.248
26467WAT     H179643   5.592   5.951   2.329
26467WAT     H279644   5.658   5.813   2.272
26468WAT      O79645   5.664   1.942   2.813
26468WAT     H179646   5.756   1.959   2.850
26468WAT     H279647   5.600   2.007   2.854
26469WAT      O79648   8.636   5.243   1.092
26469WAT     H179649   8.724   5.214   1.130
26469WAT     H279650   8.618   5.194   1.007
26470WAT      O79651   5.423   1.551   1.143
26470WAT     H179652   5.391   1.575   1.234
26470WAT     H279653   5.521   1.534   1.145
26471WAT      O79654   8.673   6.748   9.833
26471WAT     H179655   8.631   6.709   9.751
26471WAT     H279656   8.724   6.831   9.808
26472WAT      O79657   4.746   1.390   2.610
26472WAT     H179658   4.669   1.359   2.554
26472WAT     H279659   4.719   1.470   2.663
26473WAT      O79660   8.265   2.365   3.348
26473WAT     H179661   8.171   2.398   3.338
26473WAT     H279662   8.263   2.271   3.382
26474WAT      O79663   3.978   6.263   2.678
26474WAT     H179664   3.903   6.198   2.671
26474WAT     H279665   3.945   6.354   2.652
26475WAT      O79666   0.252   2.189   5.567
26475WAT     H179667   0.259   2.202   5.468
26475WAT     H279668   0.184   2.118   5.586
26476WAT      O79669   4.606   0.964   7.286
26476WAT     H179670   4.541   1.025   7.330
26476WAT     H279671   4.559   0.881   7.256
26477WAT      O79672   9.447   7.947   0.621
26477WAT     H179673   9.376   8.009   0.587
26477WAT     H279674   9.442   7.861   0.572
26478WAT      O79675   6.630   8.624   2.387
26478WAT     H179676   6.727   8.635   2.407
26478WAT     H279677   6.617   8.541   2.333
26479WAT      O79678   2.419   6.064   1.971
26479WAT     H179679   2.366   5.980   1.977
26479WAT     H279680   2.391   6.115   1.890
26480WAT      O79681   8.494   6.782   5.150
26480WAT     H179682   8.519   6.763   5.245
26480WAT     H279683   8.424   6.854   5.148
26481WAT      O79684   0.289   6.467   1.981
26481WAT     H179685   0.247   6.445   2.069
26481WAT     H279686   0.379   6.423   1.975
26482WAT      O79687   7.389   9.538   1.824
26482WAT     H179688   7.368   9.483   1.744
26482WAT     H279689   7.305   9.555   1.876
26483WAT      O79690   9.735   8.404   3.759
26483WAT     H179691   9.638   8.387   3.774
26483WAT     H279692   9.778   8.430   3.846
26484WAT      O79693   7.575   2.685   5.158
26484WAT     H179694   7.560   2.673   5.060
26484WAT     H279695   7.670   2.663   5.180
26485WAT      O79696   0.888   5.237   1.978
26485WAT     H179697   0.878   5.170   2.052
26485WAT     H279698   0.898   5.188   1.891
26486WAT      O79699   2.557   6.432   2.083
26486WAT     H179700   2.624   6.460   2.152
26486WAT     H279701   2.513   6.347   2.113
26487WAT      O79702   0.899   9.293   4.661
26487WAT     H179703   0.868   9.354   4.734
26487WAT     H279704   0.826   9.280   4.595
26488WAT      O79705   2.425   3.916   9.426
26488WAT     H179706   2.478   3.839   9.392
26488WAT     H279707   2.382   3.964   9.349
26489WAT      O79708   6.961   6.785   8.538
26489WAT     H179709   6.985   6.882   8.539
26489WAT     H279710   7.045   6.730   8.531
26490WAT      O79711   4.631   4.904   8.029
26490WAT     H179712   4.593   4.812   8.019
26490WAT     H279713   4.705   4.901   8.097
26491WAT      O79714   6.663   2.437   0.799
26491WAT     H179715   6.656   2.533   0.826
26491WAT     H279716   6.606   2.421   0.718
26492WAT      O79717   6.581   8.454   7.820
26492WAT     H179718   6.534   8.415   7.899
26492WAT     H279719   6.658   8.510   7.852
26493WAT      O79720   4.569   3.737   5.200
26493WAT     H179721   4.496   3.801   5.225
26493WAT     H279722   4.557   3.710   5.104
26494WAT      O79723   9.319   0.328   3.030
26494WAT     H179724   9.417   0.310   3.034
26494WAT     H279725   9.292   0.344   2.934
26495WAT      O79726   0.594   8.882   5.268
26495WAT     H179727   0.569   8.950   5.199
26495WAT     H279728   0.683   8.843   5.246
26496WAT      O79729   9.470   0.941   2.531
26496WAT     H179730   9.536   0.874   2.498
26496WAT     H279731   9.479   1.026   2.479
26497WAT      O79732   3.343   9.804   9.489
26497WAT     H179733   3.280   9.743   9.442
26497WAT     H279734   3.419   9.827   9.429
26498WAT      O79735   5.953   7.624   0.976
26498WAT     H179736   5.867   7.642   1.024
26498WAT     H279737   6.030   7.639   1.038
26499WAT      O79738   5.712   9.261   5.979
26499WAT     H179739   5.762   9.174   5.972
26499WAT     H279740   5.667   9.266   6.068
26500WAT      O79741   3.855   6.265   9.025
26500WAT     H179742   3.873   6.295   9.118
26500WAT     H279743   3.933   6.212   8.992
26501WAT      O79744   6.115   0.555   6.774
26501WAT     H179745   6.089   0.616   6.699
26501WAT     H279746   6.072   0.466   6.760
26502WAT      O79747   9.852   8.292   3.546
26502WAT     H179748   9.789   8.343   3.605
26502WAT     H279749   9.848   8.195   3.568
26503WAT      O79750   4.527   9.691   3.830
26503WAT     H179751   4.457   9.687   3.901
26503WAT     H279752   4.510   9.770   3.771
26504WAT      O79753   2.834   1.183   5.257
26504WAT     H179754   2.907   1.165   5.190
26504WAT     H279755   2.751   1.135   5.229
26505WAT      O79756   5.332   8.624   7.519
26505WAT     H179757   5.335   8.531   7.555
26505WAT     H279758   5.383   8.685   7.581
26506WAT      O79759   4.956   5.620   6.289
26506WAT     H179760   4.869   5.647   6.332
26506WAT     H279761   4.936   5.570   6.204
26507WAT      O79762   1.154   8.965   7.870
26507WAT     H179763   1.133   8.944   7.966
26507WAT     H279764   1.178   8.881   7.821
26508WAT      O79765   8.114   0.058   8.432
26508WAT     H179766   8.038   0.078   8.372
26508WAT     H279767   8.100  -0.032   8.475
26509WAT      O79768   8.321   5.831   2.964
26509WAT     H179769   8.287   5.913   3.011
26509WAT     H279770   8.271   5.751   2.997
26510WAT      O79771   7.676   5.962   4.646
26510WAT     H179772   7.690   5.911   4.561
26510WAT     H279773   7.591   5.931   4.689
26511WAT      O79774   6.491   7.273   1.513
26511WAT     H179775   6.567   7.246   1.573
26511WAT     H279776   6.525   7.283   1.419
26512WAT      O79777   7.958   3.424   6.742
26512WAT     H179778   7.898   3.485   6.794
26512WAT     H279779   8.035   3.397   6.800
26513WAT      O79780   9.390   7.767   5.449
26513WAT     H179781   9.345   7.797   5.533
26513WAT     H279782   9.411   7.847   5.392
26514WAT      O79783   4.978   4.952   7.320
26514WAT     H179784   4.888   4.954   7.277
26514WAT     H279785   5.007   4.858   7.334
26515WAT      O79786   3.031   2.384   1.247
26515WAT     H179787   2.949   2.425   1.287
26515WAT     H279788   3.023   2.285   1.247
26516WAT      O79789   9.379   9.378   9.170
26516WAT     H179790   9.398   9.405   9.076
26516WAT     H279791   9.285   9.344   9.176
26517WAT      O79792   0.817   4.667   2.505
26517WAT     H179793   0.915   4.648   2.499
26517WAT     H279794   0.767   4.581   2.506
26518WAT      O79795   4.696   4.446   4.445
26518WAT     H179796   4.677   4.536   4.405
26518WAT     H279797   4.776   4.407   4.399
26519WAT      O79798   1.871   4.836   3.775
26519WAT     H179799   1.794   4.774   3.790
26519WAT     H279800   1.878   4.900   3.852
26520WAT      O79801   8.387   2.824   9.858
26520WAT     H179802   8.347   2.796   9.945
26520WAT     H279803   8.397   2.744   9.798
26521WAT      O79804   0.110   1.065   2.552
26521WAT     H179805   0.194   1.088   2.503
26521WAT     H279806   0.124   0.982   2.606
26522WAT      O79807   6.463   2.082   1.077
26522WAT     H179808   6.506   2.127   1.155
26522WAT     H279809   6.511   2.107   0.993
26523WAT      O79810   3.561   9.603   7.247
26523WAT     H179811   3.529   9.684   7.198
26523WAT     H279812   3.588   9.628   7.340
26524WAT      O79813   1.928   3.497   7.026
26524WAT     H179814   1.988   3.424   6.994
26524WAT     H279815   1.984   3.571   7.063
26525WAT      O79816   1.110   2.745   8.917
26525WAT     H179817   1.147   2.817   8.975
26525WAT     H279818   1.178   2.720   8.848
26526WAT      O79819   3.335   2.120   0.397
26526WAT     H179820   3.340   2.100   0.495
26526WAT     H279821   3.318   2.035   0.347
26527WAT      O79822   2.821   8.798   5.208
26527WAT     H179823   2.896   8.851   5.169
26527WAT     H279824   2.856   8.710   5.240
26528WAT      O79825   4.268   3.455   2.485
26528WAT     H179826   4.173   3.486   2.481
26528WAT     H279827   4.324   3.510   2.423
26529WAT      O79828   3.873   9.204   2.930
26529WAT     H179829   3.833   9.258   3.004
26529WAT     H279830   3.951   9.254   2.891
26530WAT      O79831   8.855   1.238   7.855
26530WAT     H179832   8.843   1.317   7.795
26530WAT     H279833   8.946   1.199   7.840
26531WAT      O79834   6.905   9.790   3.535
26531WAT     H179835   6.813   9.825   3.515
26531WAT     H279836   6.958   9.861   3.582
26532WAT      O79837   5.552   7.488   3.483
26532WAT     H179838   5.600   7.451   3.563
26532WAT     H279839   5.550   7.419   3.411
26533WAT      O79840   9.791   0.606   5.237
26533WAT     H179841   9.733   0.614   5.318
26533WAT     H279842   9.845   0.523   5.243
26534WAT      O79843   2.679   1.006   7.015
26534WAT     H179844   2.650   0.917   6.979
26534WAT     H279845   2.632   1.079   6.966
26535WAT      O79846   3.818   6.036   9.682
26535WAT     H179847   3.874   6.069   9.758
26535WAT     H279848   3.866   6.051   9.596
26536WAT      O79849   7.708   1.174   6.901
26536WAT     H179850   7.668   1.091   6.939
26536WAT     H279851   7.807   1.174   6.918
26537WAT      O79852   7.509   4.510   9.469
26537WAT     H179853   7.437   4.441   9.481
26537WAT     H279854   7.519   4.563   9.553
26538WAT      O79855   3.107   1.389   5.126
26538WAT     H179856   3.046   1.414   5.051
26538WAT     H279857   3.133   1.293   5.118
26539WAT      O79858   5.119   1.022   5.684
26539WAT     H179859   5.038   0.968   5.707
26539WAT     H279860   5.095   1.089   5.614
26540WAT      O79861   1.954   0.693   7.591
26540WAT     H179862   1.941   0.608   7.641
26540WAT     H279863   1.923   0.770   7.647
26541WAT      O79864   8.404   3.374   4.233
26541WAT     H179865   8.357   3.449   4.279
26541WAT     H279866   8.503   3.381   4.251
26542WAT      O79867   7.838   7.344   6.455
26542WAT     H179868   7.934   7.321   6.439
26542WAT     H279869   7.807   7.408   6.384
26543WAT      O79870   7.390   7.543   7.814
26543WAT     H179871   7.395   7.628   7.866
26543WAT     H279872   7.474   7.531   7.761
26544WAT      O79873   8.533   6.704   5.409
26544WAT     H179874   8.583   6.743   5.486
26544WAT     H279875   8.435   6.725   5.418
26545WAT      O79876   5.475   6.320   2.441
26545WAT     H179877   5.383   6.317   2.481
26545WAT     H279878   5.515   6.411   2.455
26546WAT      O79879   1.293   1.154   7.035
26546WAT     H179880   1.224   1.087   7.007
26546WAT     H279881   1.336   1.124   7.119
26547WAT      O79882   1.983   0.702   7.119
26547WAT     H179883   1.941   0.617   7.086
26547WAT     H279884   2.065   0.721   7.066
26548WAT      O79885   4.039   2.919   9.628
26548WAT     H179886   3.951   2.887   9.594
26548WAT     H279887   4.113   2.880   9.572
26549WAT      O79888   3.625   4.946   0.131
26549WAT     H179889   3.681   4.919   0.053
26549WAT     H279890   3.532   4.967   0.101
26550WAT      O79891   9.461   6.362   7.311
26550WAT     H179892   9.408   6.335   7.392
26550WAT     H279893   9.403   6.418   7.252
26551WAT      O79894   5.083   1.618   1.791
26551WAT     H179895   5.002   1.565   1.767
26551WAT     H279896   5.058   1.713   1.809
26552WAT      O79897   3.587   5.453   2.194
26552WAT     H179898   3.650   5.377   2.182
26552WAT     H279899   3.504   5.437   2.141
26553WAT      O79900   0.667   3.217   4.962
26553WAT     H179901   0.710   3.170   5.039
26553WAT     H279902   0.718   3.198   4.878
26554WAT      O79903   4.055   2.674   1.678
26554WAT     H179904   3.999   2.619   1.616
26554WAT     H279905   4.075   2.620   1.761
26555WAT      O79906   1.108   9.030   1.430
26555WAT     H179907   1.196   8.981   1.424
26555WAT     H279908   1.055   8.993   1.507
26556WAT      O79909   2.360   8.151   6.095
26556WAT     H179910   2.446   8.127   6.140
26556WAT     H279911   2.293   8.078   6.107
26557WAT      O79912   3.199   7.975   6.093
26557WAT     H179913   3.161   7.981   6.001
26557WAT     H279914   3.277   8.037   6.100
26558WAT      O79915   4.299   3.279   1.532
26558WAT     H179916   4.297   3.374   1.500
26558WAT     H279917   4.209   3.255   1.568
26559WAT      O79918   2.979   9.517   3.586
26559WAT     H179919   2.962   9.455   3.662
26559WAT     H279920   2.930   9.603   3.601
26560WAT      O79921   6.933   2.646   4.864
26560WAT     H179922   6.942   2.635   4.963
26560WAT     H279923   7.002   2.591   4.818
26561WAT      O79924   9.089   5.003   6.340
26561WAT     H179925   9.035   5.078   6.302
26561WAT     H279926   9.176   4.998   6.292
26562WAT      O79927   4.534   7.518   6.679
26562WAT     H179928   4.546   7.466   6.764
26562WAT     H279929   4.569   7.610   6.691
26563WAT      O79930   0.435   7.459   7.582
26563WAT     H179931   0.498   7.397   7.535
26563WAT     H279932   0.344   7.451   7.541
26564WAT      O79933   7.335   6.091   8.134
26564WAT     H179934   7.278   6.013   8.110
26564WAT     H279935   7.365   6.082   8.229
26565WAT      O79936   2.549   0.635   9.173
26565WAT     H179937   2.465   0.602   9.217
26565WAT     H279938   2.592   0.702   9.233
26566WAT      O79939   2.432   2.893   2.475
26566WAT     H179940   2.473   2.807   2.444
26566WAT     H279941   2.341   2.903   2.433
26567WAT      O79942   8.235   4.347   2.671
26567WAT     H179943   8.147   4.391   2.661
26567WAT     H279944   8.225   4.265   2.729
26568WAT      O79945   3.853   7.404   8.835
26568WAT     H179946   3.796   7.364   8.762
26568WAT     H279947   3.922   7.338   8.863
26569WAT      O79948   7.390   2.632   8.797
26569WAT     H179949   7.401   2.703   8.865
26569WAT     H279950   7.470   2.573   8.796
26570WAT      O79951   6.519   4.607   6.532
26570WAT     H179952   6.449   4.628   6.464
26570WAT     H279953   6.592   4.675   6.528
26571WAT      O79954   7.045   6.866   3.996
26571WAT     H179955   6.953   6.849   4.030
26571WAT     H279956   7.112   6.846   4.067
26572WAT      O79957   1.038   0.100   2.959
26572WAT     H179958   0.961   0.077   3.018
26572WAT     H279959   1.086   0.179   2.997
26573WAT      O79960   6.442   3.802   3.895
26573WAT     H179961   6.508   3.878   3.894
26573WAT     H279962   6.359   3.829   3.846
26574WAT      O79963   6.605   5.896   6.252
26574WAT     H179964   6.637   5.841   6.174
26574WAT     H279965   6.656   5.982   6.255
26575WAT      O79966   3.481   2.082   9.178
26575WAT     H179967   3.438   2.022   9.245
26575WAT     H279968   3.489   2.034   9.091
26576WAT      O79969   2.316   8.562   6.927
26576WAT     H179970   2.380   8.488   6.903
26576WAT     H279971   2.244   8.526   6.986
26577WAT      O79972   8.141   8.563   8.985
26577WAT     H179973   8.140   8.510   9.069
26577WAT     H279974   8.047   8.578   8.953
26578WAT      O79975   7.804   9.267   4.878
26578WAT     H179976   7.742   9.247   4.802
26578WAT     H279977   7.791   9.362   4.907
26579WAT      O79978   1.423   3.314   7.411
26579WAT     H179979   1.351   3.312   7.480
26579WAT     H279980   1.454   3.221   7.391
26580WAT      O79981   4.678   7.109   2.474
26580WAT     H179982   4.633   7.022   2.494
26580WAT     H279983   4.773   7.106   2.506
26581WAT      O79984   8.378   6.287   8.330
26581WAT     H179985   8.303   6.326   8.277
26581WAT     H279986   8.433   6.227   8.272
26582WAT      O79987   5.689   2.994   7.466
26582WAT     H179988   5.620   3.038   7.523
26582WAT     H279989   5.686   2.895   7.479
26583WAT      O79990   7.965   1.384   7.806
26583WAT     H179991   8.049   1.352   7.761
26583WAT     H279992   7.885   1.347   7.758
26584WAT      O79993   8.175   2.818   2.780
26584WAT     H179994   8.238   2.832   2.704
26584WAT     H279995   8.226   2.815   2.866
26585WAT      O79996   7.920   6.345   9.747
26585WAT     H179997   7.946   6.440   9.762
26585WAT     H279998   7.829   6.341   9.705
26586WAT      O79999   8.549   4.085   7.690
26586WAT     H180000   8.473   4.046   7.638
26586WAT     H280001   8.565   4.179   7.660
26587WAT      O80002   8.183   8.194   3.515
26587WAT     H180003   8.254   8.241   3.567
26587WAT     H280004   8.210   8.099   3.499
26588WAT      O80005   8.975   6.422   5.820
26588WAT     H180006   8.891   6.374   5.795
26588WAT     H280007   8.952   6.505   5.871
26589WAT      O80008   6.233   1.332   9.812
26589WAT     H180009   6.160   1.333   9.880
26589WAT     H280010   6.311   1.385   9.847
26590WAT      O80011   6.510   2.961   0.899
26590WAT     H180012   6.439   2.937   0.833
26590WAT     H280013   6.471   3.017   0.972
26591WAT      O80014   4.394   3.579   9.449
26591WAT     H180015   4.367   3.556   9.355
26591WAT     H280016   4.312   3.591   9.505
26592WAT      O80017   6.845   5.610   8.221
26592WAT     H180018   6.876   5.606   8.316
26592WAT     H280019   6.887   5.537   8.168
26593WAT      O80020   5.692   1.722   5.742
26593WAT     H180021   5.594   1.700   5.738
26593WAT     H280022   5.742   1.656   5.686
26594WAT      O80023   3.637   5.714   2.165
26594WAT     H180024   3.612   5.621   2.191
26594WAT     H280025   3.734   5.718   2.141
26595WAT      O80026   5.812   3.544   1.544
26595WAT     H180027   5.743   3.616   1.537
26595WAT     H280028   5.865   3.540   1.460
26596WAT      O80029   8.068   1.289   1.023
26596WAT     H180030   8.036   1.369   0.972
26596WAT     H280031   8.011   1.277   1.105
26597WAT      O80032   7.046   0.887   7.990
26597WAT     H180033   6.949   0.897   8.012
26597WAT     H280034   7.097   0.964   8.029
26598WAT      O80035   4.309   2.155   3.537
26598WAT     H180036   4.225   2.127   3.583
26598WAT     H280037   4.346   2.237   3.581
26599WAT      O80038   8.479   3.488   4.822
26599WAT     H180039   8.558   3.448   4.867
26599WAT     H280040   8.395   3.451   4.861
26600WAT      O80041   8.147   1.136   4.750
26600WAT     H180042   8.206   1.115   4.672
26600WAT     H280043   8.070   1.192   4.719
26601WAT      O80044   3.409   9.694   5.711
26601WAT     H180045   3.493   9.694   5.656
26601WAT     H280046   3.331   9.718   5.654
26602WAT      O80047   7.422   4.962   8.278
26602WAT     H180048   7.480   4.944   8.198
26602WAT     H280049   7.339   4.907   8.272
26603WAT      O80050   2.359   9.572   7.595
26603WAT     H180051   2.322   9.576   7.502
26603WAT     H280052   2.287   9.547   7.659
26604WAT      O80053   7.944   7.132   1.894
26604WAT     H180054   7.941   7.076   1.977
26604WAT     H280055   7.981   7.222   1.916
26605WAT      O80056   0.798   8.053   8.070
26605WAT     H180057   0.878   8.009   8.110
26605WAT     H280058   0.731   8.072   8.142
26606WAT      O80059   3.833   7.680   7.615
26606WAT     H180060   3.766   7.685   7.690
26606WAT     H280061   3.900   7.609   7.636
26607WAT      O80062   7.735   3.679   0.161
26607WAT     H180063   7.766   3.605   0.221
26607WAT     H280064   7.706   3.641   0.074
26608WAT      O80065   7.548   8.717   8.892
26608WAT     H180066   7.488   8.737   8.970
26608WAT     H280067   7.492   8.709   8.809
26609WAT      O80068   8.908   6.730   4.036
26609WAT     H180069   8.845   6.665   4.077
26609WAT     H280070   8.949   6.786   4.108
26610WAT      O80071   6.335   8.446   8.686
26610WAT     H180072   6.366   8.537   8.712
26610WAT     H280073   6.239   8.435   8.711
26611WAT      O80074   6.510   3.524   4.928
26611WAT     H180075   6.521   3.555   5.022
26611WAT     H280076   6.460   3.593   4.876
26612WAT      O80077   3.018   7.649   7.298
26612WAT     H180078   3.019   7.605   7.388
26612WAT     H280079   2.969   7.736   7.304
26613WAT      O80080   0.182   9.470   3.870
26613WAT     H180081   0.200   9.510   3.780
26613WAT     H280082   0.260   9.414   3.898
26614WAT      O80083   7.138   7.050   1.931
26614WAT     H180084   7.088   7.080   1.850
26614WAT     H280085   7.230   7.020   1.905
26615WAT      O80086   8.571   1.597   0.644
26615WAT     H180087   8.653   1.628   0.691
26615WAT     H280088   8.574   1.497   0.634
26616WAT      O80089   7.869   8.394   2.672
26616WAT     H180090   7.959   8.365   2.640
26616WAT     H280091   7.798   8.335   2.633
26617WAT      O80092   6.735   0.776   4.828
26617WAT     H180093   6.754   0.856   4.770
26617WAT     H280094   6.697   0.703   4.772
26618WAT      O80095   4.855   1.737   2.007
26618WAT     H180096   4.776   1.793   2.030
26618WAT     H280097   4.852   1.713   1.910
26619WAT      O80098   1.553   2.306   0.332
26619WAT     H180099   1.557   2.360   0.248
26619WAT     H280100   1.457   2.289   0.356
26620WAT      O80101   7.389   4.353   8.634
26620WAT     H180102   7.449   4.430   8.614
26620WAT     H280103   7.398   4.328   8.730
26621WAT      O80104   5.485   8.361   7.137
26621WAT     H180105   5.527   8.370   7.047
26621WAT     H280106   5.392   8.326   7.127
26622WAT      O80107   8.818   1.817   0.443
26622WAT     H180108   8.775   1.906   0.459
26622WAT     H280109   8.747   1.748   0.424
26623WAT      O80110   0.907   7.496   7.552
26623WAT     H180111   0.868   7.405   7.538
26623WAT     H280112   0.917   7.542   7.464
26624WAT      O80113   7.185   8.778   6.880
26624WAT     H180114   7.144   8.741   6.964
26624WAT     H280115   7.130   8.855   6.847
26625WAT      O80116   0.197   7.994   6.336
26625WAT     H180117   0.253   7.911   6.345
26625WAT     H280118   0.124   7.977   6.270
26626WAT      O80119   4.064   4.024   2.335
26626WAT     H180120   4.010   4.107   2.322
26626WAT     H280121   4.078   4.009   2.433
26627WAT      O80122   1.272   5.440   5.502
26627WAT     H180123   1.264   5.363   5.439
26627WAT     H280124   1.217   5.423   5.583
26628WAT      O80125   7.543   6.963   2.158
26628WAT     H180126   7.447   6.956   2.186
26628WAT     H280127   7.571   7.059   2.159
26629WAT      O80128   2.816   0.662   8.097
26629WAT     H180129   2.754   0.665   8.019
26629WAT     H280130   2.770   0.697   8.178
26630WAT      O80131   6.439   1.702   1.532
26630WAT     H180132   6.410   1.725   1.625
26630WAT     H280133   6.366   1.653   1.485
26631WAT      O80134   5.972   0.051   1.927
26631WAT     H180135   6.039   0.001   1.983
26631WAT     H280136   6.004   0.145   1.915
26632WAT      O80137   9.296   1.458   7.281
26632WAT     H180138   9.340   1.513   7.210
26632WAT     H280139   9.347   1.372   7.292
26633WAT      O80140   4.960   4.823   6.627
26633WAT     H180141   5.038   4.768   6.598
26633WAT     H280142   4.962   4.834   6.726
26634WAT      O80143   5.432   7.084   3.541
26634WAT     H180144   5.429   7.151   3.467
26634WAT     H280145   5.510   7.103   3.600
26635WAT      O80146   1.529   3.450   0.045
26635WAT     H180147   1.573   3.360   0.042
26635WAT     H280148   1.530   3.490  -0.047
26636WAT      O80149   0.955   5.516   0.994
26636WAT     H180150   0.898   5.533   0.914
26636WAT     H280151   0.899   5.479   1.068
26637WAT      O80152   2.428   0.648   6.632
26637WAT     H180153   2.423   0.585   6.555
26637WAT     H280154   2.358   0.624   6.699
26638WAT      O80155   8.528   8.168   4.644
26638WAT     H180156   8.434   8.162   4.676
26638WAT     H280157   8.590   8.133   4.714
26639WAT      O80158   6.899   1.156   0.037
26639WAT     H180159   6.820   1.172  -0.022
26639WAT     H280160   6.938   1.243   0.064
26640WAT      O80161   4.011   5.653   9.819
26640WAT     H180162   4.082   5.692   9.760
26640WAT     H280163   3.942   5.608   9.763
26641WAT      O80164   5.285   6.605   3.253
26641WAT     H180165   5.213   6.595   3.185
26641WAT     H280166   5.303   6.703   3.268
26642WAT      O80167   4.483   1.581   8.759
26642WAT     H180168   4.515   1.538   8.675
26642WAT     H280169   4.420   1.519   8.806
26643WAT      O80170   5.941   3.254   0.449
26643WAT     H180171   5.854   3.234   0.404
26643WAT     H280172   6.005   3.179   0.432
26644WAT      O80173   6.327   7.009   4.779
26644WAT     H180174   6.330   6.920   4.735
26644WAT     H280175   6.310   6.998   4.877
26645WAT      O80176   6.623   0.813   1.954
26645WAT     H180177   6.599   0.768   2.040
26645WAT     H280178   6.576   0.768   1.879
26646WAT      O80179   7.434   8.108   2.709
26646WAT     H180180   7.465   8.097   2.804
26646WAT     H280181   7.473   8.191   2.670
26647WAT      O80182   7.327   5.902   0.535
26647WAT     H180183   7.318   6.002   0.538
26647WAT     H280184   7.327   5.872   0.440
26648WAT      O80185   7.849   4.800   0.701
26648WAT     H180186   7.755   4.829   0.682
26648WAT     H280187   7.858   4.702   0.681
26649WAT      O80188   8.841   5.063   3.307
26649WAT     H180189   8.908   5.132   3.280
26649WAT     H280190   8.816   5.077   3.403
26650WAT      O80191   7.240   3.720   7.495
26650WAT     H180192   7.188   3.783   7.437
26650WAT     H280193   7.337   3.723   7.468
26651WAT      O80194   1.315   2.733   2.586
26651WAT     H180195   1.283   2.827   2.583
26651WAT     H280196   1.366   2.712   2.502
26652WAT      O80197   1.858   1.331   4.557
26652WAT     H180198   1.922   1.259   4.529
26652WAT     H280199   1.777   1.328   4.498
26653WAT      O80200   4.510   4.935   2.967
26653WAT     H180201   4.600   4.963   2.934
26653WAT     H280202   4.443   4.942   2.892
26654WAT      O80203   9.430   1.170   0.851
26654WAT     H180204   9.416   1.269   0.855
26654WAT     H280205   9.526   1.148   0.869
26655WAT      O80206   7.671   8.389   9.512
26655WAT     H180207   7.594   8.335   9.547
26655WAT     H280208   7.757   8.344   9.537
26656WAT      O80209   3.696   9.054   5.153
26656WAT     H180210   3.680   9.076   5.056
26656WAT     H280211   3.610   9.028   5.196
26657WAT      O80212   0.999   7.219   6.284
26657WAT     H180213   0.975   7.147   6.219
26657WAT     H280214   0.995   7.308   6.239
26658WAT      O80215   5.583   8.720   5.114
26658WAT     H180216   5.522   8.796   5.091
26658WAT     H280217   5.623   8.684   5.030
26659WAT      O80218   0.873   6.639   8.894
26659WAT     H180219   0.934   6.622   8.817
26659WAT     H280220   0.832   6.730   8.884
26660WAT      O80221   5.745   9.291   7.897
26660WAT     H180222   5.821   9.355   7.881
26660WAT     H280223   5.667   9.340   7.934
26661WAT      O80224   8.337   8.890   9.657
26661WAT     H180225   8.240   8.903   9.639
26661WAT     H280226   8.350   8.821   9.728
26662WAT      O80227   5.936   2.071   4.659
26662WAT     H180228   5.915   2.166   4.685
26662WAT     H280229   5.860   2.012   4.684
26663WAT      O80230   0.530   0.231   6.549
26663WAT     H180231   0.628   0.218   6.562
26663WAT     H280232   0.515   0.290   6.469
26664WAT      O80233   8.487   5.437   2.463
26664WAT     H180234   8.397   5.413   2.426
26664WAT     H280235   8.476   5.472   2.556
26665WAT      O80236   5.097   2.380   0.085
26665WAT     H180237   5.164   2.307   0.095
26665WAT     H280238   5.099   2.439   0.166
26666WAT      O80239   3.868   5.565   5.051
26666WAT     H180240   3.825   5.516   5.127
26666WAT     H280241   3.889   5.501   4.978
26667WAT      O80242   2.670   4.698   5.899
26667WAT     H180243   2.642   4.717   5.993
26667WAT     H280244   2.737   4.624   5.898
26668WAT      O80245   0.366   0.207   9.785
26668WAT     H180246   0.329   0.299   9.769
26668WAT     H280247   0.365   0.188   9.883
26669WAT      O80248   6.374   9.825   3.821
26669WAT     H180249   6.309   9.806   3.894
26669WAT     H280250   6.464   9.846   3.860
26670WAT      O80251   9.781   2.984   8.718
26670WAT     H180252   9.698   2.929   8.709
26670WAT     H280253   9.861   2.923   8.724
26671WAT      O80254   3.546   2.991   7.273
26671WAT     H180255   3.479   2.917   7.263
26671WAT     H280256   3.500   3.079   7.266
26672WAT      O80257   2.411   3.702   7.080
26672WAT     H180258   2.397   3.603   7.072
26672WAT     H280259   2.411   3.727   7.177
26673WAT      O80260   7.808   4.741   7.966
26673WAT     H180261   7.857   4.653   7.972
26673WAT     H280262   7.874   4.816   7.975
26674WAT      O80263   7.912   0.231   3.027
26674WAT     H180264   7.989   0.171   3.047
26674WAT     H280265   7.829   0.177   3.017
26675WAT      O80266   1.405   9.569   0.336
26675WAT     H180267   1.413   9.475   0.369
26675WAT     H280268   1.460   9.630   0.394
26676WAT      O80269   2.851   2.655   0.950
26676WAT     H180270   2.860   2.659   0.850
26676WAT     H280271   2.793   2.578   0.975
26677WAT      O80272   7.529   6.527   2.002
26677WAT     H180273   7.587   6.460   2.049
26677WAT     H280274   7.434   6.516   2.032
26678WAT      O80275   0.163   5.185   2.259
26678WAT     H180276   0.124   5.275   2.278
26678WAT     H280277   0.139   5.158   2.165
26679WAT      O80278   3.917   5.256   3.069
26679WAT     H180279   3.963   5.345   3.066
26679WAT     H280280   3.966   5.196   3.132
26680WAT      O80281   1.848   4.010   9.746
26680WAT     H180282   1.802   4.098   9.756
26680WAT     H280283   1.944   4.020   9.773
26681WAT      O80284   7.145   3.853   8.221
26681WAT     H180285   7.090   3.804   8.288
26681WAT     H280286   7.143   3.951   8.241
26682WAT      O80287   6.693   1.846   1.622
26682WAT     H180288   6.744   1.811   1.700
26682WAT     H280289   6.633   1.774   1.587
26683WAT      O80290   9.226   3.024   0.682
26683WAT     H180291   9.299   2.961   0.653
26683WAT     H280292   9.238   3.112   0.636
26684WAT      O80293   5.662   9.160   2.908
26684WAT     H180294   5.663   9.180   3.006
26684WAT     H280295   5.588   9.096   2.888
26685WAT      O80296   7.968   4.183   4.186
26685WAT     H180297   7.997   4.135   4.269
26685WAT     H280298   8.046   4.194   4.125
26686WAT      O80299   9.821   8.789   3.784
26686WAT     H180300   9.761   8.727   3.735
26686WAT     H280301   9.783   8.882   3.780
26687WAT      O80302   0.884   8.305   3.090
26687WAT     H180303   0.809   8.363   3.058
26687WAT     H280304   0.849   8.213   3.107
26688WAT      O80305   6.171   5.929   5.588
26688WAT     H180306   6.135   5.920   5.495
26688WAT     H280307   6.233   5.853   5.607
26689WAT      O80308   6.414   4.552   0.083
26689WAT     H180309   6.391   4.640   0.125
26689WAT     H280310   6.331   4.509   0.048
26690WAT      O80311   7.965   2.097   0.763
26690WAT     H180312   8.053   2.133   0.793
26690WAT     H280313   7.956   2.111   0.664
26691WAT      O80314   7.444   7.022   3.898
26691WAT     H180315   7.357   7.071   3.902
26691WAT     H280316   7.518   7.084   3.923
26692WAT      O80317   5.576   5.657   0.188
26692WAT     H180318   5.630   5.653   0.103
26692WAT     H280319   5.609   5.587   0.251
26693WAT      O80320   2.289   7.528   9.449
26693WAT     H180321   2.191   7.526   9.427
26693WAT     H280322   2.338   7.468   9.387
26694WAT      O80323   2.829   6.681   6.178
26694WAT     H180324   2.797   6.640   6.093
26694WAT     H280325   2.751   6.694   6.240
26695WAT      O80326   3.956   1.381   7.990
26695WAT     H180327   3.890   1.444   7.949
26695WAT     H280328   4.020   1.349   7.921
26696WAT      O80329   7.948   2.375   8.818
26696WAT     H180330   7.917   2.430   8.741
26696WAT     H280331   7.929   2.278   8.800
26697WAT      O80332   0.887   5.401   9.072
26697WAT     H180333   0.789   5.401   9.049
26697WAT     H280334   0.922   5.495   9.071
26698WAT      O80335   5.714   3.997   3.000
26698WAT     H180336   5.639   4.058   3.028
26698WAT     H280337   5.740   3.939   3.076
26699WAT      O80338   1.971   5.668   6.359
26699WAT     H180339   1.950   5.670   6.457
26699WAT     H280340   1.886   5.672   6.306
26700WAT      O80341   4.789   0.729   5.454
26700WAT     H180342   4.825   0.706   5.363
26700WAT     H280343   4.847   0.799   5.495
26701WAT      O80344   2.399   9.380   4.663
26701WAT     H180345   2.462   9.412   4.593
26701WAT     H280346   2.356   9.459   4.707
26702WAT      O80347   4.290   0.896   7.411
26702WAT     H180348   4.353   0.823   7.384
26702WAT     H280349   4.251   0.939   7.330
26703WAT      O80350   7.444   6.428   3.097
26703WAT     H180351   7.416   6.482   3.017
26703WAT     H280352   7.475   6.490   3.169
26704WAT      O80353   6.577   6.271   3.483
26704WAT     H180354   6.535   6.218   3.557
26704WAT     H280355   6.677   6.263   3.489
26705WAT      O80356   8.478   6.011   5.732
26705WAT     H180357   8.501   6.015   5.635
26705WAT     H280358   8.560   6.028   5.787
26706WAT      O80359   5.793   2.378   9.406
26706WAT     H180360   5.853   2.444   9.360
26706WAT     H280361   5.809   2.383   9.505
26707WAT      O80362   9.049   8.809   6.268
26707WAT     H180363   8.982   8.739   6.242
26707WAT     H280364   9.007   8.899   6.263
26708WAT      O80365   6.412   6.472   3.616
26708WAT     H180366   6.322   6.478   3.571
26708WAT     H280367   6.470   6.408   3.566
26709WAT      O80368   2.006   1.914   5.040
26709WAT     H180369   2.023   1.833   4.984
26709WAT     H280370   1.949   1.979   4.989
26710WAT      O80371   0.083   4.702   5.361
26710WAT     H180372   0.152   4.765   5.395
26710WAT     H280373   0.123   4.611   5.349
26711WAT      O80374   8.484   8.545   7.124
26711WAT     H180375   8.420   8.470   7.105
26711WAT     H280376   8.434   8.632   7.124
26712WAT      O80377   3.801   3.375   2.940
26712WAT     H180378   3.734   3.353   2.870
26712WAT     H280379   3.780   3.324   3.024
26713WAT      O80380   8.914   8.409   0.119
26713WAT     H180381   8.891   8.448   0.208
26713WAT     H280382   8.934   8.312   0.129
26714WAT      O80383   9.643   8.015   9.459
26714WAT     H180384   9.668   8.094   9.514
26714WAT     H280385   9.710   7.942   9.474
26715WAT      O80386   9.481   7.326   0.558
26715WAT     H180387   9.543   7.387   0.608
26715WAT     H280388   9.514   7.314   0.465
26716WAT      O80389   5.235   5.812   6.588
26716WAT     H180390   5.140   5.840   6.584
26716WAT     H280391   5.292   5.881   6.543
26717WAT      O80392   9.752   4.492   1.888
26717WAT     H180393   9.763   4.543   1.973
26717WAT     H280394   9.667   4.441   1.891
26718WAT      O80395   2.730   9.148   4.819
26718WAT     H180396   2.804   9.111   4.875
26718WAT     H280397   2.668   9.074   4.791
26719WAT      O80398   8.837   7.207   7.460
26719WAT     H180399   8.918   7.192   7.403
26719WAT     H280400   8.774   7.268   7.413
26720WAT      O80401   5.369   4.511   6.450
26720WAT     H180402   5.357   4.414   6.466
26720WAT     H280403   5.382   4.527   6.352
26721WAT      O80404   3.698   3.971   5.132
26721WAT     H180405   3.676   4.061   5.169
26721WAT     H280406   3.615   3.930   5.093
26722WAT      O80407   6.208   9.150   3.272
26722WAT     H180408   6.281   9.135   3.206
26722WAT     H280409   6.229   9.230   3.328
26723WAT      O80410   3.982   3.090   6.578
26723WAT     H180411   4.055   3.101   6.510
26723WAT     H280412   3.893   3.091   6.532
26724WAT      O80413   1.436   1.697   2.828
26724WAT     H180414   1.399   1.641   2.754
26724WAT     H280415   1.381   1.780   2.838
26725WAT      O80416   7.767   7.406   6.090
26725WAT     H180417   7.836   7.350   6.137
26725WAT     H280418   7.809   7.452   6.012
26726WAT      O80419   2.064   0.545   6.651
26726WAT     H180420   1.984   0.605   6.656
26726WAT     H280421   2.048   0.464   6.707
26727WAT      O80422   2.757   3.910   7.151
26727WAT     H180423   2.791   3.959   7.231
26727WAT     H280424   2.729   3.817   7.177
26728WAT      O80425   3.177   5.790   8.236
26728WAT     H180426   3.214   5.861   8.176
26728WAT     H280427   3.178   5.702   8.188
26729WAT      O80428   8.944   7.003   0.688
26729WAT     H180429   8.930   7.096   0.721
26729WAT     H280430   8.857   6.966   0.655
26730WAT      O80431   9.259   7.318   4.539
26730WAT     H180432   9.215   7.338   4.452
26730WAT     H280433   9.334   7.382   4.555
26731WAT      O80434   3.944   9.494   2.525
26731WAT     H180435   3.856   9.517   2.566
26731WAT     H280436   4.003   9.574   2.525
26732WAT      O80437   3.292   7.410   6.546
26732WAT     H180438   3.334   7.464   6.473
26732WAT     H280439   3.200   7.444   6.564
26733WAT      O80440   3.530   8.046   6.869
26733WAT     H180441   3.439   8.032   6.831
26733WAT     H280442   3.589   8.085   6.798
26734WAT      O80443   3.285   6.477   7.420
26734WAT     H180444   3.315   6.502   7.512
26734WAT     H280445   3.191   6.507   7.407
26735WAT      O80446   9.038   5.738   8.636
26735WAT     H180447   9.009   5.827   8.670
26735WAT     H280448   9.064   5.680   8.713
26736WAT      O80449   7.397   1.129   3.337
26736WAT     H180450   7.476   1.067   3.339
26736WAT     H280451   7.312   1.076   3.338
26737WAT      O80452   4.184   3.441   9.841
26737WAT     H180453   4.132   3.397   9.769
26737WAT     H280454   4.122   3.485   9.905
26738WAT      O80455   2.705   4.797   9.502
26738WAT     H180456   2.788   4.830   9.457
26738WAT     H280457   2.726   4.717   9.558
26739WAT      O80458   8.037   6.888   1.277
26739WAT     H180459   7.965   6.861   1.341
26739WAT     H280460   7.995   6.940   1.201
26740WAT      O80461   5.980   3.522   0.097
26740WAT     H180462   6.000   3.426   0.078
26740WAT     H280463   6.064   3.569   0.124
26741WAT      O80464   7.884   4.838   9.759
26741WAT     H180465   7.844   4.747   9.754
26741WAT     H280466   7.909   4.869   9.667
26742WAT      O80467   2.105   0.956   4.859
26742WAT     H180468   2.093   0.949   4.958
26742WAT     H280469   2.068   1.043   4.827
26743WAT      O80470   9.000   0.151   3.533
26743WAT     H180471   8.974   0.200   3.450
26743WAT     H280472   8.921   0.143   3.594
26744WAT      O80473   4.576   1.828   8.085
26744WAT     H180474   4.550   1.912   8.038
26744WAT     H280475   4.583   1.754   8.019
26745WAT      O80476   1.970   9.674   6.794
26745WAT     H180477   1.883   9.690   6.748
26745WAT     H280478   2.044   9.675   6.727
26746WAT      O80479   1.282   9.454   3.047
26746WAT     H180480   1.312   9.415   2.959
26746WAT     H280481   1.322   9.545   3.057
26747WAT      O80482   2.872   9.004   3.557
26747WAT     H180483   2.786   8.965   3.523
26747WAT     H280484   2.921   8.936   3.611
26748WAT      O80485   0.888   2.679   2.698
26748WAT     H180486   0.883   2.708   2.602
26748WAT     H280487   0.825   2.734   2.752
26749WAT      O80488   2.434   9.538   6.196
26749WAT     H180489   2.418   9.533   6.295
26749WAT     H280490   2.456   9.633   6.171
26750WAT      O80491   2.495   4.578   1.884
26750WAT     H180492   2.560   4.505   1.863
26750WAT     H280493   2.407   4.537   1.911
26751WAT      O80494   8.534   3.998   8.545
26751WAT     H180495   8.484   3.912   8.534
26751WAT     H280496   8.490   4.054   8.614
26752WAT      O80497   6.836   4.668   1.961
26752WAT     H180498   6.781   4.744   1.997
26752WAT     H280499   6.786   4.582   1.973
26753WAT      O80500   2.005   1.274   6.608
26753WAT     H180501   2.046   1.347   6.661
26753WAT     H280502   2.017   1.292   6.511
26754WAT      O80503   5.124   0.364   0.755
26754WAT     H180504   5.053   0.365   0.825
26754WAT     H280505   5.204   0.415   0.787
26755WAT      O80506   6.018   1.937   1.544
26755WAT     H180507   6.054   1.945   1.637
26755WAT     H280508   5.918   1.943   1.546
26756WAT      O80509   3.820   6.564   7.722
26756WAT     H180510   3.907   6.523   7.697
26756WAT     H280511   3.789   6.526   7.809
26757WAT      O80512   6.554   6.983   8.047
26757WAT     H180513   6.530   6.905   7.989
26757WAT     H280514   6.586   7.059   7.989
26758WAT      O80515   6.099   0.942   3.946
26758WAT     H180516   6.126   1.037   3.927
26758WAT     H280517   6.097   0.928   4.045
26759WAT      O80518   9.627   1.958   5.838
26759WAT     H180519   9.690   1.972   5.914
26759WAT     H280520   9.568   2.038   5.828
26760WAT      O80521   0.674   8.049   4.561
26760WAT     H180522   0.577   8.071   4.550
26760WAT     H280523   0.683   7.960   4.606
26761WAT      O80524   9.133   4.792   1.898
26761WAT     H180525   9.120   4.797   1.799
26761WAT     H280526   9.094   4.874   1.941
26762WAT      O80527   4.780   2.801   9.244
26762WAT     H180528   4.782   2.899   9.222
26762WAT     H280529   4.685   2.772   9.254
26763WAT      O80530   3.397   0.796   3.463
26763WAT     H180531   3.300   0.805   3.439
26763WAT     H280532   3.414   0.843   3.549
26764WAT      O80533   9.853   9.416   6.235
26764WAT     H180534   9.933   9.367   6.269
26764WAT     H280535   9.776   9.401   6.298
26765WAT      O80536   5.142   6.757   1.828
26765WAT     H180537   5.215   6.805   1.877
26765WAT     H280538   5.144   6.783   1.732
26766WAT      O80539   2.872   8.529   5.271
26766WAT     H180540   2.896   8.528   5.368
26766WAT     H280541   2.951   8.500   5.216
26767WAT      O80542   9.350   5.311   2.381
26767WAT     H180543   9.370   5.277   2.472
26767WAT     H280544   9.325   5.234   2.321
26768WAT      O80545   0.506   0.565   7.294
26768WAT     H180546   0.527   0.499   7.222
26768WAT     H280547   0.488   0.654   7.252
26769WAT      O80548   2.597   4.150   9.797
26769WAT     H180549   2.668   4.116   9.858
26769WAT     H280550   2.507   4.130   9.837
26770WAT      O80551   5.102   3.755   3.873
26770WAT     H180552   5.178   3.804   3.831
26770WAT     H280553   5.077   3.676   3.817
26771WAT      O80554   5.197   5.733   4.064
26771WAT     H180555   5.239   5.719   4.154
26771WAT     H280556   5.107   5.774   4.076
26772WAT      O80557   3.493   2.096   6.049
26772WAT     H180558   3.560   2.118   6.120
26772WAT     H280559   3.539   2.067   5.966
26773WAT      O80560   9.045   5.506   1.371
26773WAT     H180561   9.007   5.591   1.333
26773WAT     H280562   9.112   5.528   1.441
26774WAT      O80563   0.079   8.445   5.772
26774WAT     H180564   0.145   8.444   5.697
26774WAT     H280565  -0.001   8.391   5.747
26775WAT      O80566   1.224   1.935   0.561
26775WAT     H180567   1.196   1.899   0.650
26775WAT     H280568   1.278   1.865   0.513
26776WAT      O80569   0.197   7.615   1.135
26776WAT     H180570   0.292   7.609   1.105
26776WAT     H280571   0.194   7.620   1.235
26777WAT      O80572   9.769   7.541   7.722
26777WAT     H180573   9.698   7.525   7.790
26777WAT     H280574   9.805   7.634   7.733
26778WAT      O80575   1.110   3.216   4.624
26778WAT     H180576   1.094   3.131   4.673
26778WAT     H280577   1.155   3.197   4.537
26779WAT      O80578   5.830   6.946   5.324
26779WAT     H180579   5.809   6.963   5.420
26779WAT     H280580   5.921   6.983   5.303
26780WAT      O80581   9.770   6.283   6.096
26780WAT     H180582   9.774   6.375   6.058
26780WAT     H280583   9.698   6.231   6.049
26781WAT      O80584   6.644   8.297   6.807
26781WAT     H180585   6.691   8.320   6.722
26781WAT     H280586   6.624   8.380   6.859
26782WAT      O80587   2.054   2.829   2.754
26782WAT     H180588   2.031   2.783   2.840
26782WAT     H280589   2.062   2.762   2.680
26783WAT      O80590   8.262   0.565   9.351
26783WAT     H180591   8.192   0.554   9.422
26783WAT     H280592   8.222   0.611   9.272
26784WAT      O80593   5.014   4.246   2.194
26784WAT     H180594   5.055   4.218   2.281
26784WAT     H280595   4.934   4.188   2.175
26785WAT      O80596   2.403   3.304   9.465
26785WAT     H180597   2.423   3.209   9.488
26785WAT     H280598   2.442   3.326   9.376
26786WAT      O80599   8.700   7.026   8.190
26786WAT     H180600   8.702   6.953   8.121
26786WAT     H280601   8.719   7.114   8.146
26787WAT      O80602   2.440   2.180   6.752
26787WAT     H180603   2.467   2.231   6.671
26787WAT     H280604   2.340   2.185   6.763
26788WAT      O80605   2.548   6.895   9.709
26788WAT     H180606   2.507   6.937   9.628
26788WAT     H280607   2.520   6.945   9.791
26789WAT      O80608   7.930   4.073   2.713
26789WAT     H180609   7.917   4.027   2.625
26789WAT     H280610   7.881   4.160   2.713
26790WAT      O80611   7.539   8.417   3.746
26790WAT     H180612   7.606   8.490   3.747
26790WAT     H280613   7.561   8.353   3.672
26791WAT      O80614   3.773   1.200   8.407
26791WAT     H180615   3.688   1.158   8.438
26791WAT     H280616   3.754   1.265   8.333
26792WAT      O80617   4.946   6.837   5.400
26792WAT     H180618   4.909   6.929   5.410
26792WAT     H280619   5.044   6.843   5.380
26793WAT      O80620   3.739   7.215   3.435
26793WAT     H180621   3.807   7.177   3.498
26793WAT     H280622   3.785   7.272   3.367
26794WAT      O80623   8.083   6.596   6.830
26794WAT     H180624   8.072   6.629   6.736
26794WAT     H280625   8.059   6.499   6.834
26795WAT      O80626   4.696   4.655   1.345
26795WAT     H180627   4.667   4.745   1.312
26795WAT     H280628   4.782   4.631   1.301
26796WAT      O80629   6.090   5.316   4.032
26796WAT     H180630   6.087   5.412   4.056
26796WAT     H280631   6.039   5.301   3.947
26797WAT      O80632   7.180   7.472   8.662
26797WAT     H180633   7.173   7.557   8.713
26797WAT     H280634   7.276   7.443   8.659
26798WAT      O80635   9.143   1.394   3.161
26798WAT     H180636   9.243   1.396   3.172
26798WAT     H280637   9.110   1.487   3.144
26799WAT      O80638   5.165   4.590   1.519
26799WAT     H180639   5.179   4.625   1.426
26799WAT     H280640   5.081   4.628   1.556
26800WAT      O80641   2.945   7.812   4.176
26800WAT     H180642   2.945   7.871   4.095
26800WAT     H280643   2.871   7.745   4.170
26801WAT      O80644   3.833   9.826   4.946
26801WAT     H180645   3.763   9.862   5.007
26801WAT     H280646   3.887   9.757   4.993
26802WAT      O80647   8.732   2.775   8.574
26802WAT     H180648   8.724   2.875   8.579
26802WAT     H280649   8.816   2.746   8.619
26803WAT      O80650   2.079   5.626   1.683
26803WAT     H180651   2.036   5.708   1.646
26803WAT     H280652   2.167   5.611   1.638
26804WAT      O80653   4.096   6.441   4.370
26804WAT     H180654   4.161   6.420   4.443
26804WAT     H280655   4.084   6.540   4.364
26805WAT      O80656   8.401   7.852   2.802
26805WAT     H180657   8.435   7.862   2.709
26805WAT     H280658   8.303   7.836   2.800
26806WAT      O80659   3.789   8.615   8.709
26806WAT     H180660   3.760   8.670   8.631
26806WAT     H280661   3.882   8.641   8.735
26807WAT      O80662   0.534   0.159   6.982
26807WAT     H180663   0.533   0.062   7.007
26807WAT     H280664   0.460   0.177   6.917
26808WAT      O80665   5.205   0.540   5.042
26808WAT     H180666   5.244   0.501   4.959
26808WAT     H280667   5.188   0.466   5.108
26809WAT      O80668   2.615   3.180   2.856
26809WAT     H180669   2.654   3.266   2.823
26809WAT     H280670   2.610   3.181   2.956
26810WAT      O80671   8.808   3.836   2.248
26810WAT     H180672   8.883   3.874   2.192
26810WAT     H280673   8.845   3.805   2.335
26811WAT      O80674   7.161   5.952   7.300
26811WAT     H180675   7.175   6.016   7.375
26811WAT     H280676   7.069   5.914   7.305
26812WAT      O80677   2.231   8.842   0.307
26812WAT     H180678   2.204   8.933   0.339
26812WAT     H280679   2.311   8.850   0.247
26813WAT      O80680   9.388   9.355   8.894
26813WAT     H180681   9.483   9.367   8.866
26813WAT     H280682   9.359   9.262   8.872
26814WAT      O80683   0.023   0.014   1.269
26814WAT     H180684   0.016   0.099   1.321
26814WAT     H280685   0.105   0.015   1.213
26815WAT      O80686   9.634   1.094   7.624
26815WAT     H180687   9.583   1.017   7.662
26815WAT     H280688   9.598   1.180   7.660
26816WAT      O80689   3.201   2.704   5.782
26816WAT     H180690   3.160   2.615   5.804
26816WAT     H280691   3.240   2.744   5.865
26817WAT      O80692   2.160   6.988   4.123
26817WAT     H180693   2.099   6.910   4.134
26817WAT     H280694   2.156   7.045   4.205
26818WAT      O80695   8.075   0.581   9.660
26818WAT     H180696   8.069   0.504   9.724
26818WAT     H280697   8.045   0.665   9.705
26819WAT      O80698   7.927   8.519   7.438
26819WAT     H180699   7.967   8.547   7.350
26819WAT     H280700   7.851   8.580   7.460
26820WAT      O80701   3.329   4.474   7.620
26820WAT     H180702   3.346   4.378   7.598
26820WAT     H280703   3.284   4.518   7.542
26821WAT      O80704   3.307   0.284   4.332
26821WAT     H180705   3.270   0.247   4.417
26821WAT     H280706   3.367   0.216   4.290
26822WAT      O80707   8.650   3.038   9.236
26822WAT     H180708   8.627   3.134   9.220
26822WAT     H280709   8.570   2.981   9.218
26823WAT      O80710   1.515   3.560   6.018
26823WAT     H180711   1.474   3.647   5.992
26823WAT     H280712   1.446   3.502   6.062
26824WAT      O80713   2.908   2.098   1.869
26824WAT     H180714   2.936   2.003   1.853
26824WAT     H280715   2.808   2.104   1.863
26825WAT      O80716   0.161   5.693   3.751
26825WAT     H180717   0.078   5.680   3.806
26825WAT     H280718   0.167   5.788   3.721
26826WAT      O80719   2.580   8.690   7.588
26826WAT     H180720   2.502   8.628   7.590
26826WAT     H280721   2.632   8.681   7.674
26827WAT      O80722   1.238   7.489   3.512
26827WAT     H180723   1.143   7.500   3.540
26827WAT     H280724   1.294   7.463   3.591
26828WAT      O80725   0.509   0.082   8.310
26828WAT     H180726   0.543   0.012   8.247
26828WAT     H280727   0.472   0.039   8.392
26829WAT      O80728   1.287   2.430   8.247
26829WAT     H180729   1.190   2.411   8.234
26829WAT     H280730   1.320   2.488   8.172
26830WAT      O80731   7.127   7.216   0.259
26830WAT     H180732   7.077   7.209   0.345
26830WAT     H280733   7.181   7.133   0.245
26831WAT      O80734   1.389   5.182   4.283
26831WAT     H180735   1.325   5.130   4.340
26831WAT     H280736   1.390   5.277   4.312
26832WAT      O80737   4.156   6.723   2.428
26832WAT     H180738   4.099   6.723   2.511
26832WAT     H280739   4.131   6.801   2.371
26833WAT      O80740   2.972   7.622   7.004
26833WAT     H180741   2.883   7.661   6.982
26833WAT     H280742   2.993   7.638   7.100
26834WAT      O80743   5.291   7.313   0.744
26834WAT     H180744   5.321   7.337   0.836
26834WAT     H280745   5.249   7.223   0.745
26835WAT      O80746   9.228   8.741   6.492
26835WAT     H180747   9.178   8.747   6.406
26835WAT     H280748   9.326   8.730   6.473
26836WAT      O80749   0.977   6.841   7.106
26836WAT     H180750   1.032   6.923   7.089
26836WAT     H280751   1.012   6.765   7.051
26837WAT      O80752   4.557   5.238   9.607
26837WAT     H180753   4.577   5.312   9.671
26837WAT     H280754   4.641   5.215   9.556
26838WAT      O80755   8.269   6.806   3.510
26838WAT     H180756   8.216   6.740   3.565
26838WAT     H280757   8.215   6.835   3.431
26839WAT      O80758   3.822   8.009   1.126
26839WAT     H180759   3.865   8.077   1.066
26839WAT     H280760   3.876   7.999   1.210
26840WAT      O80761   0.565   8.767   8.858
26840WAT     H180762   0.615   8.768   8.772
26840WAT     H280763   0.467   8.772   8.840
26841WAT      O80764   4.421   1.771   1.962
26841WAT     H180765   4.410   1.676   1.930
26841WAT     H280766   4.380   1.781   2.052
26842WAT      O80767   9.063   8.041   2.078
26842WAT     H180768   9.035   8.066   1.985
26842WAT     H280769   9.146   8.092   2.103
26843WAT      O80770   8.969   8.874   1.083
26843WAT     H180771   9.034   8.942   1.116
26843WAT     H280772   8.898   8.919   1.028
26844WAT      O80773   8.050   7.160   3.518
26844WAT     H180774   8.131   7.208   3.552
26844WAT     H280775   8.032   7.080   3.575
26845WAT      O80776   8.008   2.735   0.885
26845WAT     H180777   7.966   2.646   0.903
26845WAT     H280778   7.971   2.803   0.948
26846WAT      O80779   9.331   7.739   3.687
26846WAT     H180780   9.350   7.665   3.622
26846WAT     H280781   9.245   7.783   3.663
26847WAT      O80782   5.710   6.109   2.094
26847WAT     H180783   5.678   6.023   2.135
26847WAT     H280784   5.798   6.094   2.050
26848WAT      O80785   1.265   8.150   0.232
26848WAT     H180786   1.257   8.227   0.169
26848WAT     H280787   1.361   8.132   0.250
26849WAT      O80788   7.558   2.387   4.586
26849WAT     H180789   7.483   2.444   4.555
26849WAT     H280790   7.621   2.442   4.642
26850WAT      O80791   8.080   8.074   2.818
26850WAT     H180792   8.127   7.997   2.775
26850WAT     H280793   8.059   8.143   2.749
26851WAT      O80794   5.176   6.442   9.420
26851WAT     H180795   5.243   6.453   9.494
26851WAT     H280796   5.125   6.357   9.433
26852WAT      O80797   0.915   6.086   0.326
26852WAT     H180798   0.825   6.047   0.306
26852WAT     H280799   0.905   6.160   0.392
26853WAT      O80800   1.170   4.313   0.761
26853WAT     H180801   1.093   4.375   0.743
26853WAT     H280802   1.140   4.218   0.747
26854WAT      O80803   9.505   0.296   1.140
26854WAT     H180804   9.430   0.353   1.174
26854WAT     H280805   9.583   0.303   1.202
26855WAT      O80806   9.606   7.072   7.643
26855WAT     H180807   9.677   7.143   7.648
26855WAT     H280808   9.520   7.109   7.677
26856WAT      O80809   6.825   2.273   2.776
26856WAT     H180810   6.831   2.316   2.866
26856WAT     H280811   6.862   2.335   2.707
26857WAT      O80812   4.070   1.942   5.526
26857WAT     H180813   4.165   1.971   5.516
26857WAT     H280814   4.059   1.891   5.611
26858WAT      O80815   0.552   1.518   8.777
26858WAT     H180816   0.590   1.593   8.831
26858WAT     H280817   0.601   1.511   8.691
26859WAT      O80818   2.796   1.644   7.385
26859WAT     H180819   2.804   1.703   7.304
26859WAT     H280820   2.707   1.658   7.427
26860WAT      O80821   3.832   3.890   6.322
26860WAT     H180822   3.748   3.851   6.283
26860WAT     H280823   3.911   3.845   6.280
26861WAT      O80824   4.297   0.079   3.393
26861WAT     H180825   4.230   0.102   3.464
26861WAT     H280826   4.372   0.145   3.394
26862WAT      O80827   4.244   9.328   5.746
26862WAT     H180828   4.151   9.337   5.711
26862WAT     H280829   4.265   9.231   5.762
26863WAT      O80830   5.385   2.599   3.391
26863WAT     H180831   5.351   2.586   3.484
26863WAT     H280832   5.351   2.526   3.332
26864WAT      O80833   4.989   2.441   3.135
26864WAT     H180834   4.947   2.351   3.137
26864WAT     H280835   5.073   2.440   3.190
26865WAT      O80836   9.386   6.806   3.236
26865WAT     H180837   9.326   6.759   3.171
26865WAT     H280838   9.475   6.823   3.194
26866WAT      O80839   7.860   3.457   0.596
26866WAT     H180840   7.956   3.452   0.624
26866WAT     H280841   7.813   3.525   0.651
26867WAT      O80842   3.347   7.421   4.143
26867WAT     H180843   3.298   7.446   4.226
26867WAT     H280844   3.423   7.485   4.128
26868WAT      O80845   4.680   2.624   6.022
26868WAT     H180846   4.630   2.668   6.097
26868WAT     H280847   4.662   2.673   5.937
26869WAT      O80848   3.591   2.687   2.736
26869WAT     H180849   3.558   2.763   2.681
26869WAT     H280850   3.661   2.637   2.686
26870WAT      O80851   6.892   2.403   3.068
26870WAT     H180852   6.968   2.339   3.080
26870WAT     H280853   6.841   2.412   3.153
26871WAT      O80854   5.981   3.303   6.749
26871WAT     H180855   6.032   3.256   6.677
26871WAT     H280856   5.969   3.399   6.723
26872WAT      O80857   2.781   9.519   4.016
26872WAT     H180858   2.879   9.499   4.015
26872WAT     H280859   2.763   9.595   4.079
26873WAT      O80860   0.405   3.538   3.568
26873WAT     H180861   0.458   3.557   3.650
26873WAT     H280862   0.412   3.441   3.545
26874WAT      O80863   1.911   1.278   8.422
26874WAT     H180864   1.821   1.245   8.393
26874WAT     H280865   1.918   1.271   8.522
26875WAT      O80866   0.539   2.208   7.101
26875WAT     H180867   0.631   2.204   7.141
26875WAT     H280868   0.487   2.280   7.146
26876WAT      O80869   2.784   6.065   8.147
26876WAT     H180870   2.718   6.015   8.091
26876WAT     H280871   2.855   6.002   8.179
26877WAT      O80872   8.737   9.568   5.977
26877WAT     H180873   8.736   9.549   5.879
26877WAT     H280874   8.789   9.653   5.994
26878WAT      O80875   4.671   7.938   6.230
26878WAT     H180876   4.701   7.845   6.251
26878WAT     H280877   4.581   7.936   6.187
26879WAT      O80878   3.042   2.496   6.125
26879WAT     H180879   3.142   2.497   6.130
26879WAT     H280880   3.014   2.467   6.034
26880WAT      O80881   3.219   0.984   2.473
26880WAT     H180882   3.154   0.913   2.499
26880WAT     H280883   3.246   0.971   2.378
26881WAT      O80884   7.212   8.333   0.201
26881WAT     H180885   7.312   8.329   0.211
26881WAT     H280886   7.170   8.339   0.292
26882WAT      O80887   3.235   8.614   1.364
26882WAT     H180888   3.159   8.659   1.317
26882WAT     H280889   3.320   8.634   1.316
26883WAT      O80890   4.910   2.186   7.074
26883WAT     H180891   4.863   2.273   7.092
26883WAT     H280892   4.852   2.110   7.103
26884WAT      O80893   5.228   2.125   4.416
26884WAT     H180894   5.155   2.087   4.360
26884WAT     H280895   5.281   2.052   4.458
26885WAT      O80896   1.215   5.557   2.919
26885WAT     H180897   1.207   5.643   2.971
26885WAT     H280898   1.292   5.504   2.954
26886WAT      O80899   2.883   6.991   4.929
26886WAT     H180900   2.810   7.050   4.962
26886WAT     H280901   2.877   6.982   4.830
26887WAT      O80902   1.133   8.908   2.907
26887WAT     H180903   1.108   8.952   2.821
26887WAT     H280904   1.211   8.955   2.948
26888WAT      O80905   7.574   4.100   7.381
26888WAT     H180906   7.547   4.036   7.309
26888WAT     H280907   7.516   4.086   7.461
26889WAT      O80908   5.019   7.121   1.232
26889WAT     H180909   5.007   7.185   1.308
26889WAT     H280910   5.027   7.171   1.146
26890WAT      O80911   8.774   2.918   1.685
26890WAT     H180912   8.803   2.982   1.756
26890WAT     H280913   8.835   2.927   1.606
26891WAT      O80914   3.864   3.922   6.859
26891WAT     H180915   3.858   3.926   6.759
26891WAT     H280916   3.911   4.003   6.892
26892WAT      O80917   7.551   6.176   7.011
26892WAT     H180918   7.453   6.194   7.021
26892WAT     H280919   7.600   6.263   6.998
26893WAT      O80920   0.996   4.075   2.202
26893WAT     H180921   0.979   4.166   2.238
26893WAT     H280922   1.089   4.070   2.165
26894WAT      O80923   3.586   4.145   4.227
26894WAT     H180924   3.598   4.073   4.158
26894WAT     H280925   3.655   4.216   4.212
26895WAT      O80926   5.803   8.496   3.536
26895WAT     H180927   5.825   8.411   3.584
26895WAT     H280928   5.795   8.477   3.438
26896WAT      O80929   0.330   0.981   6.180
26896WAT     H180930   0.293   0.913   6.115
26896WAT     H280931   0.318   1.072   6.142
26897WAT      O80932   8.344   2.332   9.063
26897WAT     H180933   8.391   2.286   9.138
26897WAT     H280934   8.412   2.377   9.005
26898WAT      O80935   7.679   4.021   0.988
26898WAT     H180936   7.746   3.990   0.920
26898WAT     H280937   7.723   4.028   1.077
26899WAT      O80938   4.081   4.388   9.724
26899WAT     H180939   4.031   4.469   9.695
26899WAT     H280940   4.179   4.402   9.708
26900WAT      O80941   9.206   3.825   4.586
26900WAT     H180942   9.269   3.751   4.611
26900WAT     H280943   9.194   3.826   4.486
26901WAT      O80944   6.019   0.341   5.507
26901WAT     H180945   5.937   0.360   5.453
26901WAT     H280946   6.050   0.247   5.490
26902WAT      O80947   0.746   5.457   3.141
26902WAT     H180948   0.781   5.370   3.105
26902WAT     H280949   0.822   5.521   3.151
26903WAT      O80950   5.419   2.581   0.686
26903WAT     H180951   5.342   2.605   0.745
26903WAT     H280952   5.413   2.484   0.662
26904WAT      O80953   1.413   3.881   0.772
26904WAT     H180954   1.358   3.868   0.855
26904WAT     H280955   1.390   3.811   0.705
26905WAT      O80956   0.991   6.315   1.971
26905WAT     H180957   1.075   6.327   2.024
26905WAT     H280958   1.014   6.309   1.874
26906WAT      O80959   6.815   5.817   1.737
26906WAT     H180960   6.716   5.819   1.727
26906WAT     H280961   6.846   5.899   1.785
26907WAT      O80962   3.435   8.629   4.745
26907WAT     H180963   3.534   8.622   4.759
26907WAT     H280964   3.401   8.714   4.784
26908WAT      O80965   6.467   0.971   6.766
26908WAT     H180966   6.375   0.932   6.769
26908WAT     H280967   6.479   1.021   6.680
26909WAT      O80968   9.839   8.703   7.111
26909WAT     H180969   9.775   8.642   7.064
26909WAT     H280970   9.789   8.779   7.152
26910WAT      O80971   8.695   6.995   1.032
26910WAT     H180972   8.616   7.057   1.032
26910WAT     H280973   8.663   6.900   1.040
26911WAT      O80974   7.518   3.572   1.434
26911WAT     H180975   7.445   3.639   1.421
26911WAT     H280976   7.478   3.483   1.456
26912WAT      O80977   9.281   5.644   3.544
26912WAT     H180978   9.336   5.692   3.612
26912WAT     H280979   9.185   5.671   3.554
26913WAT      O80980   4.673   7.733   6.610
26913WAT     H180981   4.657   7.758   6.514
26913WAT     H280982   4.649   7.811   6.669
26914WAT      O80983   5.759   2.851   9.015
26914WAT     H180984   5.686   2.885   9.073
26914WAT     H280985   5.825   2.800   9.070
26915WAT      O80986   0.594   3.485   2.231
26915WAT     H180987   0.525   3.467   2.300
26915WAT     H280988   0.551   3.528   2.151
26916WAT      O80989   8.929   9.455   9.234
26916WAT     H180990   8.831   9.447   9.215
26916WAT     H280991   8.942   9.490   9.327
26917WAT      O80992   8.568   0.881   1.502
26917WAT     H180993   8.534   0.811   1.439
26917WAT     H280994   8.663   0.861   1.525
26918WAT      O80995   4.371   9.335   8.614
26918WAT     H180996   4.288   9.389   8.629
26918WAT     H280997   4.449   9.379   8.658
26919WAT      O80998   8.726   6.091   3.404
26919WAT     H180999   8.640   6.131   3.438
26919WAT     H281000   8.763   6.148   3.332
26920WAT      O81001   8.536   2.328   0.724
26920WAT     H181002   8.525   2.323   0.824
26920WAT     H281003   8.511   2.420   0.693
26921WAT      O81004   9.806   2.834   4.037
26921WAT     H181005   9.817   2.866   4.131
26921WAT     H281006   9.848   2.899   3.974
26922WAT      O81007   9.248   5.539   3.981
26922WAT     H181008   9.286   5.551   4.073
26922WAT     H281009   9.148   5.544   3.986
26923WAT      O81010   5.775   1.548   2.128
26923WAT     H181011   5.813   1.536   2.036
26923WAT     H281012   5.756   1.645   2.143
26924WAT      O81013   1.714   9.555   9.267
26924WAT     H181014   1.810   9.567   9.291
26924WAT     H281015   1.691   9.616   9.191
26925WAT      O81016   7.094   7.659   5.198
26925WAT     H181017   7.022   7.639   5.264
26925WAT     H281018   7.151   7.733   5.232
26926WAT      O81019   9.237   4.392   6.394
26926WAT     H181020   9.258   4.467   6.332
26926WAT     H281021   9.259   4.305   6.350
26927WAT      O81022   8.314   8.890   0.423
26927WAT     H181023   8.248   8.815   0.414
26927WAT     H281024   8.320   8.939   0.337
26928WAT      O81025   8.706   7.499   5.078
26928WAT     H181026   8.671   7.411   5.047
26928WAT     H281027   8.735   7.491   5.174
26929WAT      O81028   1.444   1.682   7.304
26929WAT     H181029   1.414   1.718   7.215
26929WAT     H281030   1.520   1.618   7.289
26930WAT      O81031   9.205   3.091   6.731
26930WAT     H181032   9.285   3.150   6.739
26930WAT     H281033   9.127   3.133   6.777
26931WAT      O81034   9.054   6.728   4.296
26931WAT     H181035   9.129   6.771   4.245
26931WAT     H281036   9.046   6.632   4.267
26932WAT      O81037   6.417   7.402   2.102
26932WAT     H181038   6.517   7.412   2.096
26932WAT     H281039   6.390   7.317   2.057
26933WAT      O81040   4.847   3.981   2.717
26933WAT     H181041   4.767   4.031   2.748
26933WAT     H281042   4.865   4.000   2.621
26934WAT      O81043   4.463   4.868   1.108
26934WAT     H181044   4.532   4.887   1.178
26934WAT     H281045   4.405   4.792   1.138
26935WAT      O81046   9.285   1.078   5.543
26935WAT     H181047   9.271   1.001   5.481
26935WAT     H281048   9.358   1.056   5.608
26936WAT      O81049   0.419   9.083   8.481
26936WAT     H181050   0.342   9.146   8.467
26936WAT     H281051   0.478   9.117   8.554
26937WAT      O81052   3.205   5.388   8.873
26937WAT     H181053   3.156   5.371   8.787
26937WAT     H281054   3.149   5.446   8.932
26938WAT      O81055   4.648   2.995   8.839
26938WAT     H181056   4.720   2.963   8.899
26938WAT     H281057   4.587   3.056   8.889
26939WAT      O81058   1.842   7.473   5.410
26939WAT     H181059   1.807   7.418   5.335
26939WAT     H281060   1.766   7.512   5.462
26940WAT      O81061   9.312   4.815   2.194
26940WAT     H181062   9.401   4.848   2.224
26940WAT     H281063   9.324   4.751   2.118
26941WAT      O81064   1.516   8.975   2.518
26941WAT     H181065   1.438   9.036   2.533
26941WAT     H281066   1.489   8.881   2.539
26942WAT      O81067   2.067   2.789   1.299
26942WAT     H181068   2.021   2.794   1.387
26942WAT     H281069   2.013   2.839   1.230
26943WAT      O81070   3.768   5.147   7.402
26943WAT     H181071   3.749   5.059   7.444
26943WAT     H281072   3.734   5.147   7.308
26944WAT      O81073   1.665   0.423   7.749
26944WAT     H181074   1.620   0.512   7.757
26944WAT     H281075   1.764   0.436   7.746
26945WAT      O81076   4.638   0.981   5.516
26945WAT     H181077   4.680   0.953   5.429
26945WAT     H281078   4.581   0.906   5.550
26946WAT      O81079   3.019   8.320   9.403
26946WAT     H181080   3.076   8.341   9.482
26946WAT     H281081   2.939   8.381   9.401
26947WAT      O81082   1.642   3.374   8.246
26947WAT     H181083   1.652   3.448   8.179
26947WAT     H281084   1.698   3.296   8.219
26948WAT      O81085   3.951   0.343   2.114
26948WAT     H181086   3.958   0.330   2.213
26948WAT     H281087   3.973   0.257   2.068
26949WAT      O81088   6.722   6.845   8.661
26949WAT     H181089   6.641   6.830   8.603
26949WAT     H281090   6.804   6.817   8.611
26950WAT      O81091   5.344   7.714   2.234
26950WAT     H181092   5.392   7.801   2.221
26950WAT     H281093   5.408   7.645   2.267
26951WAT      O81094   2.850   5.141   4.311
26951WAT     H181095   2.793   5.101   4.239
26951WAT     H281096   2.793   5.195   4.372
26952WAT      O81097   4.687   1.255   5.796
26952WAT     H181098   4.706   1.194   5.872
26952WAT     H281099   4.773   1.280   5.751
26953WAT      O81100   8.547   6.630   6.171
26953WAT     H181101   8.492   6.580   6.238
26953WAT     H281102   8.621   6.677   6.218
26954WAT      O81103   4.217   8.473   9.865
26954WAT     H181104   4.202   8.396   9.803
26954WAT     H281105   4.314   8.494   9.870
26955WAT      O81106   0.475   3.393   6.608
26955WAT     H181107   0.524   3.475   6.579
26955WAT     H281108   0.433   3.409   6.698
26956WAT      O81109   3.044   1.042   5.915
26956WAT     H181110   3.006   1.104   5.984
26956WAT     H281111   2.970   0.997   5.866
26957WAT      O81112   2.838   4.638   4.041
26957WAT     H181113   2.825   4.682   3.952
26957WAT     H281114   2.841   4.708   4.112
26958WAT      O81115   1.322   0.447   9.833
26958WAT     H181116   1.320   0.361   9.783
26958WAT     H281117   1.231   0.489   9.832
26959WAT      O81118   2.930   9.422   1.785
26959WAT     H181119   2.941   9.465   1.875
26959WAT     H281120   2.923   9.323   1.795
26960WAT      O81121   0.507   5.787   5.875
26960WAT     H181122   0.422   5.812   5.827
26960WAT     H281123   0.486   5.724   5.950
26961WAT      O81124   8.309   0.985   9.856
26961WAT     H181125   8.313   0.938   9.769
26961WAT     H281126   8.245   0.938   9.917
26962WAT      O81127   1.715   8.937   6.639
26962WAT     H181128   1.796   8.909   6.690
26962WAT     H281129   1.670   8.857   6.600
26963WAT      O81130   6.827   5.448   4.729
26963WAT     H181131   6.760   5.471   4.658
26963WAT     H281132   6.909   5.409   4.686
26964WAT      O81133   7.812   3.819   9.643
26964WAT     H181134   7.776   3.909   9.666
26964WAT     H281135   7.774   3.789   9.556
26965WAT      O81136   7.318   2.996   2.470
26965WAT     H181137   7.246   3.008   2.403
26965WAT     H281138   7.404   2.977   2.423
26966WAT      O81139   9.035   2.888   2.689
26966WAT     H181140   8.989   2.889   2.600
26966WAT     H281141   9.095   2.808   2.694
26967WAT      O81142   3.652   5.982   8.473
26967WAT     H181143   3.568   5.934   8.449
26967WAT     H281144   3.636   6.038   8.555
26968WAT      O81145   3.288   7.034   8.649
26968WAT     H181146   3.261   7.128   8.628
26968WAT     H281147   3.222   6.970   8.610
26969WAT      O81148   4.631   1.066   2.592
26969WAT     H181149   4.603   1.161   2.578
26969WAT     H281150   4.550   1.007   2.587
26970WAT      O81151   8.102   5.599   0.451
26970WAT     H181152   8.063   5.691   0.458
26970WAT     H281153   8.129   5.567   0.542
26971WAT      O81154   2.722   3.960   0.200
26971WAT     H181155   2.724   3.862   0.178
26971WAT     H281156   2.791   4.008   0.145
26972WAT      O81157   1.147   1.275   4.770
26972WAT     H181158   1.166   1.315   4.860
26972WAT     H281159   1.176   1.179   4.769
26973WAT      O81160   6.624   2.404   1.612
26973WAT     H181161   6.571   2.318   1.615
26973WAT     H281162   6.574   2.475   1.662
26974WAT      O81163   5.081   9.692   5.731
26974WAT     H181164   4.997   9.676   5.678
26974WAT     H281165   5.057   9.706   5.827
26975WAT      O81166   7.963   0.844   3.952
26975WAT     H181167   8.048   0.822   3.999
26975WAT     H281168   7.932   0.764   3.900
26976WAT      O81169   5.998   6.848   7.174
26976WAT     H181170   6.016   6.929   7.117
26976WAT     H281171   5.899   6.838   7.186
26977WAT      O81172   4.179   1.557   6.667
26977WAT     H181173   4.119   1.577   6.590
26977WAT     H281174   4.126   1.512   6.739
26978WAT      O81175   4.588   5.305   1.832
26978WAT     H181176   4.503   5.357   1.821
26978WAT     H281177   4.620   5.313   1.926
26979WAT      O81178   3.531   7.950   5.374
26979WAT     H181179   3.569   7.861   5.348
26979WAT     H281180   3.511   7.951   5.472
26980WAT      O81181   5.252   2.548   9.781
26980WAT     H181182   5.205   2.479   9.837
26980WAT     H281183   5.351   2.534   9.787
26981WAT      O81184   2.678   7.851   3.446
26981WAT     H181185   2.750   7.845   3.515
26981WAT     H281186   2.675   7.766   3.393
26982WAT      O81187   2.278   2.079   1.335
26982WAT     H181188   2.364   2.102   1.289
26982WAT     H281189   2.202   2.089   1.271
26983WAT      O81190   5.338   4.115   7.791
26983WAT     H181191   5.340   4.197   7.734
26983WAT     H281192   5.356   4.034   7.735
26984WAT      O81193   7.616   4.225   7.069
26984WAT     H181194   7.628   4.244   7.167
26984WAT     H281195   7.522   4.249   7.042
26985WAT      O81196   8.957   4.916   3.105
26985WAT     H181197   8.911   4.922   3.016
26985WAT     H281198   8.919   4.985   3.167
26986WAT      O81199   6.723   0.608   8.635
26986WAT     H181200   6.700   0.579   8.728
26986WAT     H281201   6.696   0.704   8.623
26987WAT      O81202   8.581   4.991   6.007
26987WAT     H181203   8.625   5.047   5.937
26987WAT     H281204   8.644   4.980   6.084
26988WAT      O81205   6.562   8.904   7.491
26988WAT     H181206   6.520   8.991   7.517
26988WAT     H281207   6.567   8.844   7.570
26989WAT      O81208   2.125   4.048   9.789
26989WAT     H181209   2.209   4.056   9.842
26989WAT     H281210   2.137   4.092   9.700
26990WAT      O81211   2.488   1.990   9.703
26990WAT     H181212   2.575   1.963   9.662
26990WAT     H281213   2.484   1.956   9.797
26991WAT      O81214   0.936   7.740   8.450
26991WAT     H181215   1.022   7.700   8.420
26991WAT     H281216   0.936   7.838   8.429
26992WAT      O81217   8.200   0.557   7.776
26992WAT     H181218   8.116   0.547   7.722
26992WAT     H281219   8.278   0.559   7.714
26993WAT      O81220   6.751   8.272   1.472
26993WAT     H181221   6.707   8.361   1.466
26993WAT     H281222   6.848   8.280   1.449
26994WAT      O81223   3.890   8.259   6.529
26994WAT     H181224   3.885   8.336   6.592
26994WAT     H281225   3.986   8.236   6.513
26995WAT      O81226   9.723   8.100   2.256
26995WAT     H181227   9.694   8.165   2.327
26995WAT     H281228   9.802   8.049   2.288
26996WAT      O81229   4.961   9.098   0.582
26996WAT     H181230   4.958   9.024   0.650
26996WAT     H281231   4.922   9.181   0.622
26997WAT      O81232   0.949   5.430   7.939
26997WAT     H181233   0.943   5.520   7.895
26997WAT     H281234   1.025   5.378   7.900
26998WAT      O81235   0.413   5.322   4.367
26998WAT     H181236   0.361   5.404   4.389
26998WAT     H281237   0.353   5.254   4.324
26999WAT      O81238   8.552   8.388   7.516
26999WAT     H181239   8.600   8.443   7.448
26999WAT     H281240   8.618   8.328   7.562
27000WAT      O81241   8.385   7.551   5.550
27000WAT     H181242   8.422   7.549   5.457
27000WAT     H281243   8.434   7.485   5.606
27001WAT      O81244   0.367   7.760   2.910
27001WAT     H181245   0.360   7.847   2.860
27001WAT     H281246   0.396   7.778   3.004
27002WAT      O81247   3.153   9.092   4.652
27002WAT     H181248   3.120   8.998   4.656
27002WAT     H281249   3.079   9.152   4.623
27003WAT      O81250   7.620   0.789   0.664
27003WAT     H181251   7.622   0.837   0.751
27003WAT     H281252   7.549   0.718   0.666
27004WAT      O81253   4.449   2.558   1.429
27004WAT     H181254   4.500   2.610   1.497
27004WAT     H281255   4.367   2.609   1.403
27005WAT      O81256   1.177   3.077   3.001
27005WAT     H181257   1.258   3.026   2.973
27005WAT     H281258   1.176   3.085   3.101
27006WAT      O81259   7.160   7.480   2.125
27006WAT     H181260   7.067   7.448   2.112
27006WAT     H281261   7.191   7.457   2.217
27007WAT      O81262   0.252   2.257   1.248
27007WAT     H181263   0.348   2.287   1.242
27007WAT     H281264   0.243   2.165   1.211
27008WAT      O81265   3.079   9.482   7.841
27008WAT     H181266   3.045   9.563   7.794
27008WAT     H281267   3.176   9.495   7.863
27009WAT      O81268   0.100   8.961   9.092
27009WAT     H181269   0.118   8.972   8.994
27009WAT     H281270   0.153   9.029   9.143
27010WAT      O81271   5.001   3.242   1.760
27010WAT     H181272   4.961   3.321   1.713
27010WAT     H281273   5.092   3.266   1.793
27011WAT      O81274   4.155   8.199   9.057
27011WAT     H181275   4.166   8.294   9.086
27011WAT     H281276   4.102   8.196   8.973
27012WAT      O81277   4.047   8.960   6.539
27012WAT     H181278   4.059   8.963   6.440
27012WAT     H281279   4.115   8.898   6.579
27013WAT      O81280   1.498   5.241   2.877
27013WAT     H181281   1.584   5.284   2.851
27013WAT     H281282   1.485   5.157   2.824
27014WAT      O81283   2.676   3.131   1.674
27014WAT     H181284   2.712   3.044   1.708
27014WAT     H281285   2.727   3.206   1.717
27015WAT      O81286   6.219   5.555   6.425
27015WAT     H181287   6.245   5.583   6.333
27015WAT     H281288   6.273   5.607   6.492
27016WAT      O81289   9.489   8.837   7.033
27016WAT     H181290   9.583   8.867   7.050
27016WAT     H281291   9.425   8.899   7.079
27017WAT      O81292   6.028   7.859   0.611
27017WAT     H181293   5.977   7.945   0.621
27017WAT     H281294   5.965   7.782   0.621
27018WAT      O81295   2.141   7.198   1.960
27018WAT     H181296   2.187   7.113   1.934
27018WAT     H281297   2.047   7.196   1.927
27019WAT      O81298   4.350   6.292   7.086
27019WAT     H181299   4.321   6.329   6.998
27019WAT     H281300   4.285   6.221   7.115
27020WAT      O81301   9.072   7.343   4.926
27020WAT     H181302   9.013   7.268   4.954
27020WAT     H281303   9.105   7.392   5.007
27021WAT      O81304   7.447   5.936   6.138
27021WAT     H181305   7.479   5.856   6.088
27021WAT     H281306   7.355   5.918   6.174
27022WAT      O81307   2.999   6.333   9.717
27022WAT     H181308   3.020   6.373   9.628
27022WAT     H281309   3.053   6.250   9.731
27023WAT      O81310   7.977   0.313   2.167
27023WAT     H181311   7.991   0.330   2.069
27023WAT     H281312   7.975   0.401   2.216
27024WAT      O81313   3.685   2.122   0.031
27024WAT     H181314   3.715   2.214   0.056
27024WAT     H281315   3.762   2.071  -0.006
27025WAT      O81316   5.027   4.147   4.621
27025WAT     H181317   4.928   4.143   4.627
27025WAT     H281318   5.064   4.199   4.699
27026WAT      O81319   0.590   7.500   6.981
27026WAT     H181320   0.541   7.413   6.976
27026WAT     H281321   0.549   7.565   6.916
27027WAT      O81322   7.569   8.227   6.891
27027WAT     H181323   7.541   8.314   6.850
27027WAT     H281324   7.627   8.244   6.971
27028WAT      O81325   5.498   9.219   2.329
27028WAT     H181326   5.435   9.149   2.294
27028WAT     H281327   5.561   9.246   2.256
27029WAT      O81328   9.676   0.988   6.115
27029WAT     H181329   9.742   0.981   6.189
27029WAT     H281330   9.723   0.973   6.028
27030WAT      O81331   5.769   5.322   1.029
27030WAT     H181332   5.839   5.264   0.987
27030WAT     H281333   5.720   5.373   0.959
27031WAT      O81334   2.938   4.846   4.220
27031WAT     H181335   2.994   4.820   4.299
27031WAT     H281336   2.990   4.909   4.163
27032WAT      O81337   2.600   8.212   2.794
27032WAT     H181338   2.639   8.299   2.765
27032WAT     H281339   2.647   8.180   2.876
27033WAT      O81340   6.537   1.094   6.536
27033WAT     H181341   6.561   1.037   6.457
27033WAT     H281342   6.495   1.179   6.503
27034WAT      O81343   6.593   0.268   7.506
27034WAT     H181344   6.678   0.216   7.507
27034WAT     H281345   6.564   0.284   7.412
27035WAT      O81346   1.704   5.754   0.354
27035WAT     H181347   1.642   5.677   0.367
27035WAT     H281348   1.687   5.796   0.265
27036WAT      O81349   3.884   8.794   6.898
27036WAT     H181350   3.936   8.864   6.947
27036WAT     H281351   3.795   8.782   6.942
27037WAT      O81352   4.728   7.653   3.449
27037WAT     H181353   4.794   7.642   3.524
27037WAT     H281354   4.718   7.566   3.400
27038WAT      O81355   0.299   5.837   7.702
27038WAT     H181356   0.365   5.838   7.627
27038WAT     H281357   0.317   5.758   7.761
27039WAT      O81358   3.764   3.645   8.692
27039WAT     H181359   3.711   3.717   8.647
27039WAT     H281360   3.704   3.592   8.752
27040WAT      O81361   7.100   7.896   6.110
27040WAT     H181362   7.003   7.916   6.123
27040WAT     H281363   7.152   7.981   6.105
27041WAT      O81364   5.336   7.319   1.015
27041WAT     H181365   5.351   7.226   1.050
27041WAT     H281366   5.238   7.339   1.014
27042WAT      O81367   7.228   3.226   6.292
27042WAT     H181368   7.294   3.283   6.340
27042WAT     H281369   7.189   3.160   6.357
27043WAT      O81370   7.110   7.734   3.782
27043WAT     H181371   7.040   7.680   3.830
27043WAT     H281372   7.159   7.674   3.718
27044WAT      O81373   8.503   5.103   4.508
27044WAT     H181374   8.411   5.115   4.471
27044WAT     H281375   8.504   5.135   4.603
27045WAT      O81376   9.876   1.171   8.422
27045WAT     H181377   9.975   1.165   8.423
27045WAT     H281378   9.847   1.235   8.351
27046WAT      O81379   1.915   6.077   8.930
27046WAT     H181380   1.848   6.074   8.855
27046WAT     H281381   1.981   6.003   8.919
27047WAT      O81382   0.750   6.413   8.228
27047WAT     H181383   0.772   6.316   8.242
27047WAT     H281384   0.665   6.435   8.277
27048WAT      O81385   8.877   6.316   4.148
27048WAT     H181386   8.836   6.337   4.059
27048WAT     H281387   8.924   6.228   4.143
27049WAT      O81388   1.471   4.454   8.146
27049WAT     H181389   1.509   4.361   8.149
27049WAT     H281390   1.373   4.450   8.163
27050WAT      O81391   2.692   2.499   4.705
27050WAT     H181392   2.627   2.514   4.631
27050WAT     H281393   2.737   2.586   4.727
27051WAT      O81394   6.606   0.686   6.512
27051WAT     H181395   6.697   0.725   6.527
27051WAT     H281396   6.544   0.757   6.479
27052WAT      O81397   7.761   2.114   6.387
27052WAT     H181398   7.760   2.112   6.287
27052WAT     H281399   7.845   2.157   6.419
27053WAT      O81400   0.541   6.627   4.636
27053WAT     H181401   0.460   6.579   4.667
27053WAT     H281402   0.610   6.561   4.608
27054WAT      O81403   3.443   9.106   2.886
27054WAT     H181404   3.503   9.026   2.896
27054WAT     H281405   3.349   9.080   2.909
27055WAT      O81406   4.361   4.503   1.829
27055WAT     H181407   4.398   4.544   1.745
27055WAT     H281408   4.292   4.435   1.805
27056WAT      O81409   3.726   1.120   7.966
27056WAT     H181410   3.669   1.037   7.971
27056WAT     H281411   3.821   1.094   7.946
27057WAT      O81412   0.165   1.786   0.854
27057WAT     H181413   0.074   1.777   0.894
27057WAT     H281414   0.233   1.800   0.926
27058WAT      O81415   7.211   7.762   6.701
27058WAT     H181416   7.279   7.753   6.774
27058WAT     H281417   7.254   7.803   6.620
27059WAT      O81418   3.229   9.493   1.965
27059WAT     H181419   3.135   9.487   1.998
27059WAT     H281420   3.229   9.495   1.865
27060WAT      O81421   7.466   4.229   6.080
27060WAT     H181422   7.543   4.239   6.143
27060WAT     H281423   7.383   4.209   6.132
27061WAT      O81424   2.071   2.710   8.143
27061WAT     H181425   2.040   2.616   8.126
27061WAT     H281426   2.143   2.709   8.212
27062WAT      O81427   2.442   4.173   2.853
27062WAT     H181428   2.426   4.114   2.774
27062WAT     H281429   2.427   4.121   2.937
27063WAT      O81430   0.424   5.673   3.816
27063WAT     H181431   0.443   5.577   3.797
27063WAT     H281432   0.331   5.695   3.786
27064WAT      O81433   1.797   6.127   3.666
27064WAT     H181434   1.822   6.094   3.757
27064WAT     H281435   1.818   6.057   3.598
27065WAT      O81436   6.314   4.500   2.955
27065WAT     H181437   6.243   4.429   2.959
27065WAT     H281438   6.272   4.590   2.968
27066WAT      O81439   8.865   7.861   0.137
27066WAT     H181440   8.964   7.869   0.128
27066WAT     H281441   8.842   7.777   0.186
27067WAT      O81442   6.930   4.138   4.104
27067WAT     H181443   6.939   4.214   4.168
27067WAT     H281444   6.869   4.069   4.144
27068WAT      O81445   8.487   6.215   3.163
27068WAT     H181446   8.449   6.293   3.114
27068WAT     H281447   8.587   6.222   3.165
27069WAT      O81448   2.234   3.532   9.321
27069WAT     H181449   2.262   3.568   9.232
27069WAT     H281450   2.202   3.438   9.309
27070WAT      O81451   6.136   1.722   2.087
27070WAT     H181452   6.070   1.734   2.161
27070WAT     H281453   6.211   1.787   2.099
27071WAT      O81454   3.055   9.608   0.786
27071WAT     H181455   3.098   9.541   0.726
27071WAT     H281456   3.100   9.696   0.775
27072WAT      O81457   8.808   7.157   0.332
27072WAT     H181458   8.859   7.073   0.315
27072WAT     H281459   8.872   7.231   0.353
27073WAT      O81460   8.310   4.457   4.760
27073WAT     H181461   8.303   4.437   4.857
27073WAT     H281462   8.401   4.429   4.726
27074WAT      O81463   8.230   2.004   8.850
27074WAT     H181464   8.294   2.072   8.884
27074WAT     H281465   8.202   2.027   8.757
27075WAT      O81466   5.059   8.806   2.687
27075WAT     H181467   4.984   8.870   2.700
27075WAT     H281468   5.022   8.715   2.665
27076WAT      O81469   0.777   8.125   0.197
27076WAT     H181470   0.857   8.102   0.253
27076WAT     H281471   0.807   8.171   0.113
27077WAT      O81472   1.010   9.551   3.097
27077WAT     H181473   1.093   9.582   3.142
27077WAT     H281474   0.946   9.516   3.166
27078WAT      O81475   5.610   0.998   5.715
27078WAT     H181476   5.620   0.914   5.768
27078WAT     H281477   5.523   1.041   5.737
27079WAT      O81478   5.359   9.261   9.835
27079WAT     H181479   5.454   9.287   9.854
27079WAT     H281480   5.327   9.198   9.905
27080WAT      O81481   4.001   7.462   6.071
27080WAT     H181482   3.984   7.545   6.123
27080WAT     H281483   3.959   7.471   5.980
27081WAT      O81484   8.250   1.012   4.513
27081WAT     H181485   8.246   1.109   4.491
27081WAT     H281486   8.254   0.958   4.429
27082WAT      O81487   6.865   5.636   2.134
27082WAT     H181488   6.943   5.642   2.071
27082WAT     H281489   6.864   5.715   2.194
27083WAT      O81490   4.930   5.529   2.968
27083WAT     H181491   4.989   5.594   3.017
27083WAT     H281492   4.969   5.438   2.975
27084WAT      O81493   2.829   1.592   8.439
27084WAT     H181494   2.770   1.522   8.398
27084WAT     H281495   2.791   1.621   8.526
27085WAT      O81496   1.750   0.698   8.463
27085WAT     H181497   1.756   0.749   8.378
27085WAT     H281498   1.657   0.662   8.474
27086WAT      O81499   2.274   5.159   3.731
27086WAT     H181500   2.302   5.135   3.824
27086WAT     H281501   2.334   5.114   3.665
27087WAT      O81502   5.649   6.744   3.628
27087WAT     H181503   5.611   6.668   3.575
27087WAT     H281504   5.653   6.826   3.570
27088WAT      O81505   6.611   4.551   7.825
27088WAT     H181506   6.590   4.612   7.901
27088WAT     H281507   6.613   4.603   7.739
27089WAT      O81508   6.570   8.688   7.639
27089WAT     H181509   6.606   8.700   7.732
27089WAT     H281510   6.551   8.591   7.623
27090WAT      O81511   6.778   2.850   0.296
27090WAT     H181512   6.832   2.927   0.329
27090WAT     H281513   6.759   2.863   0.198
27091WAT      O81514   6.188   3.465   1.493
27091WAT     H181515   6.106   3.475   1.435
27091WAT     H281516   6.166   3.409   1.572
27092WAT      O81517   9.807   3.673   4.012
27092WAT     H181518   9.730   3.729   4.043
27092WAT     H281519   9.822   3.688   3.914
27093WAT      O81520   3.413   4.437   0.027
27093WAT     H181521   3.381   4.419   0.120
27093WAT     H281522   3.431   4.534   0.016
27094WAT      O81523   1.374   7.598   1.432
27094WAT     H181524   1.327   7.672   1.481
27094WAT     H281525   1.382   7.518   1.492
27095WAT      O81526   4.226   3.532   1.457
27095WAT     H181527   4.130   3.549   1.481
27095WAT     H281528   4.248   3.580   1.372
27096WAT      O81529   4.281   1.012   5.280
27096WAT     H181530   4.339   0.938   5.312
27096WAT     H281531   4.305   1.096   5.329
27097WAT      O81532   2.377   2.118   8.996
27097WAT     H181533   2.359   2.058   9.074
27097WAT     H281534   2.466   2.096   8.956
27098WAT      O81535   3.966   9.049   1.138
27098WAT     H181536   4.049   9.094   1.170
27098WAT     H281537   3.898   9.118   1.113
27099WAT      O81538   4.730   5.822   1.168
27099WAT     H181539   4.692   5.889   1.104
27099WAT     H281540   4.683   5.735   1.156
27100WAT      O81541   0.452   0.546   0.391
27100WAT     H181542   0.407   0.595   0.465
27100WAT     H281543   0.551   0.556   0.400
27101WAT      O81544   6.848   0.452   2.159
27101WAT     H181545   6.898   0.436   2.074
27101WAT     H281546   6.911   0.449   2.236
27102WAT      O81547   1.943   1.073   5.769
27102WAT     H181548   2.022   1.066   5.829
27102WAT     H281549   1.974   1.089   5.675
27103WAT      O81550   2.369   5.904   3.342
27103WAT     H181551   2.418   5.884   3.258
27103WAT     H281552   2.417   5.863   3.420
27104WAT      O81553   4.327   3.283   7.761
27104WAT     H181554   4.257   3.212   7.771
27104WAT     H281555   4.357   3.314   7.851
27105WAT      O81556   0.286   8.366   2.973
27105WAT     H181557   0.325   8.438   3.030
27105WAT     H281558   0.198   8.337   3.011
27106WAT      O81559   9.637   5.002   4.357
27106WAT     H181560   9.572   5.053   4.412
27106WAT     H281561   9.727   5.005   4.400
27107WAT      O81562   8.402   1.676   1.495
27107WAT     H181563   8.332   1.607   1.513
27107WAT     H281564   8.359   1.760   1.461
27108WAT      O81565   0.734   7.826   0.782
27108WAT     H181566   0.734   7.926   0.774
27108WAT     H281567   0.785   7.786   0.706
27109WAT      O81568   5.261   3.860   6.847
27109WAT     H181569   5.184   3.851   6.911
27109WAT     H281570   5.313   3.774   6.844
27110WAT      O81571   0.588   8.510   1.896
27110WAT     H181572   0.617   8.559   1.814
27110WAT     H281573   0.664   8.455   1.930
27111WAT      O81574   3.376   8.230   2.555
27111WAT     H181575   3.412   8.218   2.647
27111WAT     H281576   3.437   8.291   2.503
27112WAT      O81577   7.891   4.783   5.238
27112WAT     H181578   7.804   4.735   5.227
27112WAT     H281579   7.906   4.802   5.335
27113WAT      O81580   1.029   1.502   3.761
27113WAT     H181581   1.102   1.542   3.706
27113WAT     H281582   0.963   1.574   3.786
27114WAT      O81583   9.583   3.020   9.266
27114WAT     H181584   9.557   3.023   9.170
27114WAT     H281585   9.657   2.954   9.278
27115WAT      O81586   0.087   0.361   6.274
27115WAT     H181587   0.163   0.337   6.213
27115WAT     H281588   0.037   0.278   6.299
27116WAT      O81589   0.522   2.022   3.604
27116WAT     H181590   0.570   2.110   3.600
27116WAT     H281591   0.567   1.962   3.670
27117WAT      O81592   3.572   1.905   1.385
27117WAT     H181593   3.507   1.973   1.351
27117WAT     H281594   3.523   1.820   1.405
27118WAT      O81595   1.858   3.994   3.487
27118WAT     H181596   1.930   3.975   3.554
27118WAT     H281597   1.801   3.912   3.477
27119WAT      O81598   4.990   5.670   2.709
27119WAT     H181599   4.981   5.766   2.680
27119WAT     H281600   4.983   5.665   2.808
27120WAT      O81601   5.218   4.029   8.768
27120WAT     H181602   5.256   4.102   8.711
27120WAT     H281603   5.118   4.038   8.771
27121WAT      O81604   4.630   7.739   1.238
27121WAT     H181605   4.659   7.784   1.322
27121WAT     H281606   4.635   7.640   1.251
27122WAT      O81607   0.764   1.182   4.490
27122WAT     H181608   0.707   1.208   4.412
27122WAT     H281609   0.714   1.200   4.575
27123WAT      O81610   1.580   5.892   8.415
27123WAT     H181611   1.638   5.947   8.355
27123WAT     H281612   1.517   5.952   8.464
27124WAT      O81613   5.954   2.371   3.553
27124WAT     H181614   5.979   2.315   3.631
27124WAT     H281615   5.986   2.327   3.469
27125WAT      O81616   7.550   8.650   0.980
27125WAT     H181617   7.552   8.673   1.077
27125WAT     H281618   7.475   8.699   0.935
27126WAT      O81619   9.274   7.252   1.418
27126WAT     H181620   9.220   7.228   1.498
27126WAT     H281621   9.355   7.194   1.414
27127WAT      O81622   0.988   2.647   2.953
27127WAT     H181623   0.972   2.629   2.856
27127WAT     H281624   0.968   2.743   2.973
27128WAT      O81625   1.650   7.805   5.347
27128WAT     H181626   1.649   7.730   5.412
27128WAT     H281627   1.561   7.814   5.304
27129WAT      O81628   5.620   1.140   2.791
27129WAT     H181629   5.689   1.204   2.824
27129WAT     H281630   5.575   1.179   2.710
27130WAT      O81631   5.916   7.457   9.050
27130WAT     H181632   5.907   7.423   9.143
27130WAT     H281633   5.877   7.391   8.986
27131WAT      O81634   4.679   9.711   4.054
27131WAT     H181635   4.745   9.786   4.048
27131WAT     H281636   4.634   9.700   3.965
27132WAT      O81637   4.508   2.305   5.323
27132WAT     H181638   4.569   2.255   5.384
27132WAT     H281639   4.561   2.368   5.266
27133WAT      O81640   0.612   8.202   6.620
27133WAT     H181641   0.617   8.108   6.655
27133WAT     H281642   0.672   8.211   6.541
27134WAT      O81643   8.566   3.090   7.367
27134WAT     H181644   8.490   3.049   7.418
27134WAT     H281645   8.532   3.169   7.315
27135WAT      O81646   6.327   9.015   5.670
27135WAT     H181647   6.231   9.038   5.689
27135WAT     H281648   6.385   9.045   5.746
27136WAT      O81649   0.780   3.818   8.588
27136WAT     H181650   0.743   3.854   8.674
27136WAT     H281651   0.724   3.742   8.555
27137WAT      O81652   9.259   9.569   8.745
27137WAT     H181653   9.310   9.541   8.826
27137WAT     H281654   9.241   9.667   8.748
27138WAT      O81655   4.602   4.351   1.204
27138WAT     H181656   4.524   4.288   1.200
27138WAT     H281657   4.652   4.337   1.289
27139WAT      O81658   7.652   9.044   3.955
27139WAT     H181659   7.665   8.947   3.976
27139WAT     H281660   7.558   9.060   3.926
27140WAT      O81661   3.199   8.901   5.617
27140WAT     H181662   3.153   8.954   5.546
27140WAT     H281663   3.237   8.963   5.686
27141WAT      O81664   6.508   8.539   7.187
27141WAT     H181665   6.536   8.633   7.207
27141WAT     H281666   6.579   8.476   7.218
27142WAT      O81667   9.338   0.503   7.950
27142WAT     H181668   9.433   0.500   7.917
27142WAT     H281669   9.276   0.521   7.874
27143WAT      O81670   0.307   2.176   6.099
27143WAT     H181671   0.404   2.159   6.112
27143WAT     H281672   0.258   2.158   6.185
27144WAT      O81673   6.389   8.159   9.114
27144WAT     H181674   6.377   8.066   9.150
27144WAT     H281675   6.445   8.155   9.032
27145WAT      O81676   8.145   0.539   0.641
27145WAT     H181677   8.075   0.609   0.623
27145WAT     H281678   8.101   0.457   0.679
27146WAT      O81679   8.497   9.248   7.774
27146WAT     H181680   8.593   9.256   7.801
27146WAT     H281681   8.488   9.272   7.677
27147WAT      O81682   5.593   6.501   0.734
27147WAT     H181683   5.515   6.529   0.677
27147WAT     H281684   5.671   6.480   0.675
27148WAT      O81685   0.608   0.516   1.613
27148WAT     H181686   0.617   0.438   1.550
27148WAT     H281687   0.688   0.575   1.605
27149WAT      O81688   1.413   0.266   5.103
27149WAT     H181689   1.353   0.320   5.162
27149WAT     H281690   1.468   0.204   5.160
27150WAT      O81691   8.681   2.554   4.653
27150WAT     H181692   8.740   2.633   4.640
27150WAT     H281693   8.598   2.582   4.702
27151WAT      O81694   9.231   8.508   9.650
27151WAT     H181695   9.300   8.561   9.600
27151WAT     H281696   9.255   8.411   9.646
27152WAT      O81697   4.375   5.755   3.662
27152WAT     H181698   4.297   5.810   3.690
27152WAT     H281699   4.447   5.815   3.626
27153WAT      O81700   5.145   3.557   1.607
27153WAT     H181701   5.051   3.524   1.613
27153WAT     H281702   5.190   3.544   1.695
27154WAT      O81703   9.850   4.672   8.452
27154WAT     H181704   9.753   4.646   8.448
27154WAT     H281705   9.907   4.590   8.444
27155WAT      O81706   0.469   7.184   5.630
27155WAT     H181707   0.426   7.246   5.565
27155WAT     H281708   0.490   7.233   5.714
27156WAT      O81709   2.923   3.054   7.527
27156WAT     H181710   2.907   3.023   7.621
27156WAT     H281711   2.956   2.978   7.472
27157WAT      O81712   5.155   0.826   4.042
27157WAT     H181713   5.141   0.891   3.968
27157WAT     H281714   5.191   0.873   4.123
27158WAT      O81715   4.489   3.454   3.723
27158WAT     H181716   4.464   3.441   3.819
27158WAT     H281717   4.587   3.439   3.711
27159WAT      O81718   5.422   8.620   7.205
27159WAT     H181719   5.474   8.669   7.276
27159WAT     H281720   5.460   8.529   7.193
27160WAT      O81721   5.540   5.627   5.550
27160WAT     H181722   5.578   5.534   5.553
27160WAT     H281723   5.441   5.622   5.539
27161WAT      O81724   1.120   2.536   0.184
27161WAT     H181725   1.035   2.559   0.136
27161WAT     H281726   1.119   2.440   0.209
27162WAT      O81727   7.439   9.776   7.955
27162WAT     H181728   7.373   9.721   7.903
27162WAT     H281729   7.406   9.870   7.961
27163WAT      O81730   8.317   4.365   3.316
27163WAT     H181731   8.345   4.269   3.319
27163WAT     H281732   8.397   4.424   3.328
27164WAT      O81733   3.524   0.058   0.230
27164WAT     H181734   3.539   0.040   0.327
27164WAT     H281735   3.428   0.041   0.207
27165WAT      O81736   5.983   6.466   5.811
27165WAT     H181737   6.081   6.452   5.828
27165WAT     H281738   5.930   6.439   5.891
27166WAT      O81739   5.203   3.484   5.705
27166WAT     H181740   5.146   3.435   5.771
27166WAT     H281741   5.294   3.500   5.745
27167WAT      O81742   2.628   5.266   4.437
27167WAT     H181743   2.559   5.297   4.371
27167WAT     H281744   2.600   5.296   4.529
27168WAT      O81745   3.414   8.530   5.299
27168WAT     H181746   3.508   8.548   5.269
27168WAT     H281747   3.382   8.607   5.355
27169WAT      O81748   0.930   5.397   6.441
27169WAT     H181749   0.837   5.428   6.458
27169WAT     H281750   0.951   5.320   6.502
27170WAT      O81751   9.822   8.393   7.353
27170WAT     H181752   9.786   8.472   7.304
27170WAT     H281753   9.922   8.400   7.359
27171WAT      O81754   4.458   4.682   9.890
27171WAT     H181755   4.495   4.730   9.810
27171WAT     H281756   4.382   4.735   9.927
27172WAT      O81757   4.998   7.144   1.739
27172WAT     H181758   5.035   7.111   1.652
27172WAT     H281759   4.937   7.222   1.722
27173WAT      O81760   6.040   6.031   2.285
27173WAT     H181761   6.023   5.961   2.355
27173WAT     H281762   6.012   6.120   2.320
27174WAT      O81763   4.050   9.509   5.900
27174WAT     H181764   4.084   9.565   5.825
27174WAT     H281765   4.127   9.464   5.946
27175WAT      O81766   3.540   8.377   7.562
27175WAT     H181767   3.558   8.461   7.511
27175WAT     H281768   3.625   8.324   7.570
27176WAT      O81769   5.544   0.052   3.511
27176WAT     H181770   5.571   0.014   3.422
27176WAT     H281771   5.626   0.068   3.566
27177WAT      O81772   6.289   3.221   0.616
27177WAT     H181773   6.336   3.133   0.620
27177WAT     H281774   6.331   3.285   0.681
27178WAT      O81775   7.484   8.504   9.804
27178WAT     H181776   7.539   8.516   9.887
27178WAT     H281777   7.498   8.412   9.769
27179WAT      O81778   5.255   2.757   4.251
27179WAT     H181779   5.340   2.785   4.207
27179WAT     H281780   5.240   2.659   4.237
27180WAT      O81781   9.505   1.835   7.507
27180WAT     H181782   9.420   1.806   7.550
27180WAT     H281783   9.554   1.896   7.569
27181WAT      O81784   5.360   2.984   3.668
27181WAT     H181785   5.262   2.964   3.676
27181WAT     H281786   5.411   2.898   3.661
27182WAT      O81787   6.120   5.016   0.559
27182WAT     H181788   6.020   5.007   0.559
27182WAT     H281789   6.149   5.061   0.474
27183WAT      O81790   8.642   1.649   3.163
27183WAT     H181791   8.566   1.699   3.121
27183WAT     H281792   8.664   1.569   3.108
27184WAT      O81793   0.462   2.696   8.249
27184WAT     H181794   0.496   2.636   8.177
27184WAT     H281795   0.446   2.788   8.212
27185WAT      O81796   2.271   9.049   6.951
27185WAT     H181797   2.189   9.104   6.970
27185WAT     H281798   2.278   9.033   6.853
27186WAT      O81799   9.623   9.466   5.170
27186WAT     H181800   9.573   9.398   5.116
27186WAT     H281801   9.655   9.424   5.255
27187WAT      O81802   8.622   5.739   1.217
27187WAT     H181803   8.652   5.755   1.311
27187WAT     H281804   8.546   5.674   1.216
27188WAT      O81805   4.732   5.055   9.740
27188WAT     H181806   4.734   4.977   9.802
27188WAT     H281807   4.802   5.121   9.767
27189WAT      O81808   0.592   7.133   3.022
27189WAT     H181809   0.509   7.127   2.967
27189WAT     H281810   0.636   7.221   3.007
27190WAT      O81811   6.348   6.199   6.718
27190WAT     H181812   6.278   6.239   6.660
27190WAT     H281813   6.306   6.135   6.782
27191WAT      O81814   3.217   0.237   7.767
27191WAT     H181815   3.296   0.177   7.782
27191WAT     H281816   3.147   0.216   7.834
27192WAT      O81817   5.356   8.169   5.032
27192WAT     H181818   5.398   8.240   5.087
27192WAT     H281819   5.423   8.097   5.014
27193WAT      O81820   6.298   5.361   5.502
27193WAT     H181821   6.274   5.393   5.411
27193WAT     H281822   6.273   5.264   5.511
27194WAT      O81823   5.531   9.807   9.402
27194WAT     H181824   5.611   9.813   9.342
27194WAT     H281825   5.449   9.832   9.351
27195WAT      O81826   1.527   1.320   0.350
27195WAT     H181827   1.505   1.384   0.276
27195WAT     H281828   1.571   1.239   0.311
27196WAT      O81829   1.449   3.232   5.303
27196WAT     H181830   1.511   3.289   5.358
27196WAT     H281831   1.492   3.144   5.286
27197WAT      O81832   7.024   5.838   3.285
27197WAT     H181833   7.051   5.760   3.340
27197WAT     H281834   7.045   5.821   3.189
27198WAT      O81835   4.622   1.232   4.023
27198WAT     H181836   4.637   1.135   4.003
27198WAT     H281837   4.540   1.242   4.078
27199WAT      O81838   4.607   1.269   4.508
27199WAT     H181839   4.622   1.172   4.490
27199WAT     H281840   4.576   1.281   4.602
27200WAT      O81841   2.852   2.770   9.784
27200WAT     H181842   2.840   2.687   9.839
27200WAT     H281843   2.931   2.759   9.723
27201WAT      O81844   0.833   1.909   8.694
27201WAT     H181845   0.920   1.869   8.723
27201WAT     H281846   0.828   2.004   8.726
27202WAT      O81847   9.668   3.623   3.394
27202WAT     H181848   9.635   3.594   3.484
27202WAT     H281849   9.745   3.566   3.366
27203WAT      O81850   0.145   1.303   5.650
27203WAT     H181851   0.116   1.343   5.563
27203WAT     H281852   0.242   1.279   5.646
27204WAT      O81853   7.357   0.107   0.226
27204WAT     H181854   7.392   0.142   0.139
27204WAT     H281855   7.387   0.013   0.239
27205WAT      O81856   8.963   4.648   3.218
27205WAT     H181857   8.970   4.703   3.135
27205WAT     H281858   9.031   4.681   3.285
27206WAT      O81859   9.794   0.419   5.476
27206WAT     H181860   9.741   0.356   5.419
27206WAT     H281861   9.886   0.428   5.437
27207WAT      O81862   1.173   2.945   8.567
27207WAT     H181863   1.228   3.028   8.558
27207WAT     H281864   1.202   2.879   8.498
27208WAT      O81865   3.300   2.378   0.669
27208WAT     H181866   3.238   2.452   0.641
27208WAT     H281867   3.252   2.316   0.731
27209WAT      O81868   3.768   6.473   7.995
27209WAT     H181869   3.794   6.377   7.998
27209WAT     H281870   3.671   6.482   8.019
27210WAT      O81871   6.823   6.000   3.291
27210WAT     H181872   6.898   5.934   3.292
27210WAT     H281873   6.793   6.016   3.197
27211WAT      O81874   1.984   7.505   1.643
27211WAT     H181875   1.887   7.530   1.637
27211WAT     H281876   2.040   7.586   1.634
27212WAT      O81877   7.829   8.110   4.482
27212WAT     H181878   7.780   8.038   4.531
27212WAT     H281879   7.764   8.181   4.455
27213WAT      O81880   2.497   7.301   7.731
27213WAT     H181881   2.492   7.314   7.830
27213WAT     H281882   2.584   7.260   7.707
27214WAT      O81883   9.538   2.040   6.735
27214WAT     H181884   9.598   2.053   6.656
27214WAT     H281885   9.566   2.103   6.808
27215WAT      O81886   3.496   4.781   3.870
27215WAT     H181887   3.511   4.829   3.956
27215WAT     H281888   3.398   4.766   3.857
27216WAT      O81889   7.710   3.075   5.238
27216WAT     H181890   7.791   3.016   5.243
27216WAT     H281891   7.688   3.108   5.330
27217WAT      O81892   6.550   7.913   1.550
27217WAT     H181893   6.599   7.985   1.599
27217WAT     H281894   6.467   7.952   1.509
27218WAT      O81895   0.949   1.857   2.863
27218WAT     H181896   0.954   1.887   2.768
27218WAT     H281897   0.879   1.786   2.873
27219WAT      O81898   3.567   4.829   0.372
27219WAT     H181899   3.513   4.899   0.419
27219WAT     H281900   3.598   4.865   0.284
27220WAT      O81901   0.528   3.551   3.825
27220WAT     H181902   0.538   3.472   3.885
27220WAT     H281903   0.563   3.633   3.872
27221WAT      O81904   4.622   0.143   2.623
27221WAT     H181905   4.685   0.220   2.614
27221WAT     H281906   4.535   0.166   2.579
27222WAT      O81907   6.187   3.013   7.678
27222WAT     H181908   6.255   3.068   7.630
27222WAT     H281909   6.131   3.071   7.736
27223WAT      O81910   0.704   0.932   5.253
27223WAT     H181911   0.679   0.962   5.345
27223WAT     H281912   0.675   1.002   5.187
27224WAT      O81913   2.895   2.708   9.393
27224WAT     H181914   2.936   2.652   9.465
27224WAT     H281915   2.958   2.716   9.316
27225WAT      O81916   6.615   0.181   5.259
27225WAT     H181917   6.561   0.151   5.179
27225WAT     H281918   6.554   0.195   5.337
27226WAT      O81919   7.977   7.617   6.461
27226WAT     H181920   8.009   7.546   6.524
27226WAT     H281921   8.039   7.624   6.384
27227WAT      O81922   3.681   5.313   2.935
27227WAT     H181923   3.638   5.391   2.981
27227WAT     H281924   3.753   5.276   2.995
27228WAT      O81925   2.457   3.385   3.436
27228WAT     H181926   2.429   3.476   3.406
27228WAT     H281927   2.555   3.384   3.456
27229WAT      O81928   1.012   5.317   9.296
27229WAT     H181929   0.980   5.380   9.225
27229WAT     H281930   0.989   5.354   9.386
27230WAT      O81931   5.247   4.582   0.926
27230WAT     H181932   5.249   4.681   0.914
27230WAT     H281933   5.158   4.547   0.896
27231WAT      O81934   1.392   7.587   5.467
27231WAT     H181935   1.342   7.673   5.458
27231WAT     H281936   1.339   7.523   5.524
27232WAT      O81937   1.647   0.218   5.921
27232WAT     H181938   1.714   0.165   5.973
27232WAT     H281939   1.639   0.181   5.829
27233WAT      O81940   5.749   5.056   9.529
27233WAT     H181941   5.753   5.131   9.462
27233WAT     H281942   5.747   4.969   9.481
27234WAT      O81943   0.341   4.170   4.400
27234WAT     H181944   0.305   4.184   4.307
27234WAT     H281945   0.332   4.074   4.425
27235WAT      O81946   4.519   8.639   2.441
27235WAT     H181947   4.578   8.599   2.371
27235WAT     H281948   4.565   8.637   2.529
27236WAT      O81949   4.084   4.446   2.543
27236WAT     H181950   4.022   4.372   2.570
27236WAT     H281951   4.141   4.472   2.621
27237WAT      O81952   6.033   5.665   1.579
27237WAT     H181953   6.082   5.582   1.607
27237WAT     H281954   5.972   5.694   1.653
27238WAT      O81955   6.293   4.900   2.572
27238WAT     H181956   6.302   4.892   2.472
27238WAT     H281957   6.232   4.976   2.594
27239WAT      O81958   8.404   0.326   3.480
27239WAT     H181959   8.423   0.420   3.508
27239WAT     H281960   8.353   0.279   3.553
27240WAT      O81961   6.745   8.494   0.055
27240WAT     H181962   6.828   8.490  -0.001
27240WAT     H281963   6.727   8.404   0.095
27241WAT      O81964   1.793   4.869   6.337
27241WAT     H181965   1.792   4.780   6.292
27241WAT     H281966   1.721   4.872   6.406
27242WAT      O81967   2.090   3.911   8.083
27242WAT     H181968   2.124   4.005   8.076
27242WAT     H281969   2.123   3.858   8.004
27243WAT      O81970   7.546   6.500   2.637
27243WAT     H181971   7.624   6.438   2.643
27243WAT     H281972   7.472   6.466   2.694
27244WAT      O81973   4.801   7.130   0.421
27244WAT     H181974   4.878   7.147   0.483
27244WAT     H281975   4.835   7.086   0.337
27245WAT      O81976   5.872   6.049   4.622
27245WAT     H181977   5.881   5.963   4.572
27245WAT     H281978   5.792   6.046   4.681
27246WAT      O81979   1.826   8.901   0.913
27246WAT     H181980   1.783   8.825   0.865
27246WAT     H281981   1.756   8.958   0.956
27247WAT      O81982   8.888   4.258   6.979
27247WAT     H181983   8.923   4.168   6.954
27247WAT     H281984   8.950   4.329   6.947
27248WAT      O81985   1.647   6.191   0.293
27248WAT     H181986   1.729   6.162   0.342
27248WAT     H281987   1.577   6.119   0.300
27249WAT      O81988   7.829   7.648   2.670
27249WAT     H181989   7.733   7.639   2.693
27249WAT     H281990   7.851   7.743   2.649
27250WAT      O81991   4.780   7.517   8.626
27250WAT     H181992   4.763   7.424   8.658
27250WAT     H281993   4.699   7.573   8.642
27251WAT      O81994   5.545   3.092   0.543
27251WAT     H181995   5.532   3.129   0.635
27251WAT     H281996   5.525   2.994   0.542
27252WAT      O81997   0.198   6.297   5.049
27252WAT     H181998   0.237   6.336   5.132
27252WAT     H281999   0.106   6.262   5.069
27253WAT      O82000   4.621   1.165   6.593
27253WAT     H182001   4.525   1.190   6.576
27253WAT     H282002   4.679   1.245   6.582
27254WAT      O82003   7.466   8.750   9.672
27254WAT     H182004   7.465   8.691   9.752
27254WAT     H282005   7.542   8.725   9.613
27255WAT      O82006   6.266   6.502   6.142
27255WAT     H182007   6.208   6.583   6.157
27255WAT     H282008   6.283   6.493   6.044
27256WAT      O82009   6.941   4.132   5.740
27256WAT     H182010   6.909   4.038   5.725
27256WAT     H282011   6.903   4.166   5.827
27257WAT      O82012   7.470   2.019   5.572
27257WAT     H182013   7.455   2.099   5.514
27257WAT     H282014   7.529   1.954   5.524
27258WAT      O82015   8.848   0.130   7.897
27258WAT     H182016   8.764   0.184   7.892
27258WAT     H282017   8.927   0.190   7.883
27259WAT      O82018   8.066   3.823   0.513
27259WAT     H182019   8.115   3.909   0.497
27259WAT     H282020   7.967   3.841   0.512
27260WAT      O82021   1.658   5.595   0.921
27260WAT     H182022   1.706   5.671   0.875
27260WAT     H282023   1.642   5.521   0.855
27261WAT      O82024   3.686   8.671   1.089
27261WAT     H182025   3.773   8.630   1.064
27261WAT     H282026   3.696   8.771   1.094
27262WAT      O82027   6.357   2.504   3.532
27262WAT     H182028   6.299   2.521   3.612
27262WAT     H282029   6.305   2.520   3.448
27263WAT      O82030   1.111   8.212   1.282
27263WAT     H182031   1.111   8.209   1.182
27263WAT     H282032   1.203   8.189   1.315
27264WAT      O82033   9.882   9.633   9.053
27264WAT     H182034   9.784   9.616   9.041
27264WAT     H282035   9.913   9.590   9.138
27265WAT      O82036   8.032   1.578   8.990
27265WAT     H182037   8.022   1.536   9.081
27265WAT     H282038   7.963   1.650   8.979
27266WAT      O82039   5.528   8.324   9.700
27266WAT     H182040   5.625   8.317   9.675
27266WAT     H282041   5.497   8.418   9.686
27267WAT      O82042   2.818   5.666   1.670
27267WAT     H182043   2.753   5.666   1.746
27267WAT     H282044   2.821   5.757   1.629
27268WAT      O82045   9.681   5.029   2.330
27268WAT     H182046   9.779   5.028   2.351
27268WAT     H282047   9.631   4.980   2.402
27269WAT      O82048   4.183   2.465   3.259
27269WAT     H182049   4.144   2.380   3.225
27269WAT     H282050   4.241   2.506   3.188
27270WAT      O82051   9.795   9.578   1.926
27270WAT     H182052   9.700   9.579   1.895
27270WAT     H282053   9.804   9.640   2.004
27271WAT      O82054   3.060   6.561   9.857
27271WAT     H182055   3.159   6.575   9.855
27271WAT     H282056   3.036   6.479   9.804
27272WAT      O82057   9.764   3.293   8.693
27272WAT     H182058   9.783   3.336   8.604
27272WAT     H282059   9.781   3.195   8.687
27273WAT      O82060   2.653   3.817   9.214
27273WAT     H182061   2.688   3.742   9.158
27273WAT     H282062   2.623   3.780   9.302
27274WAT      O82063   5.462   2.088   2.300
27274WAT     H182064   5.421   1.997   2.297
27274WAT     H282065   5.405   2.149   2.354
27275WAT      O82066   3.048   6.311   8.659
27275WAT     H182067   3.017   6.237   8.719
27275WAT     H282068   3.148   6.309   8.654
27276WAT      O82069   3.780   2.132   8.659
27276WAT     H182070   3.808   2.070   8.733
27276WAT     H282071   3.858   2.187   8.630
27277WAT      O82072   0.711   9.247   4.438
27277WAT     H182073   0.716   9.295   4.350
27277WAT     H282074   0.625   9.198   4.445
27278WAT      O82075   6.376   9.603   2.920
27278WAT     H182076   6.393   9.626   3.016
27278WAT     H282077   6.350   9.507   2.913
27279WAT      O82078   8.913   5.001   3.928
27279WAT     H182079   8.843   4.940   3.963
27279WAT     H282080   8.886   5.096   3.942
27280WAT      O82081   6.814   0.787   2.583
27280WAT     H182082   6.761   0.725   2.525
27280WAT     H282083   6.774   0.878   2.580
27281WAT      O82084   4.617   7.082   6.834
27281WAT     H182085   4.538   7.022   6.818
27281WAT     H282086   4.610   7.162   6.775
27282WAT      O82087   2.168   5.024   1.412
27282WAT     H182088   2.195   5.076   1.493
27282WAT     H282089   2.230   4.946   1.400
27283WAT      O82090   3.102   0.092   9.549
27283WAT     H182091   3.169   0.019   9.536
27283WAT     H282092   3.054   0.078   9.636
27284WAT      O82093   3.589   2.463   2.201
27284WAT     H182094   3.593   2.364   2.215
27284WAT     H282095   3.566   2.508   2.287
27285WAT      O82096   9.379   5.779   9.488
27285WAT     H182097   9.374   5.716   9.566
27285WAT     H282098   9.445   5.852   9.508
27286WAT      O82099   7.887   2.113   5.719
27286WAT     H182100   7.900   2.147   5.625
27286WAT     H282101   7.976   2.110   5.765
27287WAT      O82102   3.396   2.778   1.212
27287WAT     H182103   3.322   2.775   1.144
27287WAT     H282104   3.445   2.864   1.203
27288WAT      O82105   9.315   8.366   2.815
27288WAT     H182106   9.242   8.408   2.761
27288WAT     H282107   9.389   8.431   2.828
27289WAT      O82108   5.077   4.234   9.185
27289WAT     H182109   5.087   4.173   9.263
27289WAT     H282110   5.098   4.328   9.213
27290WAT      O82111   3.522   6.446   8.079
27290WAT     H182112   3.523   6.472   8.175
27290WAT     H282113   3.510   6.347   8.072
27291WAT      O82114   3.862   7.648   5.364
27291WAT     H182115   3.847   7.552   5.341
27291WAT     H282116   3.854   7.660   5.463
27292WAT      O82117   4.091   1.858   9.440
27292WAT     H182118   4.188   1.831   9.443
27292WAT     H282119   4.036   1.780   9.410
27293WAT      O82120   7.438   4.460   7.326
27293WAT     H182121   7.374   4.442   7.251
27293WAT     H282122   7.472   4.373   7.362
27294WAT      O82123   2.968   4.835   5.517
27294WAT     H182124   2.997   4.767   5.585
27294WAT     H282125   2.972   4.794   5.426
27295WAT      O82126   5.708   0.679   4.543
27295WAT     H182127   5.703   0.579   4.545
27295WAT     H282128   5.791   0.707   4.494
27296WAT      O82129   5.657   4.815   9.439
27296WAT     H182130   5.617   4.786   9.352
27296WAT     H282131   5.659   4.737   9.502
27297WAT      O82132   5.150   7.063   5.595
27297WAT     H182133   5.220   7.120   5.637
27297WAT     H282134   5.070   7.119   5.572
27298WAT      O82135   7.770   1.002   2.853
27298WAT     H182136   7.746   1.077   2.792
27298WAT     H282137   7.688   0.971   2.902
27299WAT      O82138   4.262   8.564   8.369
27299WAT     H182139   4.353   8.545   8.332
27299WAT     H282140   4.198   8.580   8.294
27300WAT      O82141   9.154   6.465   6.514
27300WAT     H182142   9.146   6.365   6.514
27300WAT     H282143   9.237   6.492   6.563
27301WAT      O82144   8.709   2.502   0.335
27301WAT     H182145   8.635   2.558   0.372
27301WAT     H282146   8.685   2.405   0.345
27302WAT      O82147   3.271   5.496   9.884
27302WAT     H182148   3.309   5.583   9.851
27302WAT     H282149   3.172   5.505   9.895
27303WAT      O82150   9.050   8.013   3.866
27303WAT     H182151   9.073   8.109   3.848
27303WAT     H282152   8.960   8.008   3.910
27304WAT      O82153   6.683   9.845   0.972
27304WAT     H182154   6.693   9.756   1.017
27304WAT     H282155   6.598   9.888   1.003
27305WAT      O82156   4.925   5.310   1.400
27305WAT     H182157   4.958   5.250   1.473
27305WAT     H282158   4.842   5.356   1.430
27306WAT      O82159   6.353   7.694   0.719
27306WAT     H182160   6.382   7.634   0.793
27306WAT     H282161   6.409   7.776   0.718
27307WAT      O82162   0.785   6.387   8.986
27307WAT     H182163   0.717   6.435   9.042
27307WAT     H282164   0.835   6.453   8.930
27308WAT      O82165   7.013   6.049   4.174
27308WAT     H182166   7.096   6.006   4.136
27308WAT     H282167   7.033   6.087   4.264
27309WAT      O82168   4.640   2.493   6.818
27309WAT     H182169   4.610   2.443   6.899
27309WAT     H282170   4.562   2.505   6.755
27310WAT      O82171   7.664   4.731   6.485
27310WAT     H182172   7.613   4.812   6.455
27310WAT     H282173   7.756   4.733   6.445
27311WAT      O82174   1.284   2.511   6.930
27311WAT     H182175   1.253   2.553   6.845
27311WAT     H282176   1.341   2.576   6.981
27312WAT      O82177   4.755   3.383   6.503
27312WAT     H182178   4.690   3.456   6.522
27312WAT     H282179   4.829   3.419   6.446
27313WAT      O82180   8.517   1.173   1.694
27313WAT     H182181   8.616   1.172   1.700
27313WAT     H282182   8.486   1.094   1.641
27314WAT      O82183   2.119   5.759   5.456
27314WAT     H182184   2.153   5.767   5.550
27314WAT     H282185   2.019   5.761   5.455
27315WAT      O82186   6.779   7.108   1.114
27315WAT     H182187   6.782   7.135   1.210
27315WAT     H282188   6.719   7.029   1.103
27316WAT      O82189   8.241   3.569   6.204
27316WAT     H182190   8.241   3.471   6.185
27316WAT     H282191   8.203   3.586   6.295
27317WAT      O82192   3.981   7.206   9.026
27317WAT     H182193   4.067   7.233   9.069
27317WAT     H282194   3.905   7.257   9.067
27318WAT      O82195   8.808   7.435   4.160
27318WAT     H182196   8.894   7.399   4.194
27318WAT     H282197   8.748   7.359   4.133
27319WAT      O82198   1.744   9.108   4.228
27319WAT     H182199   1.774   9.093   4.134
27319WAT     H282200   1.652   9.146   4.228
27320WAT      O82201   0.725   1.151   9.688
27320WAT     H182202   0.684   1.060   9.694
27320WAT     H282203   0.652   1.218   9.672
27321WAT      O82204   2.339   6.929   0.977
27321WAT     H182205   2.297   6.882   0.899
27321WAT     H282206   2.437   6.937   0.962
27322WAT      O82207   5.053   3.322   0.737
27322WAT     H182208   5.129   3.376   0.772
27322WAT     H282209   4.982   3.314   0.808
27323WAT      O82210   5.958   0.974   7.174
27323WAT     H182211   5.953   0.915   7.094
27323WAT     H282212   5.867   0.986   7.214
27324WAT      O82213   5.006   0.700   6.371
27324WAT     H182214   5.060   0.754   6.435
27324WAT     H282215   4.910   0.729   6.375
27325WAT      O82216   3.973   2.147   1.104
27325WAT     H182217   4.047   2.190   1.157
27325WAT     H282218   3.885   2.186   1.132
27326WAT      O82219   8.173   6.541   4.433
27326WAT     H182220   8.196   6.635   4.459
27326WAT     H282221   8.074   6.527   4.443
27327WAT      O82222   0.957   5.519   2.609
27327WAT     H182223   1.032   5.585   2.623
27327WAT     H282224   0.943   5.506   2.511
27328WAT      O82225   4.060   5.087   0.106
27328WAT     H182226   3.967   5.097   0.071
27328WAT     H282227   4.069   4.998   0.151
27329WAT      O82228   3.419   6.476   9.013
27329WAT     H182229   3.448   6.572   9.006
27329WAT     H282230   3.354   6.455   8.939
27330WAT      O82231   7.346   3.162   2.682
27330WAT     H182232   7.340   3.114   2.594
27330WAT     H282233   7.345   3.261   2.666
27331WAT      O82234   0.456   4.168   3.386
27331WAT     H182235   0.542   4.187   3.338
27331WAT     H282236   0.381   4.170   3.321
27332WAT      O82237   8.666   1.490   2.964
27332WAT     H182238   8.750   1.467   2.914
27332WAT     H282239   8.618   1.563   2.915
27333WAT      O82240   0.771   1.299   1.454
27333WAT     H182241   0.777   1.399   1.460
27333WAT     H282242   0.862   1.260   1.465
27334WAT      O82243   0.794   4.763   0.883
27334WAT     H182244   0.770   4.747   0.979
27334WAT     H282245   0.716   4.805   0.837
27335WAT      O82246   7.410   7.437   4.878
27335WAT     H182247   7.457   7.372   4.938
27335WAT     H282248   7.459   7.524   4.877
27336WAT      O82249   1.403   9.429   2.477
27336WAT     H182250   1.496   9.447   2.444
27336WAT     H282251   1.357   9.515   2.496
27337WAT      O82252   8.814   7.698   4.120
27337WAT     H182253   8.803   7.745   4.208
27337WAT     H282254   8.808   7.599   4.133
27338WAT      O82255   7.591   0.577   9.774
27338WAT     H182256   7.586   0.565   9.675
27338WAT     H282257   7.650   0.656   9.794
27339WAT      O82258   2.293   7.987   4.863
27339WAT     H182259   2.341   8.048   4.926
27339WAT     H282260   2.215   7.946   4.909
27340WAT      O82261   1.130   3.686   2.007
27340WAT     H182262   1.042   3.679   2.055
27340WAT     H282263   1.195   3.623   2.048
27341WAT      O82264   4.900   7.128   0.791
27341WAT     H182265   4.809   7.148   0.829
27341WAT     H282266   4.918   7.189   0.714
27342WAT      O82267   5.573   9.134   8.090
27342WAT     H182268   5.519   9.111   8.172
27342WAT     H282269   5.623   9.053   8.060
27343WAT      O82270   0.693   4.934   6.427
27343WAT     H182271   0.609   4.988   6.434
27343WAT     H282272   0.719   4.900   6.518
27344WAT      O82273   0.654   6.513   0.359
27344WAT     H182274   0.565   6.524   0.403
27344WAT     H282275   0.646   6.446   0.285
27345WAT      O82276   7.609   3.173   6.538
27345WAT     H182277   7.511   3.183   6.556
27345WAT     H282278   7.662   3.210   6.614
27346WAT      O82279   2.763   0.484   8.380
27346WAT     H182280   2.849   0.493   8.328
27346WAT     H282281   2.750   0.565   8.437
27347WAT      O82282   3.750   8.917   1.492
27347WAT     H182283   3.734   8.997   1.549
27347WAT     H282284   3.735   8.834   1.547
27348WAT      O82285   7.994   7.805   3.503
27348WAT     H182286   7.924   7.854   3.451
27348WAT     H282287   7.976   7.814   3.600
27349WAT      O82288   5.159   4.671   2.628
27349WAT     H182289   5.155   4.766   2.597
27349WAT     H282290   5.213   4.617   2.563
27350WAT      O82291   1.341   4.770   9.850
27350WAT     H182292   1.372   4.859   9.819
27350WAT     H282293   1.420   4.710   9.865
27351WAT      O82294   8.772   6.101   0.697
27351WAT     H182295   8.824   6.130   0.617
27351WAT     H282296   8.693   6.161   0.710
27352WAT      O82297   4.125   5.229   1.034
27352WAT     H182298   4.068   5.174   0.971
27352WAT     H282299   4.188   5.168   1.082
27353WAT      O82300   8.345   4.882   1.234
27353WAT     H182301   8.429   4.913   1.279
27353WAT     H282302   8.267   4.897   1.295
27354WAT      O82303   7.525   7.048   4.817
27354WAT     H182304   7.496   7.119   4.752
27354WAT     H282305   7.447   7.018   4.871
27355WAT      O82306   0.666   0.901   6.463
27355WAT     H182307   0.589   0.837   6.463
27355WAT     H282308   0.688   0.927   6.369
27356WAT      O82309   9.169   9.010   3.276
27356WAT     H182310   9.256   9.060   3.269
27356WAT     H282311   9.169   8.954   3.359
27357WAT      O82312   4.532   2.683   8.989
27357WAT     H182313   4.529   2.723   8.897
27357WAT     H282314   4.463   2.610   8.996
27358WAT      O82315   8.371   3.316   0.939
27358WAT     H182316   8.322   3.254   0.877
27358WAT     H282317   8.430   3.264   0.999
27359WAT      O82318   4.159   9.320   3.855
27359WAT     H182319   4.238   9.275   3.812
27359WAT     H282320   4.177   9.333   3.952
27360WAT      O82321   5.031   3.282   6.924
27360WAT     H182322   5.121   3.261   6.886
27360WAT     H282323   4.962   3.271   6.853
27361WAT      O82324   0.424   5.971   8.003
27361WAT     H182325   0.432   5.878   7.968
27361WAT     H282326   0.476   6.034   7.945
27362WAT      O82327   7.364   3.215   7.645
27362WAT     H182328   7.360   3.274   7.726
27362WAT     H282329   7.328   3.265   7.566
27363WAT      O82330   7.454   6.421   9.272
27363WAT     H182331   7.423   6.345   9.329
27363WAT     H282332   7.379   6.487   9.263
27364WAT      O82333   5.252   4.818   8.721
27364WAT     H182334   5.277   4.868   8.803
27364WAT     H282335   5.186   4.746   8.744
27365WAT      O82336   7.326   7.068   6.648
27365WAT     H182337   7.239   7.077   6.600
27365WAT     H282338   7.387   7.143   6.621
27366WAT      O82339   4.168   4.075   1.872
27366WAT     H182340   4.186   4.002   1.806
27366WAT     H282341   4.251   4.131   1.883
27367WAT      O82342   5.038   1.419   6.635
27367WAT     H182343   5.032   1.470   6.720
27367WAT     H282344   5.066   1.481   6.561
27368WAT      O82345   8.099   6.521   9.116
27368WAT     H182346   8.066   6.460   9.044
27368WAT     H282347   8.092   6.615   9.085
27369WAT      O82348   6.074   2.233   0.875
27369WAT     H182349   6.051   2.149   0.826
27369WAT     H282350   6.171   2.252   0.865
27370WAT      O82351   1.156   8.480   5.738
27370WAT     H182352   1.139   8.504   5.642
27370WAT     H282353   1.143   8.381   5.750
27371WAT      O82354   0.405   9.241   3.690
27371WAT     H182355   0.384   9.302   3.613
27371WAT     H282356   0.320   9.201   3.725
27372WAT      O82357   5.493   6.336   1.262
27372WAT     H182358   5.463   6.388   1.182
27372WAT     H282359   5.547   6.257   1.231
27373WAT      O82360   8.955   1.822   0.208
27373WAT     H182361   8.919   1.801   0.298
27373WAT     H282362   9.049   1.788   0.200
27374WAT      O82363   4.804   8.083   6.029
27374WAT     H182364   4.770   8.177   6.020
27374WAT     H282365   4.753   8.035   6.100
27375WAT      O82366   1.629   1.273   4.389
27375WAT     H182367   1.562   1.311   4.326
27375WAT     H282368   1.676   1.196   4.346
27376WAT      O82369   6.358   5.637   4.209
27376WAT     H182370   6.331   5.649   4.305
27376WAT     H282371   6.451   5.599   4.206
27377WAT      O82372   0.472   5.063   5.485
27377WAT     H182373   0.481   5.161   5.472
27377WAT     H282374   0.543   5.031   5.548
27378WAT      O82375   0.923   6.495   0.470
27378WAT     H182376   0.946   6.580   0.517
27378WAT     H282377   0.841   6.510   0.414
27379WAT      O82378   6.257   2.727   0.155
27379WAT     H182379   6.339   2.679   0.124
27379WAT     H282380   6.218   2.678   0.233
27380WAT      O82381   4.109   0.770   9.226
27380WAT     H182382   4.034   0.798   9.165
27380WAT     H282383   4.098   0.815   9.315
27381WAT      O82384   1.500   3.540   6.803
27381WAT     H182385   1.430   3.489   6.754
27381WAT     H282386   1.473   3.552   6.898
27382WAT      O82387   7.265   8.887   8.831
27382WAT     H182388   7.299   8.849   8.917
27382WAT     H282389   7.297   8.831   8.755
27383WAT      O82390   8.839   4.406   3.842
27383WAT     H182391   8.781   4.340   3.794
27383WAT     H282392   8.905   4.357   3.899
27384WAT      O82393   0.195   3.567   1.370
27384WAT     H182394   0.147   3.569   1.457
27384WAT     H282395   0.250   3.650   1.359
27385WAT      O82396   6.863   3.514   4.301
27385WAT     H182397   6.806   3.525   4.219
27385WAT     H282398   6.954   3.552   4.283
27386WAT      O82399   4.473   8.297   4.655
27386WAT     H182400   4.425   8.251   4.729
27386WAT     H282401   4.420   8.289   4.570
27387WAT      O82402   6.865   7.711   5.381
27387WAT     H182403   6.789   7.774   5.370
27387WAT     H282404   6.944   7.760   5.420
27388WAT      O82405   7.334   2.829   6.172
27388WAT     H182406   7.404   2.788   6.114
27388WAT     H282407   7.318   2.771   6.252
27389WAT      O82408   4.840   0.401   0.124
27389WAT     H182409   4.939   0.397   0.132
27389WAT     H282410   4.813   0.487   0.081
27390WAT      O82411   3.688   8.031   5.806
27390WAT     H182412   3.693   7.940   5.848
27390WAT     H282413   3.768   8.085   5.832
27391WAT      O82414   5.133   2.260   7.418
27391WAT     H182415   5.110   2.162   7.424
27391WAT     H282416   5.227   2.269   7.387
27392WAT      O82417   2.537   2.395   7.651
27392WAT     H182418   2.466   2.333   7.619
27392WAT     H282419   2.511   2.434   7.739
27393WAT      O82420   5.752   4.143   6.185
27393WAT     H182421   5.831   4.145   6.247
27393WAT     H282422   5.781   4.115   6.094
27394WAT      O82423   1.037   3.043   4.147
27394WAT     H182424   1.099   3.037   4.225
27394WAT     H282425   1.089   3.027   4.063
27395WAT      O82426   7.595   1.812   7.269
27395WAT     H182427   7.632   1.724   7.298
27395WAT     H282428   7.585   1.872   7.349
27396WAT      O82429   7.526   3.357   8.321
27396WAT     H182430   7.493   3.435   8.268
27396WAT     H282431   7.624   3.368   8.339
27397WAT      O82432   5.174   5.107   1.077
27397WAT     H182433   5.257   5.151   1.044
27397WAT     H282434   5.198   5.035   1.142
27398WAT      O82435   4.187   3.367   3.973
27398WAT     H182436   4.101   3.414   3.994
27398WAT     H282437   4.261   3.410   4.024
27399WAT      O82438   3.571   6.614   0.774
27399WAT     H182439   3.647   6.678   0.764
27399WAT     H282440   3.500   6.654   0.833
27400WAT      O82441   2.576   3.621   6.112
27400WAT     H182442   2.644   3.561   6.070
27400WAT     H282443   2.569   3.601   6.210
27401WAT      O82444   8.845   2.875   2.882
27401WAT     H182445   8.909   2.912   2.815
27401WAT     H282446   8.754   2.915   2.867
27402WAT      O82447   0.612   9.229   1.961
27402WAT     H182448   0.600   9.134   1.991
27402WAT     H282449   0.529   9.281   1.981
27403WAT      O82450   2.029   2.094   3.452
27403WAT     H182451   1.948   2.112   3.507
27403WAT     H282452   2.004   2.039   3.372
27404WAT      O82453   9.850   4.746   8.768
27404WAT     H182454   9.904   4.776   8.690
27404WAT     H282455   9.769   4.804   8.778
27405WAT      O82456   1.104   0.296   0.425
27405WAT     H182457   1.134   0.213   0.377
27405WAT     H282458   1.049   0.351   0.363
27406WAT      O82459   5.975   0.897   5.589
27406WAT     H182460   6.035   0.849   5.526
27406WAT     H282461   5.904   0.834   5.623
27407WAT      O82462   9.780   3.981   4.037
27407WAT     H182463   9.852   3.911   4.030
27407WAT     H282464   9.818   4.070   4.014
27408WAT      O82465   6.634   1.579   5.846
27408WAT     H182466   6.593   1.499   5.891
27408WAT     H282467   6.617   1.575   5.748
27409WAT      O82468   3.325   8.605   5.822
27409WAT     H182469   3.343   8.525   5.765
27409WAT     H282470   3.226   8.614   5.837
27410WAT      O82471   5.258   7.378   5.562
27410WAT     H182472   5.213   7.412   5.644
27410WAT     H282473   5.339   7.433   5.543
27411WAT      O82474   3.035   1.242   8.560
27411WAT     H182475   3.060   1.153   8.522
27411WAT     H282476   2.967   1.230   8.632
27412WAT      O82477   9.391   7.452   5.654
27412WAT     H182478   9.434   7.532   5.696
27412WAT     H282479   9.460   7.395   5.611
27413WAT      O82480   8.734   3.987   5.496
27413WAT     H182481   8.701   3.968   5.588
27413WAT     H282482   8.734   3.902   5.442
27414WAT      O82483   8.721   4.607   2.389
27414WAT     H182484   8.764   4.630   2.302
27414WAT     H282485   8.744   4.676   2.457
27415WAT      O82486   9.822   3.834   9.590
27415WAT     H182487   9.914   3.871   9.582
27415WAT     H282488   9.827   3.738   9.616
27416WAT      O82489   0.651   8.156   3.543
27416WAT     H182490   0.639   8.061   3.572
27416WAT     H282491   0.584   8.214   3.589
27417WAT      O82492   3.075   6.032   4.481
27417WAT     H182493   3.079   5.959   4.548
27417WAT     H282494   3.014   6.006   4.406
27418WAT      O82495   3.846   8.338   9.444
27418WAT     H182496   3.807   8.283   9.518
27418WAT     H282497   3.897   8.279   9.382
27419WAT      O82498   2.567   6.751   3.097
27419WAT     H182499   2.557   6.836   3.046
27419WAT     H282500   2.512   6.679   3.053
27420WAT      O82501   3.146   0.888   3.425
27420WAT     H182502   3.074   0.909   3.490
27420WAT     H282503   3.182   0.972   3.385
27421WAT      O82504   8.768   7.942   0.739
27421WAT     H182505   8.822   7.858   0.736
27421WAT     H282506   8.684   7.929   0.687
27422WAT      O82507   8.987   4.605   8.261
27422WAT     H182508   9.007   4.539   8.188
27422WAT     H282509   9.013   4.697   8.230
27423WAT      O82510   1.723   7.562   4.452
27423WAT     H182511   1.702   7.639   4.392
27423WAT     H282512   1.645   7.544   4.511
27424WAT      O82513   3.398   6.601   2.901
27424WAT     H182514   3.394   6.647   2.989
27424WAT     H282515   3.340   6.650   2.835
27425WAT      O82516   5.171   1.482   0.237
27425WAT     H182517   5.204   1.459   0.145
27425WAT     H282518   5.211   1.568   0.267
27426WAT      O82519   0.141   1.108   1.938
27426WAT     H182520   0.087   1.084   1.857
27426WAT     H282521   0.221   1.161   1.910
27427WAT      O82522   7.531   6.885   7.280
27427WAT     H182523   7.522   6.909   7.377
27427WAT     H282524   7.555   6.968   7.228
27428WAT      O82525   5.215   6.357   8.492
27428WAT     H182526   5.288   6.316   8.547
27428WAT     H282527   5.246   6.446   8.457
27429WAT      O82528   7.572   1.895   7.004
27429WAT     H182529   7.560   1.994   7.002
27429WAT     H282530   7.579   1.865   7.099
27430WAT      O82531   7.839   0.307   6.846
27430WAT     H182532   7.766   0.332   6.910
27430WAT     H282533   7.926   0.341   6.881
27431WAT      O82534   0.555   8.679   7.335
27431WAT     H182535   0.505   8.704   7.252
27431WAT     H282536   0.526   8.588   7.366
27432WAT      O82537   4.042   3.959   2.611
27432WAT     H182538   4.110   3.886   2.599
27432WAT     H282539   4.067   4.014   2.692
27433WAT      O82540   4.561   6.509   9.706
27433WAT     H182541   4.637   6.478   9.648
27433WAT     H282542   4.557   6.453   9.789
27434WAT      O82543   1.474   8.937   4.180
27434WAT     H182544   1.503   8.996   4.105
27434WAT     H282545   1.547   8.871   4.200
27435WAT      O82546   1.793   9.418   1.206
27435WAT     H182547   1.846   9.419   1.121
27435WAT     H282548   1.805   9.330   1.251
27436WAT      O82549   2.834   6.801   5.817
27436WAT     H182550   2.852   6.817   5.720
27436WAT     H282551   2.760   6.861   5.848
27437WAT      O82552   8.567   3.947   4.163
27437WAT     H182553   8.623   4.020   4.124
27437WAT     H282554   8.609   3.915   4.248
27438WAT      O82555   1.303   9.403   6.855
27438WAT     H182556   1.368   9.433   6.924
27438WAT     H282557   1.289   9.304   6.863
27439WAT      O82558   6.807   3.180   9.665
27439WAT     H182559   6.882   3.141   9.719
27439WAT     H282560   6.737   3.110   9.650
27440WAT      O82561   6.345   6.221   5.155
27440WAT     H182562   6.313   6.141   5.105
27440WAT     H282563   6.267   6.268   5.197
27441WAT      O82564   0.558   5.725   4.229
27441WAT     H182565   0.607   5.686   4.308
27441WAT     H282566   0.572   5.666   4.149
27442WAT      O82567   8.045   6.523   5.921
27442WAT     H182568   8.103   6.539   6.001
27442WAT     H282569   7.965   6.470   5.948
27443WAT      O82570   4.026   5.807   4.870
27443WAT     H182571   3.965   5.771   4.798
27443WAT     H282572   3.977   5.874   4.924
27444WAT      O82573   8.213   0.916   0.850
27444WAT     H182574   8.268   0.957   0.777
27444WAT     H282575   8.243   0.822   0.866
27445WAT      O82576   8.751   1.794   7.393
27445WAT     H182577   8.774   1.813   7.489
27445WAT     H282578   8.683   1.860   7.361
27446WAT      O82579   4.270   3.595   8.173
27446WAT     H182580   4.307   3.595   8.266
27446WAT     H282581   4.170   3.589   8.177
27447WAT      O82582   2.760   8.379   6.549
27447WAT     H182583   2.807   8.388   6.461
27447WAT     H282584   2.694   8.453   6.559
27448WAT      O82585   6.893   0.527   5.847
27448WAT     H182586   6.877   0.618   5.810
27448WAT     H282587   6.855   0.458   5.786
27449WAT      O82588   5.326   6.495   7.604
27449WAT     H182589   5.381   6.516   7.685
27449WAT     H282590   5.328   6.573   7.541
27450WAT      O82591   7.455   3.935   2.794
27450WAT     H182592   7.522   3.862   2.809
27450WAT     H282593   7.367   3.894   2.771
27451WAT      O82594   2.098   4.190   8.056
27451WAT     H182595   2.156   4.223   7.982
27451WAT     H282596   2.006   4.172   8.022
27452WAT      O82597   5.333   4.607   4.496
27452WAT     H182598   5.417   4.560   4.468
27452WAT     H282599   5.354   4.702   4.520
27453WAT      O82600   0.411   5.677   8.717
27453WAT     H182601   0.430   5.749   8.651
27453WAT     H282602   0.318   5.644   8.704
27454WAT      O82603   3.930   0.979   5.547
27454WAT     H182604   3.967   0.888   5.565
27454WAT     H282605   4.001   1.048   5.560
27455WAT      O82606   0.554   3.222   6.171
27455WAT     H182607   0.472   3.257   6.216
27455WAT     H282608   0.567   3.269   6.084
27456WAT      O82609   5.223   5.096   2.937
27456WAT     H182610   5.143   5.146   2.970
27456WAT     H282611   5.224   5.098   2.837
27457WAT      O82612   0.068   2.096   0.947
27457WAT     H182613  -0.013   2.139   0.986
27457WAT     H282614   0.039   2.019   0.889
27458WAT      O82615   0.857   2.676   8.858
27458WAT     H182616   0.943   2.722   8.879
27458WAT     H282617   0.835   2.612   8.932
27459WAT      O82618   5.841   4.644   8.423
27459WAT     H182619   5.751   4.654   8.381
27459WAT     H282620   5.848   4.702   8.503
27460WAT      O82621   7.707   4.570   5.828
27460WAT     H182622   7.736   4.642   5.765
27460WAT     H282623   7.706   4.606   5.921
27461WAT      O82624   2.172   9.726   2.635
27461WAT     H182625   2.128   9.790   2.573
27461WAT     H282626   2.216   9.776   2.710
27462WAT      O82627   7.030   8.463   6.761
27462WAT     H182628   7.097   8.410   6.812
27462WAT     H282629   7.072   8.497   6.676
27463WAT      O82630   9.408   9.700   1.050
27463WAT     H182631   9.490   9.649   1.025
27463WAT     H282632   9.334   9.636   1.069
27464WAT      O82633   7.726   3.745   0.751
27464WAT     H182634   7.748   3.799   0.669
27464WAT     H282635   7.644   3.692   0.736
27465WAT      O82636   4.108   8.637   7.057
27465WAT     H182637   4.022   8.646   7.107
27465WAT     H282638   4.089   8.606   6.964
27466WAT      O82639   8.476   2.134   6.011
27466WAT     H182640   8.517   2.049   5.979
27466WAT     H282641   8.494   2.207   5.945
27467WAT      O82642   9.821   8.676   4.479
27467WAT     H182643   9.805   8.775   4.480
27467WAT     H282644   9.915   8.658   4.449
27468WAT      O82645   5.449   7.749   9.612
27468WAT     H182646   5.542   7.721   9.638
27468WAT     H282647   5.404   7.674   9.563
27469WAT      O82648   6.691   6.513   4.046
27469WAT     H182649   6.725   6.574   3.975
27469WAT     H282650   6.769   6.477   4.098
27470WAT      O82651   3.079   2.627   2.200
27470WAT     H182652   3.136   2.676   2.135
27470WAT     H282653   3.097   2.661   2.293
27471WAT      O82654   3.460   6.931   2.649
27471WAT     H182655   3.521   6.965   2.721
27471WAT     H282656   3.381   6.992   2.641
27472WAT      O82657   2.634   4.834   1.211
27472WAT     H182658   2.573   4.818   1.133
27472WAT     H282659   2.601   4.911   1.264
27473WAT      O82660   2.813   7.257   6.894
27473WAT     H182661   2.823   7.329   6.826
27473WAT     H282662   2.754   7.185   6.858
27474WAT      O82663   4.619   6.641   8.085
27474WAT     H182664   4.706   6.602   8.056
27474WAT     H282665   4.544   6.582   8.055
27475WAT      O82666   7.795   2.279   6.934
27475WAT     H182667   7.802   2.268   7.033
27475WAT     H282668   7.843   2.204   6.888
27476WAT      O82669   3.713   0.913   8.891
27476WAT     H182670   3.763   0.891   8.975
27476WAT     H282671   3.757   0.867   8.813
27477WAT      O82672   6.395   9.369   1.451
27477WAT     H182673   6.420   9.276   1.426
27477WAT     H282674   6.382   9.424   1.369
27478WAT      O82675   3.682   5.267   9.234
27478WAT     H182676   3.764   5.237   9.185
27478WAT     H282677   3.668   5.364   9.217
27479WAT      O82678   6.375   1.973   2.895
27479WAT     H182679   6.464   1.957   2.852
27479WAT     H282680   6.343   2.065   2.873
27480WAT      O82681   8.612   1.135   4.789
27480WAT     H182682   8.544   1.072   4.752
27480WAT     H282683   8.585   1.229   4.769
27481WAT      O82684   9.869   8.802   6.172
27481WAT     H182685   9.834   8.852   6.251
27481WAT     H282686   9.799   8.741   6.137
27482WAT      O82687   4.926   1.921   9.362
27482WAT     H182688   4.964   1.971   9.284
27482WAT     H282689   4.968   1.831   9.368
27483WAT      O82690   4.635   6.310   5.446
27483WAT     H182691   4.562   6.260   5.492
27483WAT     H282692   4.704   6.339   5.513
27484WAT      O82693   8.238   4.821   2.124
27484WAT     H182694   8.193   4.736   2.097
27484WAT     H282695   8.332   4.802   2.152
27485WAT      O82696   8.977   9.617   9.015
27485WAT     H182697   8.944   9.710   9.028
27485WAT     H282698   8.973   9.567   9.102
27486WAT      O82699   5.425   0.515   0.034
27486WAT     H182700   5.444   0.423  -0.001
27486WAT     H282701   5.435   0.516   0.133
27487WAT      O82702   3.633   2.201   7.070
27487WAT     H182703   3.644   2.186   7.169
27487WAT     H282704   3.708   2.259   7.037
27488WAT      O82705   4.793   3.806   4.441
27488WAT     H182706   4.763   3.712   4.458
27488WAT     H282707   4.749   3.840   4.358
27489WAT      O82708   2.173   2.260   4.237
27489WAT     H182709   2.236   2.206   4.180
27489WAT     H282710   2.198   2.357   4.231
27490WAT      O82711   6.176   5.388   0.799
27490WAT     H182712   6.223   5.349   0.878
27490WAT     H282713   6.097   5.331   0.776
27491WAT      O82714   1.173   6.433   0.555
27491WAT     H182715   1.231   6.511   0.529
27491WAT     H282716   1.077   6.455   0.535
27492WAT      O82717   3.013   5.356   3.978
27492WAT     H182718   2.963   5.296   3.916
27492WAT     H282719   2.999   5.326   4.073
27493WAT      O82720   8.286   7.078   2.849
27493WAT     H182721   8.345   7.153   2.819
27493WAT     H282722   8.198   7.085   2.803
27494WAT      O82723   5.084   3.273   1.091
27494WAT     H182724   5.070   3.178   1.117
27494WAT     H282725   5.006   3.304   1.036
27495WAT      O82726   9.765   9.659   3.294
27495WAT     H182727   9.760   9.682   3.197
27495WAT     H282728   9.673   9.640   3.329
27496WAT      O82729   9.694   9.819   8.248
27496WAT     H182730   9.770   9.884   8.240
27496WAT     H282731   9.729   9.730   8.275
27497WAT      O82732   7.049   5.933   1.897
27497WAT     H182733   7.107   5.960   1.819
27497WAT     H282734   7.003   6.014   1.933
27498WAT      O82735   7.928   8.368   4.857
27498WAT     H182736   7.945   8.463   4.883
27498WAT     H282737   7.975   8.348   4.771
27499WAT      O82738   9.743   4.660   7.808
27499WAT     H182739   9.662   4.672   7.867
27499WAT     H282740   9.803   4.592   7.848
27500WAT      O82741   5.386   1.370   8.638
27500WAT     H182742   5.348   1.388   8.729
27500WAT     H282743   5.454   1.440   8.616
27501WAT      O82744   0.151   3.248   1.472
27501WAT     H182745   0.133   3.223   1.377
27501WAT     H282746   0.070   3.289   1.513
27502WAT      O82747   0.102   7.315   4.630
27502WAT     H182748   0.195   7.280   4.618
27502WAT     H282749   0.101   7.379   4.707
27503WAT      O82750   5.831   9.577   5.902
27503WAT     H182751   5.741   9.619   5.896
27503WAT     H282752   5.836   9.500   5.838
27504WAT      O82753   7.964   8.196   8.041
27504WAT     H182754   7.926   8.109   8.073
27504WAT     H282755   7.906   8.234   7.969
27505WAT      O82756   3.725   9.530   0.809
27505WAT     H182757   3.746   9.537   0.906
27505WAT     H282758   3.630   9.559   0.793
27506WAT      O82759   2.654   3.173   5.506
27506WAT     H182760   2.678   3.170   5.409
27506WAT     H282761   2.670   3.265   5.541
27507WAT      O82762   6.873   0.517   0.582
27507WAT     H182763   6.784   0.559   0.602
27507WAT     H282764   6.860   0.428   0.539
27508WAT      O82765   9.521   7.247   2.226
27508WAT     H182766   9.552   7.264   2.319
27508WAT     H282767   9.598   7.258   2.162
27509WAT      O82768   4.853   2.743   0.814
27509WAT     H182769   4.808   2.806   0.750
27509WAT     H282770   4.862   2.787   0.903
27510WAT      O82771   9.432   6.493   0.365
27510WAT     H182772   9.350   6.440   0.387
27510WAT     H282773   9.408   6.567   0.301
27511WAT      O82774   7.322   4.360   7.633
27511WAT     H182775   7.359   4.453   7.642
27511WAT     H282776   7.255   4.344   7.705
27512WAT      O82777   2.224   1.774   7.105
27512WAT     H182778   2.249   1.828   7.025
27512WAT     H282779   2.149   1.818   7.153
27513WAT      O82780   3.664   8.588   5.219
27513WAT     H182781   3.734   8.528   5.258
27513WAT     H282782   3.704   8.678   5.203
27514WAT      O82783   9.105   1.550   1.776
27514WAT     H182784   9.173   1.531   1.847
27514WAT     H282785   9.014   1.531   1.812
27515WAT      O82786   8.719   8.384   7.126
27515WAT     H182787   8.697   8.303   7.181
27515WAT     H282788   8.636   8.437   7.109
27516WAT      O82789   1.153   0.978   8.734
27516WAT     H182790   1.217   0.927   8.791
27516WAT     H282791   1.059   0.953   8.758
27517WAT      O82792   9.780   0.185   0.190
27517WAT     H182793   9.802   0.270   0.143
27517WAT     H282794   9.832   0.179   0.275
27518WAT      O82795   0.498   1.767   9.055
27518WAT     H182796   0.577   1.757   8.994
27518WAT     H282797   0.513   1.844   9.117
27519WAT      O82798   4.128   6.940   1.074
27519WAT     H182799   4.137   6.957   1.173
27519WAT     H282800   4.198   6.991   1.025
27520WAT      O82801   4.153   8.219   3.141
27520WAT     H182802   4.246   8.242   3.170
27520WAT     H282803   4.150   8.125   3.109
27521WAT      O82804   8.654   1.770   9.784
27521WAT     H182805   8.588   1.735   9.850
27521WAT     H282806   8.727   1.819   9.834
27522WAT      O82807   4.902   7.286   4.543
27522WAT     H182808   4.956   7.349   4.598
27522WAT     H282809   4.810   7.277   4.583
27523WAT      O82810   1.538   6.578   9.461
27523WAT     H182811   1.552   6.658   9.404
27523WAT     H282812   1.515   6.499   9.404
27524WAT      O82813   8.495   5.465   8.279
27524WAT     H182814   8.450   5.385   8.241
27524WAT     H282815   8.510   5.532   8.207
27525WAT      O82816   2.365   8.291   8.182
27525WAT     H182817   2.419   8.302   8.266
27525WAT     H282818   2.382   8.369   8.122
27526WAT      O82819   8.827   4.377   0.689
27526WAT     H182820   8.913   4.327   0.691
27526WAT     H282821   8.756   4.320   0.647
27527WAT      O82822   4.803   1.196   5.023
27527WAT     H182823   4.708   1.169   5.007
27527WAT     H282824   4.831   1.262   4.954
27528WAT      O82825   1.218   8.344   6.927
27528WAT     H182826   1.276   8.421   6.901
27528WAT     H282827   1.274   8.261   6.933
27529WAT      O82828   2.000   7.869   6.688
27529WAT     H182829   1.940   7.807   6.737
27529WAT     H282830   2.021   7.832   6.598
27530WAT      O82831   6.834   0.297   7.209
27530WAT     H182832   6.843   0.244   7.294
27530WAT     H282833   6.767   0.252   7.150
27531WAT      O82834   0.531   3.412   1.329
27531WAT     H182835   0.555   3.508   1.342
27531WAT     H282836   0.440   3.405   1.288
27532WAT      O82837   4.765   1.382   1.291
27532WAT     H182838   4.783   1.401   1.195
27532WAT     H282839   4.831   1.432   1.348
27533WAT      O82840   4.222   5.281   7.614
27533WAT     H182841   4.306   5.248   7.573
27533WAT     H282842   4.163   5.321   7.543
27534WAT      O82843   5.618   7.471   8.825
27534WAT     H182844   5.630   7.509   8.917
27534WAT     H282845   5.690   7.403   8.809
27535WAT      O82846   9.764   7.647   2.082
27535WAT     H182847   9.768   7.585   2.161
27535WAT     H282848   9.671   7.683   2.073
27536WAT      O82849   2.563   7.263   6.592
27536WAT     H182850   2.596   7.353   6.563
27536WAT     H282851   2.466   7.254   6.571
27537WAT      O82852   4.932   2.779   7.740
27537WAT     H182853   4.889   2.868   7.753
27537WAT     H282854   4.868   2.718   7.693
27538WAT      O82855   6.836   9.126   3.300
27538WAT     H182856   6.907   9.193   3.322
27538WAT     H282857   6.779   9.111   3.381
27539WAT      O82858   2.591   1.529   8.041
27539WAT     H182859   2.516   1.580   8.084
27539WAT     H282860   2.559   1.488   7.956
27540WAT      O82861   1.090   5.775   9.325
27540WAT     H182862   1.134   5.731   9.404
27540WAT     H282863   1.160   5.811   9.264
27541WAT      O82864   7.969   6.333   2.555
27541WAT     H182865   8.067   6.311   2.560
27541WAT     H282866   7.957   6.431   2.568
27542WAT      O82867   2.022   2.697   7.542
27542WAT     H182868   2.043   2.764   7.613
27542WAT     H282869   2.079   2.715   7.461
27543WAT      O82870   3.397   0.942   4.695
27543WAT     H182871   3.345   0.914   4.614
27543WAT     H282872   3.494   0.947   4.673
27544WAT      O82873   0.346   3.069   8.379
27544WAT     H182874   0.258   3.052   8.423
27544WAT     H282875   0.416   3.087   8.448
27545WAT      O82876   2.434   1.935   4.432
27545WAT     H182877   2.351   1.918   4.380
27545WAT     H282878   2.463   1.850   4.477
27546WAT      O82879   0.790   0.717   1.482
27546WAT     H182880   0.841   0.668   1.552
27546WAT     H282881   0.850   0.737   1.405
27547WAT      O82882   8.967   2.157   0.801
27547WAT     H182883   8.964   2.088   0.873
27547WAT     H282884   8.960   2.248   0.841
27548WAT      O82885   7.352   0.261   6.328
27548WAT     H182886   7.311   0.192   6.387
27548WAT     H282887   7.342   0.233   6.232
27549WAT      O82888   6.207   4.302   3.497
27549WAT     H182889   6.166   4.218   3.463
27549WAT     H282890   6.286   4.327   3.440
27550WAT      O82891   4.675   1.705   3.282
27550WAT     H182892   4.640   1.627   3.334
27550WAT     H282893   4.638   1.790   3.320
27551WAT      O82894   9.302   0.145   2.250
27551WAT     H182895   9.211   0.187   2.249
27551WAT     H282896   9.303   0.070   2.317
27552WAT      O82897   1.317   9.232   9.205
27552WAT     H182898   1.271   9.317   9.179
27552WAT     H282899   1.342   9.236   9.301
27553WAT      O82900   5.151   7.077   7.016
27553WAT     H182901   5.062   7.082   6.971
27553WAT     H282902   5.223   7.072   6.947
27554WAT      O82903   2.832   4.657   6.729
27554WAT     H182904   2.754   4.625   6.783
27554WAT     H282905   2.898   4.702   6.789
27555WAT      O82906   6.558   0.415   2.270
27555WAT     H182907   6.520   0.463   2.191
27555WAT     H282908   6.658   0.410   2.261
27556WAT      O82909   4.158   7.099   6.826
27556WAT     H182910   4.078   7.088   6.885
27556WAT     H282911   4.138   7.060   6.736
27557WAT      O82912   3.304   2.377   3.216
27557WAT     H182913   3.386   2.343   3.169
27557WAT     H282914   3.292   2.328   3.302
27558WAT      O82915   6.015   2.414   2.088
27558WAT     H182916   6.065   2.451   2.009
27558WAT     H282917   6.079   2.366   2.148
27559WAT      O82918   5.285   7.717   0.258
27559WAT     H182919   5.360   7.780   0.278
27559WAT     H282920   5.320   7.624   0.250
27560WAT      O82921   5.890   8.089   0.956
27560WAT     H182922   5.918   8.184   0.938
27560WAT     H282923   5.964   8.027   0.931
27561WAT      O82924   1.291   4.128   4.365
27561WAT     H182925   1.220   4.169   4.307
27561WAT     H282926   1.375   4.182   4.358
27562WAT      O82927   1.257   8.115   3.453
27562WAT     H182928   1.338   8.158   3.492
27562WAT     H282929   1.231   8.162   3.368
27563WAT      O82930   6.679   2.727   9.412
27563WAT     H182931   6.690   2.628   9.420
27563WAT     H282932   6.690   2.754   9.317
27564WAT      O82933   7.466   8.030   4.164
27564WAT     H182934   7.420   7.993   4.084
27564WAT     H282935   7.468   7.962   4.237
27565WAT      O82936   2.494   3.830   9.826
27565WAT     H182937   2.456   3.739   9.844
27565WAT     H282938   2.593   3.825   9.818
27566WAT      O82939   0.114   2.460   4.226
27566WAT     H182940   0.109   2.361   4.228
27566WAT     H282941   0.080   2.493   4.138
27567WAT      O82942   1.702   9.448   7.744
27567WAT     H182943   1.698   9.357   7.786
27567WAT     H282944   1.724   9.439   7.647
27568WAT      O82945   2.155   3.360   8.272
27568WAT     H182946   2.113   3.395   8.355
27568WAT     H282947   2.214   3.430   8.232
27569WAT      O82948   0.469   0.365   0.921
27569WAT     H182949   0.475   0.442   0.857
27569WAT     H282950   0.494   0.281   0.873
27570WAT      O82951   2.241   8.536   8.800
27570WAT     H182952   2.166   8.562   8.739
27570WAT     H282953   2.280   8.619   8.841
27571WAT      O82954   4.701   8.833   7.113
27571WAT     H182955   4.685   8.910   7.175
27571WAT     H282956   4.642   8.756   7.139
27572WAT      O82957   1.217   3.291   5.130
27572WAT     H182958   1.290   3.245   5.180
27572WAT     H282959   1.129   3.269   5.171
27573WAT      O82960   3.192   0.209   5.037
27573WAT     H182961   3.232   0.290   5.080
27573WAT     H282962   3.245   0.185   4.956
27574WAT      O82963   4.669   8.574   5.632
27574WAT     H182964   4.733   8.558   5.557
27574WAT     H282965   4.610   8.494   5.643
27575WAT      O82966   8.206   6.824   6.242
27575WAT     H182967   8.277   6.874   6.192
27575WAT     H282968   8.137   6.791   6.178
27576WAT      O82969   6.587   6.402   9.884
27576WAT     H182970   6.665   6.346   9.913
27576WAT     H282971   6.502   6.350   9.898
27577WAT      O82972   2.794   5.081   7.005
27577WAT     H182973   2.759   5.106   6.915
27577WAT     H282974   2.775   5.155   7.069
27578WAT      O82975   3.073   5.987   7.855
27578WAT     H182976   3.117   5.917   7.799
27578WAT     H282977   3.011   6.042   7.798
27579WAT      O82978   4.564   9.769   7.405
27579WAT     H182979   4.575   9.733   7.312
27579WAT     H282980   4.507   9.708   7.458
27580WAT      O82981   3.384   1.137   9.277
27580WAT     H182982   3.408   1.161   9.371
27580WAT     H282983   3.296   1.179   9.254
27581WAT      O82984   7.744   7.702   7.965
27581WAT     H182985   7.722   7.671   8.058
27581WAT     H282986   7.802   7.634   7.921
27582WAT      O82987   3.831   3.175   4.514
27582WAT     H182988   3.924   3.152   4.485
27582WAT     H282989   3.823   3.275   4.523
27583WAT      O82990   6.302   2.898   1.847
27583WAT     H182991   6.380   2.856   1.894
27583WAT     H282992   6.323   2.909   1.750
27584WAT      O82993   8.163   9.586   5.004
27584WAT     H182994   8.257   9.571   5.034
27584WAT     H282995   8.149   9.684   4.987
27585WAT      O82996   6.134   3.132   8.564
27585WAT     H182997   6.202   3.073   8.520
27585WAT     H282998   6.048   3.083   8.574
27586WAT      O82999   3.637   1.314   6.236
27586WAT     H183000   3.645   1.283   6.331
27586WAT     H283001   3.592   1.403   6.234
27587WAT      O83002   4.446   5.008   9.113
27587WAT     H183003   4.476   5.096   9.076
27587WAT     H283004   4.398   4.957   9.042
27588WAT      O83005   7.105   9.623   2.129
27588WAT     H183006   7.059   9.609   2.216
27588WAT     H283007   7.044   9.674   2.067
27589WAT      O83008   9.138   1.471   4.871
27589WAT     H183009   9.124   1.403   4.943
27589WAT     H283010   9.066   1.462   4.802
27590WAT      O83011   5.403   0.658   2.049
27590WAT     H183012   5.400   0.711   2.134
27590WAT     H283013   5.337   0.696   1.984
27591WAT      O83014   3.767   4.559   3.794
27591WAT     H183015   3.845   4.499   3.776
27591WAT     H283016   3.682   4.506   3.785
27592WAT      O83017   7.634   2.865   5.562
27592WAT     H183018   7.552   2.819   5.528
27592WAT     H283019   7.715   2.822   5.524
27593WAT      O83020   6.253   1.846   7.768
27593WAT     H183021   6.177   1.806   7.819
27593WAT     H283022   6.237   1.835   7.670
27594WAT      O83023   9.078   5.998   3.348
27594WAT     H183024   9.175   6.019   3.361
27594WAT     H283025   9.064   5.964   3.255
27595WAT      O83026   1.545   4.732   7.334
27595WAT     H183027   1.614   4.697   7.270
27595WAT     H283028   1.571   4.709   7.428
27596WAT      O83029   2.356   0.992   3.872
27596WAT     H183030   2.304   0.914   3.908
27596WAT     H283031   2.420   1.023   3.942
27597WAT      O83032   6.272   9.405   6.216
27597WAT     H183033   6.333   9.451   6.151
27597WAT     H283034   6.193   9.463   6.235
27598WAT      O83035   2.531   0.025   9.647
27598WAT     H183036   2.472   0.087   9.595
27598WAT     H283037   2.591  -0.025   9.584
27599WAT      O83038   6.889   0.768   1.958
27599WAT     H183039   6.919   0.753   2.052
27599WAT     H283040   6.794   0.801   1.958
27600WAT      O83041   1.965   8.638   2.614
27600WAT     H183042   1.931   8.598   2.699
27600WAT     H283043   2.024   8.717   2.635
27601WAT      O83044   1.224   5.121   9.344
27601WAT     H183045   1.149   5.171   9.301
27601WAT     H283046   1.302   5.116   9.281
27602WAT      O83047   8.269   1.900   1.386
27602WAT     H183048   8.326   1.982   1.393
27602WAT     H283049   8.185   1.913   1.438
27603WAT      O83050   5.422   9.009   9.683
27603WAT     H183051   5.416   8.993   9.782
27603WAT     H283052   5.502   9.065   9.663
27604WAT      O83053   6.779   9.838   2.723
27604WAT     H183054   6.737   9.771   2.662
27604WAT     H283055   6.715   9.912   2.742
27605WAT      O83056   8.355   0.025   5.323
27605WAT     H183057   8.304   0.107   5.299
27605WAT     H283058   8.450   0.035   5.293
27606WAT      O83059   2.277   7.515   4.580
27606WAT     H183060   2.196   7.470   4.617
27606WAT     H283061   2.250   7.596   4.528
27607WAT      O83062   3.327   9.796   1.157
27607WAT     H183063   3.405   9.766   1.102
27607WAT     H283064   3.274   9.863   1.105
27608WAT      O83065   5.909   8.880   7.764
27608WAT     H183066   5.929   8.810   7.696
27608WAT     H283067   5.991   8.933   7.783
27609WAT      O83068   9.151   1.264   9.656
27609WAT     H183069   9.182   1.248   9.750
27609WAT     H283070   9.209   1.214   9.593
27610WAT      O83071   7.010   0.312   4.708
27610WAT     H183072   6.994   0.411   4.717
27610WAT     H283073   7.008   0.270   4.799
27611WAT      O83074   2.336   2.948   0.963
27611WAT     H183075   2.333   2.855   0.998
27611WAT     H283076   2.415   2.996   1.000
27612WAT      O83077   7.995   6.944   2.663
27612WAT     H183078   8.061   6.870   2.650
27612WAT     H283079   7.930   6.919   2.735
27613WAT      O83080   6.543   3.069   7.444
27613WAT     H183081   6.621   3.121   7.478
27613WAT     H283082   6.466   3.131   7.428
27614WAT      O83083   1.915   9.089   7.714
27614WAT     H183084   1.944   9.148   7.639
27614WAT     H283085   1.927   9.137   7.801
27615WAT      O83086   7.954   0.437   4.692
27615WAT     H183087   7.971   0.480   4.780
27615WAT     H283088   7.867   0.470   4.655
27616WAT      O83089   2.470   8.205   9.243
27616WAT     H183090   2.473   8.221   9.144
27616WAT     H283091   2.375   8.205   9.274
27617WAT      O83092   2.534   0.610   5.504
27617WAT     H183093   2.606   0.554   5.463
27617WAT     H283094   2.555   0.707   5.491
27618WAT      O83095   8.558   1.906   5.054
27618WAT     H183096   8.555   1.979   4.985
27618WAT     H283097   8.642   1.853   5.043
27619WAT      O83098   9.129   4.179   3.525
27619WAT     H183099   9.156   4.203   3.432
27619WAT     H283100   9.146   4.256   3.586
27620WAT      O83101   6.119   4.001   7.592
27620WAT     H183102   6.102   3.991   7.690
27620WAT     H283103   6.043   4.051   7.550
27621WAT      O83104   5.264   2.510   1.375
27621WAT     H183105   5.228   2.440   1.437
27621WAT     H283106   5.360   2.490   1.355
27622WAT      O83107   1.675   2.233   3.231
27622WAT     H183108   1.644   2.153   3.180
27622WAT     H283109   1.629   2.235   3.320
27623WAT      O83110   5.299   8.212   2.613
27623WAT     H183111   5.343   8.182   2.697
27623WAT     H283112   5.282   8.310   2.617
27624WAT      O83113   6.283   3.472   8.384
27624WAT     H183114   6.231   3.546   8.341
27624WAT     H283115   6.280   3.391   8.326
27625WAT      O83116   8.472   5.184   8.951
27625WAT     H183117   8.521   5.269   8.972
27625WAT     H283118   8.476   5.123   9.030
27626WAT      O83119   2.208   4.264   6.004
27626WAT     H183120   2.254   4.338   5.955
27626WAT     H283121   2.111   4.263   5.980
27627WAT      O83122   7.200   1.205   8.651
27627WAT     H183123   7.260   1.159   8.585
27627WAT     H283124   7.250   1.220   8.736
27628WAT      O83125   0.474   6.078   3.387
27628WAT     H183126   0.429   5.999   3.344
27628WAT     H283127   0.565   6.089   3.348
27629WAT      O83128   2.458   4.827   1.994
27629WAT     H183129   2.466   4.744   1.939
27629WAT     H283130   2.373   4.824   2.047
27630WAT      O83131   0.769   8.368   1.097
27630WAT     H183132   0.731   8.328   1.013
27630WAT     H283133   0.705   8.353   1.172
27631WAT      O83134   8.488   3.318   1.544
27631WAT     H183135   8.503   3.280   1.635
27631WAT     H283136   8.555   3.390   1.526
27632WAT      O83137   7.519   8.663   2.262
27632WAT     H183138   7.425   8.695   2.245
27632WAT     H283139   7.583   8.730   2.225
27633WAT      O83140   5.977   8.462   7.939
27633WAT     H183141   5.904   8.478   8.006
27633WAT     H283142   5.976   8.536   7.871
27634WAT      O83143   4.350   7.683   9.438
27634WAT     H183144   4.400   7.600   9.413
27634WAT     H283145   4.413   7.750   9.477
27635WAT      O83146   0.312   1.958   7.401
27635WAT     H183147   0.318   1.973   7.499
27635WAT     H283148   0.217   1.967   7.372
27636WAT      O83149   0.256   6.564   8.624
27636WAT     H183150   0.281   6.467   8.616
27636WAT     H283151   0.259   6.590   8.721
27637WAT      O83152   7.762   6.289   2.961
27637WAT     H183153   7.683   6.232   2.981
27637WAT     H283154   7.768   6.363   3.027
27638WAT      O83155   9.357   1.640   1.302
27638WAT     H183156   9.341   1.554   1.253
27638WAT     H283157   9.308   1.714   1.257
27639WAT      O83158   2.850   4.643   0.750
27639WAT     H183159   2.853   4.732   0.705
27639WAT     H283160   2.923   4.637   0.818
27640WAT      O83161   9.719   3.481   2.907
27640WAT     H183162   9.802   3.426   2.904
27640WAT     H283163   9.715   3.532   2.993
27641WAT      O83164   4.674   8.863   1.020
27641WAT     H183165   4.725   8.932   0.969
27641WAT     H283166   4.599   8.828   0.962
27642WAT      O83167   1.603   2.618   4.092
27642WAT     H183168   1.627   2.522   4.078
27642WAT     H283169   1.519   2.624   4.146
27643WAT      O83170   6.479   3.697   1.213
27643WAT     H183171   6.433   3.762   1.274
27643WAT     H283172   6.573   3.729   1.195
27644WAT      O83173   9.458   1.050   1.161
27644WAT     H183174   9.470   0.973   1.099
27644WAT     H283175   9.539   1.108   1.158
27645WAT      O83176   4.901   0.439   8.859
27645WAT     H183177   4.938   0.416   8.769
27645WAT     H283178   4.961   0.402   8.930
27646WAT      O83179   7.227   3.541   9.615
27646WAT     H183180   7.180   3.578   9.534
27646WAT     H283181   7.256   3.447   9.597
27647WAT      O83182   4.737   5.090   5.615
27647WAT     H183183   4.713   5.080   5.518
27647WAT     H283184   4.829   5.128   5.622
27648WAT      O83185   1.241   5.569   9.485
27648WAT     H183186   1.317   5.569   9.420
27648WAT     H283187   1.220   5.474   9.512
27649WAT      O83188   2.869   4.347   1.640
27649WAT     H183189   2.958   4.303   1.657
27649WAT     H283190   2.812   4.338   1.722
27650WAT      O83191   9.191   1.440   0.925
27650WAT     H183192   9.222   1.525   0.882
27650WAT     H283193   9.145   1.460   1.011
27651WAT      O83194   9.339   5.552   1.480
27651WAT     H183195   9.340   5.459   1.445
27651WAT     H283196   9.393   5.611   1.418
27652WAT      O83197   1.384   6.093   1.996
27652WAT     H183198   1.417   6.179   1.956
27652WAT     H283199   1.333   6.042   1.927
27653WAT      O83200   5.127   9.434   8.550
27653WAT     H183201   5.180   9.497   8.493
27653WAT     H283202   5.188   9.363   8.586
27654WAT      O83203   1.860   6.287   7.350
27654WAT     H183204   1.942   6.344   7.361
27654WAT     H283205   1.817   6.308   7.262
27655WAT      O83206   6.762   9.405   7.306
27655WAT     H183207   6.813   9.353   7.237
27655WAT     H283208   6.709   9.477   7.261
27656WAT      O83209   2.731   7.989   4.336
27656WAT     H183210   2.702   7.983   4.241
27656WAT     H283211   2.716   8.083   4.370
27657WAT      O83212   0.302   5.002   8.308
27657WAT     H183213   0.286   5.030   8.213
27657WAT     H283214   0.349   4.914   8.310
27658WAT      O83215   4.882   4.208   3.835
27658WAT     H183216   4.953   4.141   3.860
27658WAT     H283217   4.845   4.185   3.744
27659WAT      O83218   3.843   9.441   5.209
27659WAT     H183219   3.915   9.499   5.171
27659WAT     H283220   3.779   9.415   5.137
27660WAT      O83221   7.879   2.742   5.473
27660WAT     H183222   7.874   2.683   5.393
27660WAT     H283223   7.949   2.708   5.536
27661WAT      O83224   7.374   2.318   3.885
27661WAT     H183225   7.391   2.401   3.938
27661WAT     H283226   7.461   2.282   3.851
27662WAT      O83227   8.495   2.184   0.967
27662WAT     H183228   8.424   2.148   0.907
27662WAT     H283229   8.520   2.114   1.035
27663WAT      O83230   7.746   6.404   4.165
27663WAT     H183231   7.678   6.356   4.110
27663WAT     H283232   7.801   6.337   4.215
27664WAT      O83233   6.042   1.878   1.283
27664WAT     H183234   6.027   1.920   1.373
27664WAT     H283235   6.138   1.888   1.257
27665WAT      O83236   2.923   9.420   9.450
27665WAT     H183237   2.947   9.379   9.538
27665WAT     H283238   2.980   9.501   9.435
27666WAT      O83239   3.800   4.570   1.149
27666WAT     H183240   3.702   4.580   1.131
27666WAT     H283241   3.820   4.597   1.243
27667WAT      O83242   5.278   1.386   2.975
27667WAT     H183243   5.227   1.405   3.059
27667WAT     H283244   5.372   1.418   2.984
27668WAT      O83245   3.120   6.013   2.791
27668WAT     H183246   3.182   5.981   2.719
27668WAT     H283247   3.125   6.112   2.798
27669WAT      O83248   3.672   5.374   0.198
27669WAT     H183249   3.591   5.433   0.190
27669WAT     H283250   3.754   5.429   0.184
27670WAT      O83251   5.997   2.859   0.882
27670WAT     H183252   6.016   2.783   0.944
27670WAT     H283253   5.899   2.861   0.861
27671WAT      O83254   6.432   3.044   1.512
27671WAT     H183255   6.414   2.948   1.530
27671WAT     H283256   6.348   3.090   1.483
27672WAT      O83257   8.418   7.960   7.994
27672WAT     H183258   8.472   8.008   7.925
27672WAT     H283259   8.455   7.868   8.006
27673WAT      O83260   3.299   5.235   4.065
27673WAT     H183261   3.295   5.188   3.976
27673WAT     H283262   3.292   5.334   4.050
27674WAT      O83263   5.308   1.196   6.364
27674WAT     H183264   5.338   1.162   6.275
27674WAT     H283265   5.340   1.291   6.375
27675WAT      O83266   3.730   5.692   7.645
27675WAT     H183267   3.669   5.632   7.697
27675WAT     H283268   3.676   5.750   7.585
27676WAT      O83269   5.749   7.720   3.641
27676WAT     H183270   5.766   7.623   3.659
27676WAT     H283271   5.705   7.730   3.552
27677WAT      O83272   5.972   1.348   1.082
27677WAT     H183273   5.957   1.266   1.028
27677WAT     H283274   5.931   1.427   1.036
27678WAT      O83275   7.799   0.629   9.018
27678WAT     H183276   7.762   0.678   9.097
27678WAT     H283277   7.728   0.620   8.948
27679WAT      O83278   6.950   8.767   0.716
27679WAT     H183279   6.883   8.762   0.790
27679WAT     H283280   6.909   8.814   0.637
27680WAT      O83281   3.714   5.442   5.232
27680WAT     H183282   3.770   5.361   5.255
27680WAT     H283283   3.617   5.417   5.236
27681WAT      O83284   5.427   9.493   2.857
27681WAT     H183285   5.383   9.567   2.806
27681WAT     H283286   5.499   9.451   2.801
27682WAT      O83287   9.474   6.419   7.794
27682WAT     H183288   9.508   6.386   7.882
27682WAT     H283289   9.528   6.378   7.720
27683WAT      O83290   7.258   8.692   2.113
27683WAT     H183291   7.196   8.658   2.184
27683WAT     H283292   7.252   8.633   2.032
27684WAT      O83293   2.036   7.052   0.838
27684WAT     H183294   2.080   7.078   0.752
27684WAT     H283295   2.102   7.004   0.896
27685WAT      O83296   3.727   7.236   2.320
27685WAT     H183297   3.664   7.282   2.382
27685WAT     H283298   3.821   7.258   2.346
27686WAT      O83299   8.854   7.865   7.555
27686WAT     H183300   8.950   7.889   7.567
27686WAT     H283301   8.797   7.942   7.585
27687WAT      O83302   6.726   9.150   2.666
27687WAT     H183303   6.770   9.234   2.635
27687WAT     H283304   6.787   9.100   2.727
27688WAT      O83305   6.384   2.264   6.571
27688WAT     H183306   6.424   2.205   6.501
27688WAT     H283307   6.450   2.277   6.645
27689WAT      O83308   6.626   5.766   4.044
27689WAT     H183309   6.598   5.815   4.127
27689WAT     H283310   6.724   5.747   4.049
27690WAT      O83311   6.800   7.213   5.930
27690WAT     H183312   6.794   7.152   6.009
27690WAT     H283313   6.796   7.308   5.961
27691WAT      O83314   7.326   3.267   6.906
27691WAT     H183315   7.376   3.191   6.946
27691WAT     H283316   7.240   3.280   6.957
27692WAT      O83317   4.758   3.805   6.574
27692WAT     H183318   4.696   3.727   6.572
27692WAT     H283319   4.709   3.888   6.549
27693WAT      O83320   7.655   8.342   4.406
27693WAT     H183321   7.566   8.338   4.360
27693WAT     H283322   7.668   8.433   4.446
27694WAT      O83323   7.983   1.755   8.583
27694WAT     H183324   7.893   1.740   8.623
27694WAT     H283325   7.973   1.781   8.487
27695WAT      O83326   0.297   7.304   8.406
27695WAT     H183327   0.277   7.399   8.382
27695WAT     H283328   0.218   7.247   8.388
27696WAT      O83329   8.022   7.827   8.235
27696WAT     H183330   8.113   7.866   8.223
27696WAT     H283331   7.954   7.888   8.194
27697WAT      O83332   5.662   0.117   5.495
27697WAT     H183333   5.648   0.019   5.511
27697WAT     H283334   5.689   0.161   5.581
27698WAT      O83335   8.343   3.678   7.431
27698WAT     H183336   8.268   3.709   7.374
27698WAT     H283337   8.360   3.744   7.503
27699WAT      O83338   1.365   3.824   0.198
27699WAT     H183339   1.449   3.788   0.239
27699WAT     H283340   1.388   3.879   0.118
27700WAT      O83341   6.447   2.828   5.063
27700WAT     H183342   6.536   2.810   5.106
27700WAT     H283343   6.381   2.760   5.093
27701WAT      O83344   3.330   5.112   5.203
27701WAT     H183345   3.420   5.074   5.221
27701WAT     H283346   3.312   5.112   5.104
27702WAT      O83347   9.826   0.361   3.908
27702WAT     H183348   9.730   0.342   3.886
27702WAT     H283349   9.877   0.276   3.914
27703WAT      O83350   0.773   3.455   6.477
27703WAT     H183351   0.701   3.525   6.472
27703WAT     H283352   0.748   3.378   6.419
27704WAT      O83353   5.152   5.052   2.250
27704WAT     H183354   5.200   5.136   2.224
27704WAT     H283355   5.060   5.074   2.281
27705WAT      O83356   8.793   1.244   1.676
27705WAT     H183357   8.816   1.191   1.595
27705WAT     H283358   8.855   1.219   1.751
27706WAT      O83359   0.039   3.220   1.870
27706WAT     H183360   0.106   3.264   1.811
27706WAT     H283361  -0.017   3.157   1.816
27707WAT      O83362   9.014   4.322   6.529
27707WAT     H183363   9.083   4.374   6.480
27707WAT     H283364   8.943   4.383   6.562
27708WAT      O83365   7.404   0.525   2.494
27708WAT     H183366   7.393   0.592   2.568
27708WAT     H283367   7.466   0.453   2.523
27709WAT      O83368   7.793   8.049   9.622
27709WAT     H183369   7.866   7.988   9.653
27709WAT     H283370   7.811   8.142   9.653
27710WAT      O83371   3.068   9.139   8.368
27710WAT     H183372   3.056   9.043   8.343
27710WAT     H283373   2.981   9.188   8.358
27711WAT      O83374   0.385   2.453   5.349
27711WAT     H183375   0.292   2.487   5.337
27711WAT     H283376   0.426   2.494   5.431
27712WAT      O83377   4.829   0.316   5.001
27712WAT     H183378   4.742   0.337   5.047
27712WAT     H283379   4.898   0.292   5.069
27713WAT      O83380   4.870   1.357   9.748
27713WAT     H183381   4.813   1.367   9.667
27713WAT     H283382   4.924   1.273   9.741
27714WAT      O83383   7.909   2.225   9.271
27714WAT     H183384   7.941   2.130   9.273
27714WAT     H283385   7.969   2.279   9.212
27715WAT      O83386   3.306   6.252   8.792
27715WAT     H183387   3.384   6.306   8.758
27715WAT     H283388   3.339   6.170   8.837
27716WAT      O83389   1.474   5.593   8.327
27716WAT     H183390   1.484   5.682   8.372
27716WAT     H283391   1.381   5.585   8.291
27717WAT      O83392   3.529   2.297   3.866
27717WAT     H183393   3.524   2.204   3.829
27717WAT     H283394   3.605   2.346   3.823
27718WAT      O83395   3.510   8.951   4.384
27718WAT     H183396   3.536   9.032   4.331
27718WAT     H283397   3.489   8.875   4.321
27719WAT      O83398   4.734   1.052   9.001
27719WAT     H183399   4.783   1.112   8.938
27719WAT     H283400   4.799   0.992   9.047
27720WAT      O83401   6.533   5.630   8.574
27720WAT     H183402   6.591   5.712   8.574
27720WAT     H283403   6.464   5.638   8.645
27721WAT      O83404   2.792   8.118   2.183
27721WAT     H183405   2.738   8.125   2.266
27721WAT     H283406   2.827   8.208   2.158
27722WAT      O83407   4.357   4.402   1.409
27722WAT     H183408   4.317   4.326   1.460
27722WAT     H283409   4.392   4.370   1.322
27723WAT      O83410   5.834   8.612   1.862
27723WAT     H183411   5.770   8.603   1.938
27723WAT     H283412   5.881   8.700   1.868
27724WAT      O83413   1.659   6.430   0.152
27724WAT     H183414   1.678   6.333   0.167
27724WAT     H283415   1.564   6.441   0.124
27725WAT      O83416   5.007   9.245   0.195
27725WAT     H183417   4.944   9.193   0.138
27725WAT     H283418   5.032   9.330   0.148
27726WAT      O83419   1.448   8.129   2.908
27726WAT     H183420   1.460   8.055   2.975
27726WAT     H283421   1.521   8.195   2.917
27727WAT      O83422   4.015   5.716   5.221
27727WAT     H183423   3.961   5.665   5.155
27727WAT     H283424   3.969   5.803   5.241
27728WAT      O83425   9.373   6.729   9.771
27728WAT     H183426   9.447   6.770   9.716
27728WAT     H283427   9.369   6.631   9.754
27729WAT      O83428   3.331   1.469   2.846
27729WAT     H183429   3.386   1.394   2.809
27729WAT     H283430   3.392   1.541   2.881
27730WAT      O83431   4.497   7.732   6.364
27730WAT     H183432   4.504   7.827   6.332
27730WAT     H283433   4.485   7.672   6.285
27731WAT      O83434   9.099   5.129   9.567
27731WAT     H183435   9.006   5.091   9.560
27731WAT     H283436   9.109   5.176   9.655
27732WAT      O83437   3.760   2.009   6.513
27732WAT     H183438   3.809   2.091   6.542
27732WAT     H283439   3.822   1.949   6.462
27733WAT      O83440   5.604   6.611   2.772
27733WAT     H183441   5.700   6.630   2.791
27733WAT     H283442   5.551   6.618   2.857
27734WAT      O83443   3.739   8.262   3.181
27734WAT     H183444   3.831   8.289   3.211
27734WAT     H283445   3.679   8.341   3.184
27735WAT      O83446   8.098   4.972   8.216
27735WAT     H183447   8.111   5.063   8.257
27735WAT     H283448   8.035   4.979   8.139
27736WAT      O83449   5.184   1.415   7.062
27736WAT     H183450   5.205   1.330   7.013
27736WAT     H283451   5.100   1.403   7.115
27737WAT      O83452   5.916   8.804   9.761
27737WAT     H183453   5.906   8.891   9.810
27737WAT     H283454   5.979   8.745   9.811
27738WAT      O83455   7.684   6.933   0.102
27738WAT     H183456   7.756   6.966   0.163
27738WAT     H283457   7.632   7.010   0.067
27739WAT      O83458   5.629   2.128   0.219
27739WAT     H183459   5.620   2.050   0.157
27739WAT     H283460   5.600   2.101   0.311
27740WAT      O83461   2.876   1.977   0.893
27740WAT     H183462   2.935   1.938   0.964
27740WAT     H283463   2.877   1.918   0.812
27741WAT      O83464   2.156   7.870   9.130
27741WAT     H183465   2.208   7.825   9.203
27741WAT     H283466   2.207   7.861   9.044
27742WAT      O83467   4.279   7.727   0.261
27742WAT     H183468   4.235   7.672   0.332
27742WAT     H283469   4.212   7.751   0.191
27743WAT      O83470   1.920   2.002   3.777
27743WAT     H183471   1.882   1.959   3.859
27743WAT     H283472   1.847   2.017   3.711
27744WAT      O83473   3.283   4.892   6.598
27744WAT     H183474   3.265   4.827   6.524
27744WAT     H283475   3.236   4.979   6.579
27745WAT      O83476   6.084   7.057   5.308
27745WAT     H183477   6.030   7.138   5.331
27745WAT     H283478   6.111   7.010   5.392
27746WAT      O83479   0.056   4.101   7.237
27746WAT     H183480   0.032   4.183   7.185
27746WAT     H283481   0.035   4.019   7.183
27747WAT      O83482   2.700   8.661   8.750
27747WAT     H183483   2.617   8.716   8.742
27747WAT     H283484   2.678   8.565   8.731
27748WAT      O83485   1.675   4.915   1.675
27748WAT     H183486   1.616   4.834   1.677
27748WAT     H283487   1.713   4.926   1.583
27749WAT      O83488   8.106   0.876   8.693
27749WAT     H183489   8.015   0.912   8.676
27749WAT     H283490   8.100   0.779   8.719
27750WAT      O83491   0.132   5.449   1.782
27750WAT     H183492   0.094   5.484   1.867
27750WAT     H283493   0.231   5.437   1.792
27751WAT      O83494   7.461   7.932   3.592
27751WAT     H183495   7.509   7.985   3.662
27751WAT     H283496   7.399   7.992   3.541
27752WAT      O83497   6.903   5.963   7.580
27752WAT     H183498   6.960   6.045   7.592
27752WAT     H283499   6.839   5.956   7.656
27753WAT      O83500   6.929   2.366   7.782
27753WAT     H183501   6.835   2.378   7.815
27753WAT     H283502   6.957   2.271   7.796
27754WAT      O83503   1.394   8.194   4.817
27754WAT     H183504   1.428   8.254   4.890
27754WAT     H283505   1.352   8.249   4.745
27755WAT      O83506   1.579   4.354   4.010
27755WAT     H183507   1.675   4.326   4.015
27755WAT     H283508   1.528   4.314   4.086
27756WAT      O83509   7.829   8.585   6.566
27756WAT     H183510   7.756   8.536   6.519
27756WAT     H283511   7.884   8.636   6.500
27757WAT      O83512   2.992   9.542   8.820
27757WAT     H183513   3.047   9.626   8.825
27757WAT     H283514   2.928   9.549   8.744
27758WAT      O83515   4.338   0.462   2.545
27758WAT     H183516   4.334   0.362   2.551
27758WAT     H283517   4.262   0.495   2.490
27759WAT      O83518   9.407   7.755   7.216
27759WAT     H183519   9.435   7.849   7.236
27759WAT     H283520   9.406   7.742   7.117
27760WAT      O83521   2.990   0.654   8.336
27760WAT     H183522   2.959   0.667   8.242
27760WAT     H283523   3.054   0.577   8.340
27761WAT      O83524   7.414   8.507   4.830
27761WAT     H183525   7.513   8.501   4.827
27761WAT     H283526   7.380   8.554   4.749
27762WAT      O83527   1.238   2.898   2.030
27762WAT     H183528   1.187   2.902   1.944
27762WAT     H283529   1.276   2.806   2.043
27763WAT      O83530   7.067   1.198   5.587
27763WAT     H183531   6.981   1.221   5.542
27763WAT     H283532   7.134   1.269   5.568
27764WAT      O83533   0.143   6.116   2.210
27764WAT     H183534   0.241   6.102   2.198
27764WAT     H283535   0.118   6.099   2.306
27765WAT      O83536   1.118   9.423   1.824
27765WAT     H183537   1.202   9.440   1.875
27765WAT     H283538   1.114   9.327   1.799
27766WAT      O83539   1.175   8.783   3.271
27766WAT     H183540   1.208   8.712   3.208
27766WAT     H283541   1.238   8.860   3.270
27767WAT      O83542   0.882   8.718   1.532
27767WAT     H183543   0.968   8.691   1.575
27767WAT     H283544   0.813   8.649   1.550
27768WAT      O83545   9.664   2.872   6.306
27768WAT     H183546   9.648   2.971   6.297
27768WAT     H283547   9.659   2.847   6.403
27769WAT      O83548   9.681   1.439   4.387
27769WAT     H183549   9.701   1.526   4.430
27769WAT     H283550   9.658   1.453   4.291
27770WAT      O83551   7.159   1.860   7.975
27770WAT     H183552   7.217   1.779   7.984
27770WAT     H283553   7.188   1.913   7.895
27771WAT      O83554   5.601   4.914   9.762
27771WAT     H183555   5.630   4.971   9.685
27771WAT     H283556   5.679   4.897   9.822
27772WAT      O83557   2.940   3.644   2.973
27772WAT     H183558   2.909   3.735   2.999
27772WAT     H283559   2.944   3.637   2.874
27773WAT      O83560   8.516   0.993   9.380
27773WAT     H183561   8.545   1.033   9.293
27773WAT     H283562   8.591   0.999   9.446
27774WAT      O83563   7.785   8.262   5.871
27774WAT     H183564   7.864   8.207   5.900
27774WAT     H283565   7.796   8.356   5.903
27775WAT      O83566   3.400   7.344   2.689
27775WAT     H183567   3.431   7.382   2.602
27775WAT     H283568   3.357   7.416   2.743
27776WAT      O83569   0.043   1.359   9.446
27776WAT     H183570   0.069   1.390   9.538
27776WAT     H283571  -0.002   1.434   9.398
27777WAT      O83572   1.887   2.389   1.183
27777WAT     H183573   1.833   2.313   1.218
27777WAT     H283574   1.900   2.379   1.085
27778WAT      O83575   1.674   1.375   6.975
27778WAT     H183576   1.628   1.291   6.946
27778WAT     H283577   1.769   1.373   6.945
27779WAT      O83578   3.904   2.093   3.113
27779WAT     H183579   3.858   2.169   3.160
27779WAT     H283580   4.000   2.089   3.141
27780WAT      O83581   1.989   0.950   6.428
27780WAT     H183582   1.960   0.855   6.444
27780WAT     H283583   1.931   1.012   6.482
27781WAT      O83584   5.567   8.748   7.656
27781WAT     H183585   5.532   8.815   7.721
27781WAT     H283586   5.561   8.656   7.696
27782WAT      O83587   8.931   1.922   7.588
27782WAT     H183588   8.955   1.848   7.652
27782WAT     H283589   8.883   1.994   7.637
27783WAT      O83590   6.562   9.204   6.552
27783WAT     H183591   6.495   9.145   6.595
27783WAT     H283592   6.527   9.236   6.464
27784WAT      O83593   3.942   7.893   9.357
27784WAT     H183594   3.853   7.850   9.370
27784WAT     H283595   4.008   7.825   9.324
27785WAT      O83596   1.606   2.250   4.901
27785WAT     H183597   1.577   2.334   4.947
27785WAT     H283598   1.600   2.263   4.802
27786WAT      O83599   5.382   7.056   5.188
27786WAT     H183600   5.426   7.125   5.245
27786WAT     H283601   5.396   7.078   5.091
27787WAT      O83602   5.530   6.640   8.072
27787WAT     H183603   5.516   6.610   7.977
27787WAT     H283604   5.560   6.562   8.127
27788WAT      O83605   2.117   7.841   7.329
27788WAT     H183606   2.214   7.865   7.325
27788WAT     H283607   2.078   7.845   7.237
27789WAT      O83608   4.054   7.386   7.049
27789WAT     H183609   4.098   7.387   6.959
27789WAT     H283610   4.044   7.480   7.082
27790WAT      O83611   7.314   7.811   5.980
27790WAT     H183612   7.368   7.774   6.055
27790WAT     H283613   7.230   7.851   6.015
27791WAT      O83614   7.970   2.210   2.616
27791WAT     H183615   7.898   2.220   2.548
27791WAT     H283616   7.949   2.266   2.696
27792WAT      O83617   4.751   1.596   5.573
27792WAT     H183618   4.660   1.571   5.539
27792WAT     H283619   4.744   1.634   5.665
27793WAT      O83620   6.339   0.124   8.386
27793WAT     H183621   6.267   0.073   8.433
27793WAT     H283622   6.418   0.065   8.372
27794WAT      O83623   3.590   0.847   3.273
27794WAT     H183624   3.522   0.842   3.346
27794WAT     H283625   3.545   0.869   3.187
27795WAT      O83626   0.361   9.766   7.703
27795WAT     H183627   0.316   9.680   7.677
27795WAT     H283628   0.293   9.829   7.740
27796WAT      O83629   2.893   2.058   8.945
27796WAT     H183630   2.947   2.143   8.947
27796WAT     H283631   2.939   1.992   8.885
27797WAT      O83632   3.307   5.604   9.095
27797WAT     H183633   3.216   5.579   9.062
27797WAT     H283634   3.375   5.548   9.048
27798WAT      O83635   5.147   4.758   4.072
27798WAT     H183636   5.182   4.666   4.052
27798WAT     H283637   5.215   4.826   4.044
27799WAT      O83638   5.359   3.411   0.232
27799WAT     H183639   5.319   3.491   0.188
27799WAT     H283640   5.338   3.329   0.178
27800WAT      O83641   1.111   9.317   4.462
27800WAT     H183642   1.077   9.352   4.550
27800WAT     H283643   1.086   9.381   4.389
27801WAT      O83644   8.393   3.878   5.925
27801WAT     H183645   8.437   3.824   5.998
27801WAT     H283646   8.457   3.887   5.848
27802WAT      O83647   9.295   8.219   2.025
27802WAT     H183648   9.334   8.258   2.108
27802WAT     H283649   9.265   8.292   1.964
27803WAT      O83650   1.899   9.646   4.734
27803WAT     H183651   1.871   9.590   4.656
27803WAT     H283652   1.824   9.707   4.759
27804WAT      O83653   5.152   7.738   2.835
27804WAT     H183654   5.105   7.823   2.858
27804WAT     H283655   5.242   7.760   2.797
27805WAT      O83656   0.402   1.197   2.103
27805WAT     H183657   0.357   1.213   2.014
27805WAT     H283658   0.407   1.099   2.120
27806WAT      O83659   7.353   6.375   7.351
27806WAT     H183660   7.442   6.337   7.328
27806WAT     H283661   7.284   6.302   7.349
27807WAT      O83662   2.187   7.297   8.832
27807WAT     H183663   2.128   7.227   8.792
27807WAT     H283664   2.209   7.365   8.762
27808WAT      O83665   3.693   6.129   3.501
27808WAT     H183666   3.716   6.209   3.556
27808WAT     H283667   3.613   6.083   3.540
27809WAT      O83668   6.425   3.797   0.750
27809WAT     H183669   6.336   3.768   0.785
27809WAT     H283670   6.472   3.720   0.708
27810WAT      O83671   1.376   1.256   2.825
27810WAT     H183672   1.425   1.323   2.881
27810WAT     H283673   1.299   1.301   2.780
27811WAT      O83674   1.409   8.364   9.880
27811WAT     H183675   1.483   8.430   9.880
27811WAT     H283676   1.364   8.364   9.791
27812WAT      O83677   1.564   3.901   7.231
27812WAT     H183678   1.505   3.837   7.281
27812WAT     H283679   1.630   3.942   7.293
27813WAT      O83680   4.852   3.929   8.153
27813WAT     H183681   4.861   3.869   8.232
27813WAT     H283682   4.835   3.874   8.071
27814WAT      O83683   5.760   5.292   2.886
27814WAT     H183684   5.702   5.359   2.839
27814WAT     H283685   5.708   5.247   2.958
27815WAT      O83686   1.097   7.342   9.582
27815WAT     H183687   1.194   7.345   9.557
27815WAT     H283688   1.042   7.378   9.507
27816WAT      O83689   2.969   7.900   2.536
27816WAT     H183690   2.919   7.984   2.559
27816WAT     H283691   3.000   7.905   2.441
27817WAT      O83692   9.702   0.110   3.657
27817WAT     H183693   9.638   0.062   3.597
27817WAT     H283694   9.772   0.155   3.602
27818WAT      O83695   9.880   7.594   3.748
27818WAT     H183696   9.805   7.590   3.814
27818WAT     H283697   9.856   7.542   3.666
27819WAT      O83698   4.688   4.152   2.921
27819WAT     H183699   4.598   4.135   2.961
27819WAT     H283700   4.759   4.136   2.989
27820WAT      O83701   3.210   2.912   6.532
27820WAT     H183702   3.184   2.870   6.444
27820WAT     H283703   3.244   3.005   6.515
27821WAT      O83704   5.737   7.923   5.341
27821WAT     H183705   5.686   8.002   5.375
27821WAT     H283706   5.677   7.864   5.287
27822WAT      O83707   1.317   6.807   8.082
27822WAT     H183708   1.348   6.812   7.988
27822WAT     H283709   1.395   6.789   8.142
27823WAT      O83710   3.059   8.539   1.570
27823WAT     H183711   3.040   8.453   1.619
27823WAT     H283712   3.131   8.524   1.503
27824WAT      O83713   0.580   3.329   0.743
27824WAT     H183714   0.607   3.359   0.652
27824WAT     H283715   0.638   3.372   0.811
27825WAT      O83716   1.131   0.589   4.589
27825WAT     H183717   1.224   0.562   4.615
27825WAT     H283718   1.067   0.560   4.660
27826WAT      O83719   2.703   1.862   3.363
27826WAT     H183720   2.653   1.891   3.281
27826WAT     H283721   2.732   1.767   3.352
27827WAT      O83722   7.226   1.516   9.337
27827WAT     H183723   7.198   1.486   9.246
27827WAT     H283724   7.290   1.450   9.376
27828WAT      O83725   3.380   4.163   3.590
27828WAT     H183726   3.409   4.080   3.542
27828WAT     H283727   3.398   4.153   3.688
27829WAT      O83728   7.854   9.505   1.281
27829WAT     H183729   7.771   9.457   1.310
27829WAT     H283730   7.906   9.532   1.362
27830WAT      O83731   4.501   7.674   5.033
27830WAT     H183732   4.458   7.725   4.958
27830WAT     H283733   4.600   7.691   5.031
27831WAT      O83734   5.997   3.282   8.067
27831WAT     H183735   5.997   3.370   8.018
27831WAT     H283736   6.086   3.270   8.111
27832WAT      O83737   3.109   2.791   7.719
27832WAT     H183738   3.146   2.722   7.781
27832WAT     H283739   3.163   2.875   7.726
27833WAT      O83740   0.054   0.545   8.113
27833WAT     H183741   0.145   0.529   8.151
27833WAT     H283742   0.054   0.518   8.016
27834WAT      O83743   5.225   7.410   3.498
27834WAT     H183744   5.315   7.454   3.494
27834WAT     H283745   5.203   7.388   3.593
27835WAT      O83746   5.105   9.479   0.359
27835WAT     H183747   5.008   9.461   0.339
27835WAT     H283748   5.157   9.479   0.274
27836WAT      O83749   3.289   2.543   5.193
27836WAT     H183750   3.191   2.541   5.176
27836WAT     H283751   3.308   2.595   5.277
27837WAT      O83752   1.854   0.358   0.036
27837WAT     H183753   1.792   0.299  -0.016
27837WAT     H283754   1.883   0.312   0.119
27838WAT      O83755   6.544   0.929   4.295
27838WAT     H183756   6.582   0.853   4.348
27838WAT     H283757   6.452   0.950   4.328
27839WAT      O83758   2.329   5.002   9.259
27839WAT     H183759   2.315   5.101   9.254
27839WAT     H283760   2.262   4.962   9.321
27840WAT      O83761   7.626   0.374   3.999
27840WAT     H183762   7.645   0.455   4.054
27840WAT     H283763   7.541   0.389   3.947
27841WAT      O83764   4.071   7.621   9.378
27841WAT     H183765   4.082   7.601   9.280
27841WAT     H283766   4.160   7.639   9.418
27842WAT      O83767   5.949   6.878   5.669
27842WAT     H183768   5.868   6.937   5.664
27842WAT     H283769   5.926   6.787   5.635
27843WAT      O83770   4.107   3.414   7.063
27843WAT     H183771   4.180   3.464   7.109
27843WAT     H283772   4.018   3.454   7.089
27844WAT      O83773   7.849   5.053   5.185
27844WAT     H183774   7.902   5.096   5.259
27844WAT     H283775   7.876   4.958   5.175
27845WAT      O83776   3.390   0.555   6.075
27845WAT     H183777   3.366   0.495   6.152
27845WAT     H283778   3.447   0.505   6.010
27846WAT      O83779   1.455   7.230   3.968
27846WAT     H183780   1.476   7.179   3.885
27846WAT     H283781   1.482   7.176   4.048
27847WAT      O83782   3.851   4.569   5.036
27847WAT     H183783   3.932   4.552   4.979
27847WAT     H283784   3.853   4.508   5.115
27848WAT      O83785   4.870   9.552   4.183
27848WAT     H183786   4.945   9.619   4.186
27848WAT     H283787   4.785   9.599   4.161
27849WAT      O83788   0.535   6.707   0.602
27849WAT     H183789   0.483   6.643   0.545
27849WAT     H283790   0.562   6.786   0.546
27850WAT      O83791   1.934   8.958   5.540
27850WAT     H183792   1.850   8.940   5.488
27850WAT     H283793   2.008   8.901   5.504
27851WAT      O83794   6.491   7.846   9.383
27851WAT     H183795   6.438   7.878   9.304
27851WAT     H283796   6.431   7.842   9.463
27852WAT      O83797   0.825   2.852   3.586
27852WAT     H183798   0.801   2.918   3.514
27852WAT     H283799   0.743   2.800   3.612
27853WAT      O83800   5.463   7.912   8.871
27853WAT     H183801   5.366   7.911   8.894
27853WAT     H283802   5.498   8.005   8.879
27854WAT      O83803   3.319   7.037   1.762
27854WAT     H183804   3.386   7.034   1.689
27854WAT     H283805   3.354   6.987   1.842
27855WAT      O83806   7.634   4.825   7.657
27855WAT     H183807   7.732   4.845   7.661
27855WAT     H283808   7.601   4.844   7.564
27856WAT      O83809   3.760   2.276   1.184
27856WAT     H183810   3.693   2.343   1.153
27856WAT     H283811   3.732   2.241   1.274
27857WAT      O83812   6.303   6.561   4.818
27857WAT     H183813   6.227   6.497   4.826
27857WAT     H283814   6.271   6.644   4.771
27858WAT      O83815   3.307   4.003   4.525
27858WAT     H183816   3.402   4.025   4.500
27858WAT     H283817   3.248   4.015   4.445
27859WAT      O83818   1.705   7.716   2.816
27859WAT     H183819   1.734   7.621   2.823
27859WAT     H283820   1.605   7.721   2.825
27860WAT      O83821   1.033   6.786   5.439
27860WAT     H183822   1.058   6.691   5.457
27860WAT     H283823   1.079   6.818   5.357
27861WAT      O83824   4.774   0.656   1.639
27861WAT     H183825   4.808   0.742   1.677
27861WAT     H283826   4.782   0.584   1.708
27862WAT      O83827   8.983   0.092   2.775
27862WAT     H183828   9.079   0.095   2.746
27862WAT     H283829   8.924   0.086   2.694
27863WAT      O83830   7.242   0.886   5.889
27863WAT     H183831   7.255   0.796   5.931
27863WAT     H283832   7.285   0.956   5.945
27864WAT      O83833   2.468   7.210   1.705
27864WAT     H183834   2.393   7.165   1.754
27864WAT     H283835   2.432   7.252   1.622
27865WAT      O83836   3.395   7.963   8.036
27865WAT     H183837   3.389   7.977   8.135
27865WAT     H283838   3.406   8.052   7.991
27866WAT      O83839   6.794   8.943   2.484
27866WAT     H183840   6.779   8.848   2.508
27866WAT     H283841   6.722   9.000   2.524
27867WAT      O83842   2.168   7.184   2.243
27867WAT     H183843   2.175   7.180   2.143
27867WAT     H283844   2.224   7.110   2.282
27868WAT      O83845   4.457   3.228   8.172
27868WAT     H183846   4.379   3.178   8.209
27868WAT     H283847   4.425   3.288   8.098
27869WAT      O83848   8.956   8.226   1.063
27869WAT     H183849   8.995   8.318   1.061
27869WAT     H283850   9.030   8.159   1.058
27870WAT      O83851   9.331   4.752   0.640
27870WAT     H183852   9.332   4.685   0.714
27870WAT     H283853   9.236   4.777   0.619
27871WAT      O83854   7.054   0.343   6.194
27871WAT     H183855   7.083   0.385   6.279
27871WAT     H283856   6.973   0.390   6.158
27872WAT      O83857   2.489   4.601   4.360
27872WAT     H183858   2.420   4.637   4.423
27872WAT     H283859   2.579   4.602   4.404
27873WAT      O83860   6.914   9.322   5.038
27873WAT     H183861   7.011   9.343   5.054
27873WAT     H283862   6.870   9.400   4.994
27874WAT      O83863   4.111   4.430   8.580
27874WAT     H183864   4.207   4.400   8.581
27874WAT     H283865   4.072   4.414   8.489
27875WAT      O83866   3.056   5.099   7.862
27875WAT     H183867   3.144   5.056   7.883
27875WAT     H283868   3.033   5.164   7.934
27876WAT      O83869   6.646   0.026   3.511
27876WAT     H183870   6.648   0.075   3.598
27876WAT     H283871   6.561  -0.026   3.504
27877WAT      O83872   8.293   7.059   6.900
27877WAT     H183873   8.213   7.072   6.959
27877WAT     H283874   8.350   6.985   6.936
27878WAT      O83875   8.688   3.810   1.125
27878WAT     H183876   8.755   3.817   1.050
27878WAT     H283877   8.698   3.890   1.185
27879WAT      O83878   7.764   3.912   5.018
27879WAT     H183879   7.817   3.879   4.940
27879WAT     H283880   7.696   3.978   4.986
27880WAT      O83881   6.483   5.366   9.876
27880WAT     H183882   6.556   5.334   9.816
27880WAT     H283883   6.395   5.332   9.843
27881WAT      O83884   4.448   4.654   9.372
27881WAT     H183885   4.388   4.610   9.304
27881WAT     H283886   4.492   4.733   9.331
27882WAT      O83887   7.484   3.087   7.974
27882WAT     H183888   7.577   3.083   7.939
27882WAT     H283889   7.483   3.061   8.071
27883WAT      O83890   6.181   6.347   1.134
27883WAT     H183891   6.129   6.429   1.159
27883WAT     H283892   6.118   6.273   1.113
27884WAT      O83893   2.360   0.267   5.136
27884WAT     H183894   2.332   0.358   5.167
27884WAT     H283895   2.420   0.276   5.056
27885WAT      O83896   6.944   1.603   1.489
27885WAT     H183897   7.004   1.559   1.423
27885WAT     H283898   6.883   1.667   1.442
27886WAT      O83899   0.317   5.166   3.189
27886WAT     H183900   0.372   5.082   3.186
27886WAT     H283901   0.345   5.227   3.114
27887WAT      O83902   6.956   3.290   8.458
27887WAT     H183903   6.974   3.303   8.556
27887WAT     H283904   7.022   3.224   8.422
27888WAT      O83905   6.972   6.645   7.836
27888WAT     H183906   7.058   6.621   7.790
27888WAT     H283907   6.895   6.613   7.781
27889WAT      O83908   3.544   1.391   1.786
27889WAT     H183909   3.629   1.443   1.777
27889WAT     H283910   3.553   1.328   1.863
27890WAT      O83911   2.147   4.161   8.558
27890WAT     H183912   2.177   4.234   8.496
27890WAT     H283913   2.135   4.076   8.506
27891WAT      O83914   3.289   7.632   2.379
27891WAT     H183915   3.349   7.703   2.343
27891WAT     H283916   3.309   7.618   2.476
27892WAT      O83917   1.391   5.367   2.285
27892WAT     H183918   1.390   5.282   2.338
27892WAT     H283919   1.420   5.443   2.343
27893WAT      O83920   1.677   3.752   7.803
27893WAT     H183921   1.688   3.848   7.776
27893WAT     H283922   1.608   3.744   7.874
27894WAT      O83923   4.401   5.186   8.248
27894WAT     H183924   4.384   5.162   8.152
27894WAT     H283925   4.479   5.133   8.282
27895WAT      O83926   6.589   2.804   7.508
27895WAT     H183927   6.686   2.804   7.482
27895WAT     H283928   6.549   2.892   7.485
27896WAT      O83929   2.688   9.771   4.807
27896WAT     H183930   2.733   9.685   4.784
27896WAT     H283931   2.662   9.819   4.723
27897WAT      O83932   3.741   8.354   1.417
27897WAT     H183933   3.668   8.306   1.467
27897WAT     H283934   3.735   8.332   1.320
27898WAT      O83935   3.048   3.113   0.879
27898WAT     H183936   2.969   3.074   0.832
27898WAT     H283937   3.132   3.087   0.831
27899WAT      O83938   0.204   4.924   2.111
27899WAT     H183939   0.261   5.004   2.094
27899WAT     H283940   0.132   4.918   2.042
27900WAT      O83941   9.537   7.786   3.868
27900WAT     H183942   9.565   7.880   3.849
27900WAT     H283943   9.446   7.770   3.828
27901WAT      O83944   2.031   9.213   3.209
27901WAT     H183945   1.969   9.134   3.205
27901WAT     H283946   2.049   9.246   3.116
27902WAT      O83947   0.252   4.671   6.514
27902WAT     H183948   0.172   4.622   6.549
27902WAT     H283949   0.224   4.760   6.479
27903WAT      O83950   9.510   4.447   3.107
27903WAT     H183951   9.502   4.422   3.204
27903WAT     H283952   9.488   4.544   3.096
27904WAT      O83953   4.004   2.064   6.297
27904WAT     H183954   4.066   2.068   6.219
27904WAT     H283955   4.010   2.149   6.350
27905WAT      O83956   3.498   0.276   1.008
27905WAT     H183957   3.503   0.286   0.909
27905WAT     H283958   3.571   0.214   1.039
27906WAT      O83959   9.375   5.121   9.305
27906WAT     H183960   9.451   5.104   9.243
27906WAT     H283961   9.337   5.033   9.336
27907WAT      O83962   9.057   3.218   2.032
27907WAT     H183963   9.076   3.309   2.070
27907WAT     H283964   9.140   3.182   1.989
27908WAT      O83965   4.869   7.496   5.394
27908WAT     H183966   4.794   7.478   5.329
27908WAT     H283967   4.913   7.583   5.370
27909WAT      O83968   0.407   0.741   5.325
27909WAT     H183969   0.339   0.762   5.394
27909WAT     H283970   0.363   0.732   5.236
27910WAT      O83971   7.975   0.918   7.037
27910WAT     H183972   8.043   0.939   6.967
27910WAT     H283973   7.895   0.875   6.995
27911WAT      O83974   0.055   7.176   3.532
27911WAT     H183975   0.035   7.080   3.515
27911WAT     H283976   0.120   7.210   3.463
27912WAT      O83977   1.993   9.704   6.137
27912WAT     H183978   1.957   9.712   6.230
27912WAT     H283979   1.984   9.609   6.107
27913WAT      O83980   7.160   8.691   9.872
27913WAT     H183981   7.239   8.634   9.892
27913WAT     H283982   7.166   8.776   9.926
27914WAT      O83983   9.593   3.604   5.166
27914WAT     H183984   9.527   3.557   5.224
27914WAT     H283985   9.671   3.544   5.147
27915WAT      O83986   0.508   8.222   2.959
27915WAT     H183987   0.416   8.260   2.969
27915WAT     H283988   0.575   8.287   2.994
27916WAT      O83989   6.801   1.303   2.944
27916WAT     H183990   6.855   1.349   3.015
27916WAT     H283991   6.716   1.269   2.983
27917WAT      O83992   7.304   1.774   0.076
27917WAT     H183993   7.230   1.734   0.131
27917WAT     H283994   7.335   1.859   0.119
27918WAT      O83995   8.691   1.375   0.729
27918WAT     H183996   8.671   1.301   0.665
27918WAT     H283997   8.786   1.403   0.720
27919WAT      O83998   0.734   6.467   9.418
27919WAT     H183999   0.660   6.464   9.351
27919WAT     H284000   0.792   6.546   9.400
27920WAT      O84001   1.210   9.516   0.601
27920WAT     H184002   1.308   9.533   0.584
27920WAT     H284003   1.200   9.461   0.684
27921WAT      O84004   6.179   3.177   2.367
27921WAT     H184005   6.161   3.079   2.382
27921WAT     H284006   6.198   3.192   2.270
27922WAT      O84007   0.192   6.856   3.084
27922WAT     H184008   0.202   6.864   2.985
27922WAT     H284009   0.131   6.780   3.106
27923WAT      O84010   3.233   8.401   0.228
27923WAT     H184011   3.313   8.426   0.173
27923WAT     H284012   3.188   8.483   0.261
27924WAT      O84013   6.542   8.363   2.278
27924WAT     H184014   6.588   8.288   2.231
27924WAT     H284015   6.451   8.377   2.239
27925WAT      O84016   6.052   4.802   7.795
27925WAT     H184017   6.044   4.898   7.768
27925WAT     H284018   5.978   4.750   7.752
27926WAT      O84019   8.680   8.271   6.888
27926WAT     H184020   8.668   8.172   6.900
27926WAT     H284021   8.684   8.315   6.977
27927WAT      O84022   5.136   9.393   9.259
27927WAT     H184023   5.226   9.372   9.297
27927WAT     H284024   5.129   9.357   9.166
27928WAT      O84025   4.324   3.738   7.787
27928WAT     H184026   4.245   3.729   7.727
27928WAT     H284027   4.375   3.652   7.788
27929WAT      O84028   3.323   5.132   1.969
27929WAT     H184029   3.303   5.132   1.871
27929WAT     H284030   3.339   5.038   1.999
27930WAT      O84031   8.163   8.554   1.922
27930WAT     H184032   8.220   8.499   1.984
27930WAT     H284033   8.070   8.558   1.957
27931WAT      O84034   0.820   0.238   5.639
27931WAT     H184035   0.801   0.172   5.712
27931WAT     H284036   0.745   0.305   5.635
27932WAT      O84037   4.636   3.819   2.443
27932WAT     H184038   4.619   3.896   2.380
27932WAT     H284039   4.687   3.852   2.522
27933WAT      O84040   5.565   6.419   1.726
27933WAT     H184041   5.510   6.376   1.797
27933WAT     H284042   5.651   6.452   1.766
27934WAT      O84043   9.058   7.193   4.645
27934WAT     H184044   9.134   7.245   4.605
27934WAT     H284045   9.094   7.121   4.704
27935WAT      O84046   4.999   2.064   4.848
27935WAT     H184047   4.920   2.120   4.875
27935WAT     H284048   5.083   2.108   4.878
27936WAT      O84049   6.555   2.696   0.885
27936WAT     H184050   6.469   2.650   0.864
27936WAT     H284051   6.538   2.794   0.901
27937WAT      O84052   2.943   4.884   9.402
27937WAT     H184053   2.986   4.797   9.430
27937WAT     H284054   2.937   4.888   9.303
27938WAT      O84055   1.534   1.720   6.073
27938WAT     H184056   1.612   1.708   6.012
27938WAT     H284057   1.544   1.659   6.152
27939WAT      O84058   5.325   3.794   8.025
27939WAT     H184059   5.371   3.806   7.936
27939WAT     H284060   5.247   3.855   8.030
27940WAT      O84061   4.441   0.884   2.540
27940WAT     H184062   4.479   0.808   2.593
27940WAT     H284063   4.363   0.853   2.486
27941WAT      O84064   3.162   6.772   5.270
27941WAT     H184065   3.226   6.724   5.209
27941WAT     H284066   3.069   6.761   5.235
27942WAT      O84067   7.820   8.720   8.902
27942WAT     H184068   7.723   8.738   8.886
27942WAT     H284069   7.833   8.623   8.923
27943WAT      O84070   2.322   7.175   4.900
27943WAT     H184071   2.308   7.105   4.830
27943WAT     H284072   2.336   7.131   4.989
27944WAT      O84073   0.388   7.785   3.680
27944WAT     H184074   0.334   7.813   3.760
27944WAT     H284075   0.480   7.823   3.688
27945WAT      O84076   1.675   2.045   6.007
27945WAT     H184077   1.732   2.070   5.929
27945WAT     H284078   1.733   2.031   6.088
27946WAT      O84079   1.226   8.724   1.228
27946WAT     H184080   1.174   8.639   1.242
27946WAT     H284081   1.176   8.784   1.165
27947WAT      O84082   5.955   3.128   0.968
27947WAT     H184083   5.967   3.201   0.901
27947WAT     H284084   6.010   3.049   0.942
27948WAT      O84085   7.008   4.899   4.467
27948WAT     H184086   6.919   4.890   4.512
27948WAT     H284087   7.016   4.828   4.397
27949WAT      O84088   1.064   0.043   2.704
27949WAT     H184089   1.044   0.073   2.798
27949WAT     H284090   1.124   0.109   2.660
27950WAT      O84091   3.311   0.277   1.851
27950WAT     H184092   3.360   0.362   1.835
27950WAT     H284093   3.243   0.264   1.778
27951WAT      O84094   7.235   1.322   6.163
27951WAT     H184095   7.219   1.397   6.227
27951WAT     H284096   7.217   1.235   6.209
27952WAT      O84097   0.604   4.227   2.657
27952WAT     H184098   0.626   4.279   2.739
27952WAT     H284099   0.688   4.202   2.610
27953WAT      O84100   6.036   4.370   3.028
27953WAT     H184101   6.045   4.427   3.110
27953WAT     H284102   5.942   4.373   2.996
27954WAT      O84103   4.759   0.993   5.272
27954WAT     H184104   4.752   0.986   5.172
27954WAT     H284105   4.850   1.026   5.297
27955WAT      O84106   4.625   6.939   8.421
27955WAT     H184107   4.636   6.872   8.494
27955WAT     H284108   4.602   7.028   8.460
27956WAT      O84109   0.239   0.660   7.158
27956WAT     H184110   0.217   0.577   7.107
27956WAT     H284111   0.207   0.740   7.108
27957WAT      O84112   7.231   5.307   7.566
27957WAT     H184113   7.314   5.325   7.513
27957WAT     H284114   7.223   5.376   7.638
27958WAT      O84115   8.354   8.527   6.784
27958WAT     H184116   8.304   8.559   6.865
27958WAT     H284117   8.439   8.579   6.775
27959WAT      O84118   8.446   7.381   3.881
27959WAT     H184119   8.357   7.417   3.908
27959WAT     H284120   8.434   7.289   3.843
27960WAT      O84121   6.745   0.800   0.696
27960WAT     H184122   6.663   0.761   0.738
27960WAT     H284123   6.826   0.754   0.732
27961WAT      O84124   6.528   2.840   4.384
27961WAT     H184125   6.525   2.740   4.388
27961WAT     H284126   6.455   2.878   4.441
27962WAT      O84127   3.434   5.369   5.279
27962WAT     H184128   3.390   5.282   5.257
27962WAT     H284129   3.429   5.386   5.377
27963WAT      O84130   2.993   8.300   1.679
27963WAT     H184131   2.965   8.289   1.774
27963WAT     H284132   3.013   8.211   1.639
27964WAT      O84133   2.903   1.870   2.855
27964WAT     H184134   2.854   1.854   2.940
27964WAT     H284135   2.852   1.831   2.779
27965WAT      O84136   2.499   7.494   8.648
27965WAT     H184137   2.403   7.502   8.621
27965WAT     H284138   2.553   7.566   8.604
27966WAT      O84139   3.155   2.542   6.775
27966WAT     H184140   3.125   2.538   6.870
27966WAT     H284141   3.076   2.529   6.715
27967WAT      O84142   0.924   0.563   5.396
27967WAT     H184143   0.958   0.493   5.459
27967WAT     H284144   0.978   0.647   5.409
27968WAT      O84145   6.574   6.088   1.432
27968WAT     H184146   6.533   6.068   1.343
27968WAT     H284147   6.524   6.162   1.476
27969WAT      O84148   5.261   9.580   7.603
27969WAT     H184149   5.206   9.663   7.606
27969WAT     H284150   5.232   9.523   7.526
27970WAT      O84151   8.289   0.876   1.216
27970WAT     H184152   8.301   0.938   1.138
27970WAT     H284153   8.367   0.814   1.222
27971WAT      O84154   1.862   4.228   4.013
27971WAT     H184155   1.858   4.170   4.095
27971WAT     H284156   1.938   4.200   3.956
27972WAT      O84157   3.681   8.133   9.590
27972WAT     H184158   3.743   8.146   9.668
27972WAT     H284159   3.589   8.112   9.623
27973WAT      O84160   9.392   0.460   8.882
27973WAT     H184161   9.390   0.418   8.973
27973WAT     H284162   9.466   0.419   8.828
27974WAT      O84163   1.909   0.168   0.237
27974WAT     H184164   1.993   0.150   0.288
27974WAT     H284165   1.836   0.108   0.269
27975WAT      O84166   9.270   3.309   1.415
27975WAT     H184167   9.273   3.244   1.339
27975WAT     H284168   9.237   3.398   1.381
27976WAT      O84169   8.499   2.910   8.294
27976WAT     H184170   8.565   2.978   8.261
27976WAT     H284171   8.411   2.955   8.310
27977WAT      O84172   9.445   6.414   4.195
27977WAT     H184173   9.395   6.477   4.136
27977WAT     H284174   9.384   6.379   4.267
27978WAT      O84175   1.864   5.579   5.098
27978WAT     H184176   1.786   5.519   5.117
27978WAT     H284177   1.833   5.674   5.092
27979WAT      O84178   3.078   5.941   7.437
27979WAT     H184179   3.137   6.012   7.475
27979WAT     H284180   3.111   5.915   7.346
27980WAT      O84181   1.843   3.729   3.349
27980WAT     H184182   1.831   3.705   3.253
27980WAT     H284183   1.838   3.646   3.405
27981WAT      O84184   2.419   5.639   2.345
27981WAT     H184185   2.489   5.694   2.300
27981WAT     H284186   2.329   5.663   2.307
27982WAT      O84187   8.820   7.068   2.873
27982WAT     H184188   8.775   7.053   2.962
27982WAT     H284189   8.856   7.162   2.870
27983WAT      O84190   8.760   5.091   6.319
27983WAT     H184191   8.839   5.136   6.277
27983WAT     H284192   8.756   4.995   6.290
27984WAT      O84193   0.300   8.363   5.921
27984WAT     H184194   0.336   8.457   5.924
27984WAT     H284195   0.208   8.364   5.882
27985WAT      O84196   3.176   8.185   2.779
27985WAT     H184197   3.090   8.208   2.824
27985WAT     H284198   3.198   8.256   2.711
27986WAT      O84199   2.554   6.532   2.903
27986WAT     H184200   2.653   6.538   2.918
27986WAT     H284201   2.536   6.515   2.806
27987WAT      O84202   5.544   6.906   8.196
27987WAT     H184203   5.572   6.834   8.133
27987WAT     H284204   5.478   6.870   8.262
27988WAT      O84205   5.039   1.546   1.147
27988WAT     H184206   4.957   1.571   1.096
27988WAT     H284207   5.063   1.620   1.210
27989WAT      O84208   8.490   3.132   2.562
27989WAT     H184209   8.584   3.128   2.593
27989WAT     H284210   8.472   3.054   2.502
27990WAT      O84211   2.832   7.882   5.566
27990WAT     H184212   2.834   7.973   5.607
27990WAT     H284213   2.766   7.880   5.492
27991WAT      O84214   0.288   5.126   5.272
27991WAT     H184215   0.200   5.079   5.280
27991WAT     H284216   0.358   5.072   5.320
27992WAT      O84217   6.238   4.049   5.701
27992WAT     H184218   6.201   4.010   5.785
27992WAT     H284219   6.214   4.147   5.697
27993WAT      O84220   4.908   3.748   0.434
27993WAT     H184221   4.867   3.679   0.374
27993WAT     H284222   4.914   3.711   0.527
27994WAT      O84223   9.286   6.480   5.113
27994WAT     H184224   9.274   6.525   5.025
27994WAT     H284225   9.204   6.428   5.136
27995WAT      O84226   2.113   8.175   2.896
27995WAT     H184227   2.201   8.221   2.879
27995WAT     H284228   2.126   8.076   2.894
27996WAT      O84229   2.013   8.393   1.974
27996WAT     H184230   2.001   8.294   1.967
27996WAT     H284231   2.045   8.429   1.886
27997WAT      O84232   2.809   0.506   5.473
27997WAT     H184233   2.860   0.455   5.542
27997WAT     H284234   2.859   0.589   5.448
27998WAT      O84235   7.185   1.121   6.316
27998WAT     H184236   7.249   1.105   6.391
27998WAT     H284237   7.107   1.059   6.326
27999WAT      O84238   4.682   4.080   4.800
27999WAT     H184239   4.618   4.117   4.868
27999WAT     H284240   4.717   4.154   4.743
28000WAT      O84241   8.054   6.927   4.522
28000WAT     H184242   8.143   6.882   4.530
28000WAT     H284243   8.011   6.901   4.435
28001WAT      O84244   6.295   3.260   0.359
28001WAT     H184245   6.291   3.174   0.309
28001WAT     H284246   6.278   3.243   0.456
28002WAT      O84247   9.333   1.431   8.789
28002WAT     H184248   9.373   1.462   8.702
28002WAT     H284249   9.301   1.337   8.780
28003WAT      O84250   2.836   3.950   8.060
28003WAT     H184251   2.841   3.961   7.960
28003WAT     H284252   2.842   4.040   8.103
28004WAT      O84253   1.112   3.689   8.019
28004WAT     H184254   1.151   3.779   7.999
28004WAT     H284255   1.159   3.619   7.966
28005WAT      O84256   2.016   3.268   9.632
28005WAT     H184257   2.025   3.367   9.641
28005WAT     H284258   2.064   3.237   9.550
28006WAT      O84259   5.966   6.012   1.386
28006WAT     H184260   6.066   6.016   1.378
28006WAT     H284261   5.932   5.928   1.344
28007WAT      O84262   2.007   5.421   5.704
28007WAT     H184263   1.980   5.491   5.770
28007WAT     H284264   2.106   5.406   5.710
28008WAT      O84265   3.360   0.161   8.797
28008WAT     H184266   3.422   0.090   8.763
28008WAT     H284267   3.352   0.153   8.896
28009WAT      O84268   9.564   0.957   2.788
28009WAT     H184269   9.528   1.031   2.845
28009WAT     H284270   9.546   0.976   2.692
28010WAT      O84271   7.143   5.332   3.180
28010WAT     H184272   7.155   5.400   3.108
28010WAT     H284273   7.073   5.266   3.151
28011WAT      O84274   3.857   7.622   2.690
28011WAT     H184275   3.799   7.657   2.764
28011WAT     H284276   3.817   7.647   2.602
28012WAT      O84277   1.940   2.467   0.281
28012WAT     H184278   1.872   2.498   0.215
28012WAT     H284279   1.907   2.384   0.326
28013WAT      O84280   1.188   7.468   6.417
28013WAT     H184281   1.145   7.398   6.474
28013WAT     H284282   1.265   7.428   6.367
28014WAT      O84283   8.042   8.734   6.727
28014WAT     H184284   8.082   8.681   6.802
28014WAT     H284285   7.981   8.676   6.674
28015WAT      O84286   0.166   5.922   9.058
28015WAT     H184287   0.182   5.841   9.115
28015WAT     H284288   0.108   5.987   9.107
28016WAT      O84289   9.447   7.295   7.025
28016WAT     H184290   9.508   7.235   6.973
28016WAT     H284291   9.491   7.384   7.038
28017WAT      O84292   9.064   5.630   8.186
28017WAT     H184293   8.988   5.660   8.243
28017WAT     H284294   9.151   5.648   8.233
28018WAT      O84295   4.248   3.062   1.801
28018WAT     H184296   4.186   3.113   1.741
28018WAT     H284297   4.294   3.126   1.862
28019WAT      O84298   1.456   1.559   0.251
28019WAT     H184299   1.458   1.588   0.156
28019WAT     H284300   1.363   1.532   0.276
28020WAT      O84301   4.223   8.049   6.294
28020WAT     H184302   4.131   8.019   6.271
28020WAT     H284303   4.252   8.007   6.380
28021WAT      O84304   0.703   3.606   4.447
28021WAT     H184305   0.754   3.575   4.528
28021WAT     H284306   0.662   3.695   4.466
28022WAT      O84307   7.149   2.706   8.680
28022WAT     H184308   7.105   2.794   8.696
28022WAT     H284309   7.216   2.688   8.752
28023WAT      O84310   3.435   3.111   5.789
28023WAT     H184311   3.342   3.117   5.825
28023WAT     H284312   3.433   3.124   5.690
28024WAT      O84313   2.205   3.337   1.473
28024WAT     H184314   2.256   3.321   1.389
28024WAT     H284315   2.107   3.339   1.452
28025WAT      O84316   8.326   4.944   0.076
28025WAT     H184317   8.403   4.910   0.022
28025WAT     H284318   8.294   5.031   0.038
28026WAT      O84319   1.814   4.082   5.203
28026WAT     H184320   1.768   4.101   5.289
28026WAT     H284321   1.913   4.082   5.216
28027WAT      O84322   5.850   3.721   6.250
28027WAT     H184323   5.899   3.709   6.337
28027WAT     H284324   5.854   3.817   6.223
28028WAT      O84325   3.505   8.573   9.764
28028WAT     H184326   3.470   8.543   9.675
28028WAT     H284327   3.602   8.551   9.770
28029WAT      O84328   4.429   5.845   7.291
28029WAT     H184329   4.355   5.872   7.229
28029WAT     H284330   4.389   5.803   7.373
28030WAT      O84331   0.090   7.061   8.129
28030WAT     H184332   0.039   7.140   8.163
28030WAT     H284333   0.179   7.056   8.174
28031WAT      O84334   5.656   9.273   6.253
28031WAT     H184335   5.577   9.329   6.275
28031WAT     H284336   5.669   9.203   6.323
28032WAT      O84337   2.973   5.078   9.598
28032WAT     H184338   3.017   5.168   9.601
28032WAT     H284339   2.956   5.052   9.503
28033WAT      O84340   6.215   0.984   7.690
28033WAT     H184341   6.263   1.054   7.743
28033WAT     H284342   6.253   0.894   7.712
28034WAT      O84343   0.251   5.266   1.388
28034WAT     H184344   0.269   5.215   1.304
28034WAT     H284345   0.321   5.244   1.456
28035WAT      O84346   5.681   3.945   7.084
28035WAT     H184347   5.705   3.917   6.991
28035WAT     H284348   5.764   3.946   7.140
28036WAT      O84349   5.535   0.943   8.073
28036WAT     H184350   5.523   0.859   8.126
28036WAT     H284351   5.632   0.968   8.072
28037WAT      O84352   6.767   3.772   5.453
28037WAT     H184353   6.700   3.698   5.440
28037WAT     H284354   6.784   3.817   5.366
28038WAT      O84355   3.600   4.334   6.775
28038WAT     H184356   3.580   4.431   6.764
28038WAT     H284357   3.628   4.317   6.870
28039WAT      O84358   3.573   9.538   5.921
28039WAT     H184359   3.666   9.544   5.958
28039WAT     H284360   3.566   9.596   5.840
28040WAT      O84361   1.440   8.551   7.649
28040WAT     H184362   1.534   8.571   7.622
28040WAT     H284363   1.429   8.452   7.661
28041WAT      O84364   9.009   0.682   5.732
28041WAT     H184365   8.987   0.584   5.733
28041WAT     H284366   8.973   0.725   5.814
28042WAT      O84367   0.446   1.965   5.687
28042WAT     H184368   0.430   1.867   5.694
28042WAT     H284369   0.377   2.006   5.627
28043WAT      O84370   9.325   5.499   4.747
28043WAT     H184371   9.391   5.537   4.682
28043WAT     H284372   9.263   5.438   4.699
28044WAT      O84373   8.219   0.980   8.931
28044WAT     H184374   8.169   0.951   8.849
28044WAT     H284375   8.173   0.943   9.012
28045WAT      O84376   6.754   9.530   7.775
28045WAT     H184377   6.689   9.590   7.822
28045WAT     H284378   6.751   9.439   7.815
28046WAT      O84379   8.528   9.598   6.472
28046WAT     H184380   8.566   9.688   6.493
28046WAT     H284381   8.576   9.559   6.393
28047WAT      O84382   7.236   4.808   5.898
28047WAT     H184383   7.331   4.805   5.866
28047WAT     H284384   7.235   4.830   5.996
28048WAT      O84385   9.131   6.734   8.194
28048WAT     H184386   9.069   6.707   8.268
28048WAT     H284387   9.113   6.677   8.113
28049WAT      O84388   6.137   5.126   1.195
28049WAT     H184389   6.112   5.032   1.222
28049WAT     H284390   6.138   5.184   1.277
28050WAT      O84391   5.081   8.282   8.916
28050WAT     H184392   5.033   8.333   8.988
28050WAT     H284393   5.139   8.345   8.864
28051WAT      O84394   3.432   7.852   4.379
28051WAT     H184395   3.385   7.939   4.393
28051WAT     H284396   3.378   7.795   4.316
28052WAT      O84397   0.950   0.729   1.268
28052WAT     H184398   0.894   0.804   1.234
28052WAT     H284399   0.975   0.669   1.192
28053WAT      O84400   8.313   4.079   2.156
28053WAT     H184401   8.238   4.036   2.206
28053WAT     H284402   8.390   4.093   2.217
28054WAT      O84403   3.527   2.370   0.494
28054WAT     H184404   3.501   2.401   0.402
28054WAT     H284405   3.446   2.369   0.553
28055WAT      O84406   5.159   2.142   7.838
28055WAT     H184407   5.179   2.049   7.806
28055WAT     H284408   5.222   2.165   7.912
28056WAT      O84409   5.360   7.842   1.036
28056WAT     H184410   5.435   7.837   1.102
28056WAT     H284411   5.285   7.896   1.073
28057WAT      O84412   7.474   5.275   7.365
28057WAT     H184413   7.485   5.372   7.388
28057WAT     H284414   7.511   5.219   7.439
28058WAT      O84415   2.276   4.912   9.001
28058WAT     H184416   2.191   4.861   9.014
28058WAT     H284417   2.307   4.948   9.088
28059WAT      O84418   7.889   8.367   4.245
28059WAT     H184419   7.912   8.271   4.260
28059WAT     H284420   7.811   8.391   4.303
28060WAT      O84421   4.364   2.063   3.823
28060WAT     H184422   4.278   2.068   3.772
28060WAT     H284423   4.385   1.968   3.845
28061WAT      O84424   8.561   2.811   4.466
28061WAT     H184425   8.628   2.880   4.494
28061WAT     H284426   8.609   2.733   4.427
28062WAT      O84427   1.971   1.897   7.250
28062WAT     H184428   1.943   1.954   7.327
28062WAT     H284429   1.913   1.917   7.171
28063WAT      O84430   2.796   1.021   2.419
28063WAT     H184431   2.756   1.006   2.329
28063WAT     H284432   2.736   1.081   2.473
28064WAT      O84433   2.075   7.221   0.354
28064WAT     H184434   2.133   7.296   0.386
28064WAT     H284435   1.979   7.248   0.361
28065WAT      O84436   5.259   1.578   5.685
28065WAT     H184437   5.350   1.566   5.645
28065WAT     H284438   5.268   1.627   5.772
28066WAT      O84439   5.973   2.851   8.449
28066WAT     H184440   5.895   2.892   8.402
28066WAT     H284441   6.048   2.839   8.384
28067WAT      O84442   9.310   3.912   8.756
28067WAT     H184443   9.289   3.921   8.854
28067WAT     H284444   9.243   3.852   8.713
28068WAT      O84445   0.969   2.793   1.057
28068WAT     H184446   0.888   2.851   1.068
28068WAT     H284447   1.039   2.820   1.124
28069WAT      O84448   4.693   4.441   0.254
28069WAT     H184449   4.710   4.405   0.346
28069WAT     H284450   4.778   4.436   0.201
28070WAT      O84451   7.400   3.566   7.719
28070WAT     H184452   7.312   3.571   7.671
28070WAT     H284453   7.403   3.482   7.773
28071WAT      O84454   6.113   8.358   8.434
28071WAT     H184455   6.105   8.266   8.397
28071WAT     H284456   6.118   8.355   8.533
28072WAT      O84457   6.768   4.917   4.229
28072WAT     H184458   6.759   4.967   4.143
28072WAT     H284459   6.852   4.863   4.227
28073WAT      O84460   7.413   1.252   9.761
28073WAT     H184461   7.346   1.276   9.692
28073WAT     H284462   7.494   1.311   9.751
28074WAT      O84463   8.661   8.994   8.438
28074WAT     H184464   8.758   9.010   8.423
28074WAT     H284465   8.608   9.070   8.400
28075WAT      O84466   4.874   6.726   1.192
28075WAT     H184467   4.869   6.640   1.242
28075WAT     H284468   4.902   6.707   1.097
28076WAT      O84469   3.704   8.967   2.246
28076WAT     H184470   3.641   9.044   2.243
28076WAT     H284471   3.745   8.961   2.337
28077WAT      O84472   6.613   8.907   2.230
28077WAT     H184473   6.711   8.897   2.217
28077WAT     H284474   6.595   8.935   2.325
28078WAT      O84475   4.396   6.787   5.710
28078WAT     H184476   4.402   6.802   5.611
28078WAT     H284477   4.312   6.828   5.745
28079WAT      O84478   9.052   5.836   1.007
28079WAT     H184479   9.072   5.772   0.933
28079WAT     H284480   9.001   5.914   0.969
28080WAT      O84481   0.453   3.068   0.767
28080WAT     H184482   0.505   3.152   0.781
28080WAT     H284483   0.407   3.043   0.852
28081WAT      O84484   9.332   8.605   2.535
28081WAT     H184485   9.350   8.544   2.458
28081WAT     H284486   9.419   8.629   2.579
28082WAT      O84487   7.671   7.055   5.696
28082WAT     H184488   7.647   6.990   5.623
28082WAT     H284489   7.664   7.010   5.785
28083WAT      O84490   5.191   6.883   0.200
28083WAT     H184491   5.277   6.878   0.250
28083WAT     H284492   5.163   6.790   0.174
28084WAT      O84493   8.414   8.814   8.151
28084WAT     H184494   8.439   8.812   8.055
28084WAT     H284495   8.328   8.763   8.164
28085WAT      O84496   0.689   3.715   3.959
28085WAT     H184497   0.754   3.646   3.990
28085WAT     H284498   0.713   3.804   3.999
28086WAT      O84499   5.148   8.697   7.252
28086WAT     H184500   5.118   8.681   7.346
28086WAT     H284501   5.247   8.687   7.246
28087WAT      O84502   3.664   7.946   0.608
28087WAT     H184503   3.584   7.888   0.624
28087WAT     H284504   3.666   7.975   0.512
28088WAT      O84505   3.707   5.921   5.048
28088WAT     H184506   3.609   5.935   5.058
28088WAT     H284507   3.724   5.855   4.974
28089WAT      O84508   0.453   1.665   5.274
28089WAT     H184509   0.476   1.634   5.182
28089WAT     H284510   0.507   1.746   5.296
28090WAT      O84511   8.868   8.950   2.253
28090WAT     H184512   8.871   8.906   2.164
28090WAT     H284513   8.802   9.025   2.252
28091WAT      O84514   5.409   7.106   7.371
28091WAT     H184515   5.452   7.173   7.431
28091WAT     H284516   5.348   7.154   7.307
28092WAT      O84517   7.926   5.015   3.911
28092WAT     H184518   7.854   4.990   3.846
28092WAT     H284519   7.951   5.111   3.898
28093WAT      O84520   6.316   0.480   1.143
28093WAT     H184521   6.228   0.448   1.108
28093WAT     H284522   6.390   0.436   1.093
28094WAT      O84523   2.894   3.059   2.911
28094WAT     H184524   2.858   2.992   2.975
28094WAT     H284525   2.817   3.112   2.873
28095WAT      O84526   7.668   4.495   2.274
28095WAT     H184527   7.689   4.562   2.344
28095WAT     H284528   7.578   4.514   2.235
28096WAT      O84529   8.389   1.819   6.949
28096WAT     H184530   8.400   1.728   6.907
28096WAT     H284531   8.292   1.843   6.950
28097WAT      O84532   4.599   1.113   2.892
28097WAT     H184533   4.520   1.176   2.891
28097WAT     H284534   4.646   1.119   2.803
28098WAT      O84535   3.043   6.003   8.585
28098WAT     H184536   3.109   5.968   8.652
28098WAT     H284537   2.966   5.941   8.578
28099WAT      O84538   7.079   2.705   0.773
28099WAT     H184539   7.093   2.606   0.777
28099WAT     H284540   7.034   2.736   0.857
28100WAT      O84541   1.018   7.625   0.016
28100WAT     H184542   1.050   7.618  -0.078
28100WAT     H284543   0.993   7.534   0.050
28101WAT      O84544   1.491   6.249   0.890
28101WAT     H184545   1.532   6.282   0.975
28101WAT     H284546   1.405   6.298   0.874
28102WAT      O84547   3.653   3.564   6.392
28102WAT     H184548   3.643   3.637   6.324
28102WAT     H284549   3.608   3.592   6.477
28103WAT      O84550   1.232   4.661   7.799
28103WAT     H184551   1.310   4.609   7.763
28103WAT     H284552   1.155   4.598   7.815
28104WAT      O84553   8.374   4.196   5.419
28104WAT     H184554   8.338   4.278   5.465
28104WAT     H284555   8.386   4.123   5.486
28105WAT      O84556   7.028   8.264   8.471
28105WAT     H184557   6.968   8.195   8.432
28105WAT     H284558   7.029   8.256   8.570
28106WAT      O84559   3.411   8.080   9.647
28106WAT     H184560   3.429   7.987   9.615
28106WAT     H284561   3.312   8.097   9.648
28107WAT      O84562   4.095   1.034   4.426
28107WAT     H184563   4.174   1.028   4.488
28107WAT     H284564   4.117   0.988   4.340
28108WAT      O84565   3.909   8.194   3.719
28108WAT     H184566   3.835   8.139   3.679
28108WAT     H284567   3.980   8.133   3.754
28109WAT      O84568   9.876   3.028   6.833
28109WAT     H184569   9.950   2.988   6.780
28109WAT     H284570   9.911   3.104   6.887
28110WAT      O84571   5.587   2.138   4.091
28110WAT     H184572   5.512   2.196   4.062
28110WAT     H284573   5.659   2.193   4.133
28111WAT      O84574   5.032   5.196   6.249
28111WAT     H184575   5.028   5.146   6.336
28111WAT     H284576   4.961   5.267   6.249
28112WAT      O84577   6.076   2.874   3.435
28112WAT     H184578   6.130   2.868   3.351
28112WAT     H284579   6.073   2.784   3.479
28113WAT      O84580   5.451   3.630   2.746
28113WAT     H184581   5.371   3.622   2.806
28113WAT     H284582   5.444   3.713   2.691
28114WAT      O84583   9.496   0.698   1.187
28114WAT     H184584   9.587   0.661   1.206
28114WAT     H284585   9.453   0.727   1.272
28115WAT      O84586   4.315   7.653   3.696
28115WAT     H184587   4.352   7.560   3.706
28115WAT     H284588   4.365   7.700   3.623
28116WAT      O84589   9.054   8.172   7.521
28116WAT     H184590   9.132   8.216   7.477
28116WAT     H284591   9.083   8.086   7.562
28117WAT      O84592   1.977   3.340   3.278
28117WAT     H184593   1.990   3.342   3.179
28117WAT     H284594   2.066   3.338   3.323
28118WAT      O84595   9.240   2.712   8.770
28118WAT     H184596   9.333   2.684   8.794
28118WAT     H284597   9.208   2.658   8.693
28119WAT      O84598   8.161   1.806   4.140
28119WAT     H184599   8.119   1.883   4.189
28119WAT     H284600   8.167   1.727   4.201
28120WAT      O84601   8.178   4.105   6.518
28120WAT     H184602   8.209   4.135   6.428
28120WAT     H284603   8.128   4.019   6.509
28121WAT      O84604   0.642   5.796   9.513
28121WAT     H184605   0.573   5.860   9.547
28121WAT     H284606   0.657   5.813   9.416
28122WAT      O84607   8.684   7.256   8.077
28122WAT     H184608   8.716   7.350   8.092
28122WAT     H284609   8.587   7.257   8.053
28123WAT      O84610   1.858   8.529   5.879
28123WAT     H184611   1.935   8.522   5.941
28123WAT     H284612   1.830   8.438   5.849
28124WAT      O84613   6.183   8.489   3.759
28124WAT     H184614   6.270   8.453   3.725
28124WAT     H284615   6.146   8.553   3.692
28125WAT      O84616   4.236   4.783   8.937
28125WAT     H184617   4.205   4.745   8.850
28125WAT     H284618   4.249   4.882   8.927
28126WAT      O84619   3.296   7.114   2.284
28126WAT     H184620   3.324   7.161   2.368
28126WAT     H284621   3.263   7.023   2.306
28127WAT      O84622   8.409   0.950   4.735
28127WAT     H184623   8.361   1.016   4.677
28127WAT     H284624   8.383   0.857   4.707
28128WAT      O84625   9.349   9.052   7.510
28128WAT     H184626   9.391   8.973   7.555
28128WAT     H284627   9.295   9.021   7.432
28129WAT      O84628   8.891   0.586   9.792
28129WAT     H184629   8.891   0.612   9.889
28129WAT     H284630   8.985   0.587   9.758
28130WAT      O84631   1.570   9.206   3.328
28130WAT     H184632   1.484   9.195   3.377
28130WAT     H284633   1.618   9.287   3.361
28131WAT      O84634   3.195   1.745   9.373
28131WAT     H184635   3.113   1.764   9.319
28131WAT     H284636   3.223   1.650   9.358
28132WAT      O84637   0.024   7.520   8.919
28132WAT     H184638   0.080   7.491   8.841
28132WAT     H284639   0.083   7.564   8.987
28133WAT      O84640   8.236   3.763   2.104
28133WAT     H184641   8.200   3.831   2.168
28133WAT     H284642   8.318   3.799   2.060
28134WAT      O84643   7.256   8.820   1.123
28134WAT     H184644   7.228   8.808   1.028
28134WAT     H284645   7.261   8.731   1.168
28135WAT      O84646   1.889   9.716   3.806
28135WAT     H184647   1.959   9.671   3.862
28135WAT     H284648   1.910   9.700   3.709
28136WAT      O84649   6.366   0.508   3.447
28136WAT     H184650   6.398   0.425   3.491
28136WAT     H284651   6.283   0.488   3.394
28137WAT      O84652   8.133   4.603   7.068
28137WAT     H184653   8.108   4.682   7.124
28137WAT     H284654   8.174   4.634   6.982
28138WAT      O84655   2.859   1.711   6.512
28138WAT     H184656   2.882   1.805   6.538
28138WAT     H284657   2.798   1.671   6.581
28139WAT      O84658   7.849   0.884   1.111
28139WAT     H184659   7.933   0.855   1.157
28139WAT     H284660   7.866   0.893   1.013
28140WAT      O84661   4.383   5.930   1.126
28140WAT     H184662   4.299   5.982   1.110
28140WAT     H284663   4.388   5.903   1.222
28141WAT      O84664   7.824   6.780   1.831
28141WAT     H184665   7.749   6.789   1.896
28141WAT     H284666   7.793   6.808   1.740
28142WAT      O84667   7.189   5.684   6.624
28142WAT     H184668   7.224   5.646   6.539
28142WAT     H284669   7.160   5.609   6.684
28143WAT      O84670   3.855   4.804   2.925
28143WAT     H184671   3.775   4.804   2.863
28143WAT     H284672   3.857   4.718   2.976
28144WAT      O84673   0.768   7.124   9.667
28144WAT     H184674   0.811   7.132   9.577
28144WAT     H284675   0.759   7.215   9.708
28145WAT      O84676   6.997   1.747   2.507
28145WAT     H184677   7.089   1.713   2.523
28145WAT     H284678   6.991   1.785   2.414
28146WAT      O84679   6.237   1.191   3.591
28146WAT     H184680   6.201   1.203   3.683
28146WAT     H284681   6.198   1.262   3.531
28147WAT      O84682   4.704   5.792   7.312
28147WAT     H184683   4.612   5.827   7.294
28147WAT     H284684   4.744   5.841   7.389
28148WAT      O84685   1.163   6.685   9.298
28148WAT     H184686   1.231   6.631   9.248
28148WAT     H284687   1.117   6.748   9.235
28149WAT      O84688   1.156   2.228   3.800
28149WAT     H184689   1.103   2.149   3.829
28149WAT     H284690   1.095   2.296   3.759
28150WAT      O84691   8.413   6.343   7.705
28150WAT     H184692   8.460   6.379   7.785
28150WAT     H284693   8.314   6.345   7.720
28151WAT      O84694   9.390   3.299   8.141
28151WAT     H184695   9.450   3.222   8.119
28151WAT     H284696   9.375   3.355   8.059
28152WAT      O84697   5.165   4.352   9.860
28152WAT     H184698   5.192   4.365   9.955
28152WAT     H284699   5.081   4.404   9.842
28153WAT      O84700   5.586   2.576   2.969
28153WAT     H184701   5.602   2.597   2.873
28153WAT     H284702   5.657   2.514   3.002
28154WAT      O84703   4.465   8.105   8.975
28154WAT     H184704   4.411   8.173   8.925
28154WAT     H284705   4.407   8.058   9.041
28155WAT      O84706   7.327   0.530   4.557
28155WAT     H184707   7.339   0.627   4.537
28155WAT     H284708   7.279   0.519   4.643
28156WAT      O84709   6.008   1.681   3.500
28156WAT     H184710   6.068   1.718   3.571
28156WAT     H284711   6.032   1.721   3.412
28157WAT      O84712   4.818   2.301   0.588
28157WAT     H184713   4.814   2.371   0.658
28157WAT     H284714   4.727   2.261   0.575
28158WAT      O84715   1.885   5.679   6.618
28158WAT     H184716   1.804   5.652   6.670
28158WAT     H284717   1.965   5.681   6.678
28159WAT      O84718   6.990   9.769   5.672
28159WAT     H184719   6.995   9.844   5.606
28159WAT     H284720   6.986   9.681   5.623
28160WAT      O84721   2.174   8.659   8.317
28160WAT     H184722   2.252   8.601   8.295
28160WAT     H284723   2.206   8.750   8.343
28161WAT      O84724   0.287   7.256   7.307
28161WAT     H184725   0.249   7.190   7.373
28161WAT     H284726   0.378   7.284   7.336
28162WAT      O84727   7.065   3.703   1.437
28162WAT     H184728   7.093   3.682   1.531
28162WAT     H284729   6.974   3.745   1.437
28163WAT      O84730   0.316   8.934   7.942
28163WAT     H184731   0.413   8.922   7.959
28163WAT     H284732   0.273   8.976   8.022
28164WAT      O84733   1.287   2.698   6.413
28164WAT     H184734   1.195   2.666   6.435
28164WAT     H284735   1.288   2.734   6.319
28165WAT      O84736   6.388   6.036   7.502
28165WAT     H184737   6.406   6.073   7.593
28165WAT     H284738   6.468   5.984   7.471
28166WAT      O84739   2.721   8.793   1.007
28166WAT     H184740   2.710   8.740   1.092
28166WAT     H284741   2.800   8.853   1.016
28167WAT      O84742   8.305   9.379   4.722
28167WAT     H184743   8.230   9.313   4.729
28167WAT     H284744   8.274   9.459   4.671
28168WAT      O84745   3.996   0.202   4.984
28168WAT     H184746   3.948   0.116   4.964
28168WAT     H284747   4.014   0.207   5.082
28169WAT      O84748   5.462   9.768   8.311
28169WAT     H184749   5.422   9.808   8.229
28169WAT     H284750   5.527   9.832   8.351
28170WAT      O84751   7.573   6.786   2.618
28170WAT     H184752   7.600   6.812   2.525
28170WAT     H284753   7.564   6.686   2.623
28171WAT      O84754   2.202   4.490   8.585
28171WAT     H184755   2.276   4.533   8.533
28171WAT     H284756   2.117   4.496   8.533
28172WAT      O84757   2.996   0.625   5.676
28172WAT     H184758   3.044   0.642   5.762
28172WAT     H284759   3.049   0.664   5.601
28173WAT      O84760   9.808   2.738   5.003
28173WAT     H184761   9.850   2.742   4.912
28173WAT     H284762   9.829   2.822   5.053
28174WAT      O84763   4.481   9.417   5.639
28174WAT     H184764   4.518   9.330   5.607
28174WAT     H284765   4.393   9.402   5.683
28175WAT      O84766   8.106   5.658   4.429
28175WAT     H184767   8.142   5.730   4.369
28175WAT     H284768   8.075   5.699   4.515
28176WAT      O84769   0.355   0.119   4.965
28176WAT     H184770   0.353   0.154   4.871
28176WAT     H284771   0.447   0.129   5.002
28177WAT      O84772   6.201   1.904   6.890
28177WAT     H184773   6.234   1.960   6.813
28177WAT     H284774   6.278   1.874   6.945
28178WAT      O84775   8.990   8.714   4.045
28178WAT     H184776   9.031   8.641   4.100
28178WAT     H284777   8.983   8.797   4.101
28179WAT      O84778   2.571   1.713   0.804
28179WAT     H184779   2.557   1.750   0.712
28179WAT     H284780   2.486   1.670   0.835
28180WAT      O84781   8.362   6.116   8.524
28180WAT     H184782   8.279   6.108   8.580
28180WAT     H284783   8.347   6.183   8.451
28181WAT      O84784   8.204   7.597   5.149
28181WAT     H184785   8.241   7.648   5.227
28181WAT     H284786   8.117   7.638   5.121
28182WAT      O84787   9.525   8.395   9.730
28182WAT     H184788   9.491   8.450   9.806
28182WAT     H284789   9.449   8.370   9.670
28183WAT      O84790   0.109   6.710   2.534
28183WAT     H184791   0.193   6.737   2.486
28183WAT     H284792   0.132   6.673   2.624
28184WAT      O84793   9.785   5.251   3.710
28184WAT     H184794   9.739   5.322   3.762
28184WAT     H284795   9.849   5.293   3.646
28185WAT      O84796   7.114   0.253   0.309
28185WAT     H184797   7.096   0.295   0.397
28185WAT     H284798   7.195   0.196   0.314
28186WAT      O84799   9.403   3.962   4.158
28186WAT     H184800   9.424   3.864   4.159
28186WAT     H284801   9.488   4.014   4.147
28187WAT      O84802   4.181   3.432   1.080
28187WAT     H184803   4.245   3.366   1.119
28187WAT     H284804   4.209   3.525   1.104
28188WAT      O84805   1.023   0.525   3.384
28188WAT     H184806   1.122   0.537   3.387
28188WAT     H284807   0.978   0.613   3.370
28189WAT      O84808   9.279   7.555   3.260
28189WAT     H184809   9.317   7.478   3.209
28189WAT     H284810   9.199   7.525   3.311
28190WAT      O84811   9.381   6.970   2.733
28190WAT     H184812   9.361   6.997   2.827
28190WAT     H284813   9.308   6.911   2.699
28191WAT      O84814   3.690   7.452   2.113
28191WAT     H184815   3.752   7.526   2.089
28191WAT     H284816   3.738   7.385   2.169
28192WAT      O84817   5.999   7.106   5.031
28192WAT     H184818   5.905   7.073   5.019
28192WAT     H284819   6.025   7.098   5.127
28193WAT      O84820   9.814   2.034   3.472
28193WAT     H184821   9.847   1.963   3.409
28193WAT     H284822   9.803   2.120   3.423
28194WAT      O84823   0.354   4.712   2.254
28194WAT     H184824   0.306   4.763   2.182
28194WAT     H284825   0.427   4.769   2.292
28195WAT      O84826   7.317   4.593   4.696
28195WAT     H184827   7.381   4.516   4.707
28195WAT     H284828   7.255   4.572   4.620
28196WAT      O84829   7.170   8.327   3.188
28196WAT     H184830   7.223   8.261   3.241
28196WAT     H284831   7.115   8.279   3.120
28197WAT      O84832   2.017   8.864   8.885
28197WAT     H184833   1.978   8.786   8.934
28197WAT     H284834   2.096   8.898   8.936
28198WAT      O84835   0.533   7.052   7.265
28198WAT     H184836   0.508   7.131   7.321
28198WAT     H284837   0.537   6.970   7.323
28199WAT      O84838   6.301   1.900   1.207
28199WAT     H184839   6.343   1.898   1.298
28199WAT     H284840   6.344   1.971   1.152
28200WAT      O84841   4.223   1.313   2.415
28200WAT     H184842   4.290   1.295   2.343
28200WAT     H284843   4.135   1.272   2.389
28201WAT      O84844   2.315   3.990   4.001
28201WAT     H184845   2.319   3.905   4.052
28201WAT     H284846   2.385   4.053   4.036
28202WAT      O84847   1.267   8.569   1.962
28202WAT     H184848   1.357   8.595   1.997
28202WAT     H284849   1.237   8.637   1.895
28203WAT      O84850   6.744   6.132   6.263
28203WAT     H184851   6.709   6.171   6.178
28203WAT     H284852   6.749   6.204   6.333
28204WAT      O84853   1.507   2.341   4.167
28204WAT     H184854   1.473   2.315   4.076
28204WAT     H284855   1.457   2.290   4.237
28205WAT      O84856   7.975   0.692   3.168
28205WAT     H184857   8.052   0.738   3.212
28205WAT     H284858   7.906   0.759   3.143
28206WAT      O84859   1.255   6.105   4.179
28206WAT     H184860   1.177   6.161   4.149
28206WAT     H284861   1.221   6.016   4.211
28207WAT      O84862   5.232   6.505   1.325
28207WAT     H184863   5.262   6.595   1.356
28207WAT     H284864   5.284   6.478   1.244
28208WAT      O84865   2.037   4.233   7.209
28208WAT     H184866   2.045   4.163   7.280
28208WAT     H284867   2.127   4.253   7.172
28209WAT      O84868   0.272   7.749   5.621
28209WAT     H184869   0.273   7.846   5.643
28209WAT     H284870   0.195   7.704   5.667
28210WAT      O84871   7.506   0.451   7.795
28210WAT     H184872   7.450   0.498   7.727
28210WAT     H284873   7.448   0.395   7.853
28211WAT      O84874   8.930   1.096   6.177
28211WAT     H184875   8.984   1.041   6.241
28211WAT     H284876   8.867   1.036   6.127
28212WAT      O84877   6.742   9.365   5.259
28212WAT     H184878   6.778   9.458   5.254
28212WAT     H284879   6.759   9.318   5.172
28213WAT      O84880   3.609   6.419   2.724
28213WAT     H184881   3.620   6.353   2.649
28213WAT     H284882   3.563   6.501   2.689
28214WAT      O84883   5.715   0.129   9.872
28214WAT     H184884   5.782   0.058   9.893
28214WAT     H284885   5.658   0.099   9.795
28215WAT      O84886   1.310   2.412   1.602
28215WAT     H184887   1.234   2.455   1.553
28215WAT     H284888   1.366   2.361   1.537
28216WAT      O84889   9.723   8.239   1.772
28216WAT     H184890   9.753   8.167   1.710
28216WAT     H284891   9.624   8.251   1.765
28217WAT      O84892   7.684   6.015   3.761
28217WAT     H184893   7.665   6.086   3.829
28217WAT     H284894   7.759   5.957   3.792
28218WAT      O84895   4.553   8.774   3.332
28218WAT     H184896   4.565   8.873   3.334
28218WAT     H284897   4.492   8.746   3.406
28219WAT      O84898   7.442   6.675   4.194
28219WAT     H184899   7.501   6.728   4.134
28219WAT     H284900   7.448   6.578   4.169
28220WAT      O84901   1.674   6.216   5.203
28220WAT     H184902   1.638   6.134   5.249
28220WAT     H284903   1.597   6.274   5.175
28221WAT      O84904   1.819   3.238   8.467
28221WAT     H184905   1.805   3.164   8.533
28221WAT     H284906   1.806   3.203   8.374
28222WAT      O84907   7.685   5.706   2.473
28222WAT     H184908   7.612   5.655   2.518
28222WAT     H284909   7.648   5.788   2.430
28223WAT      O84910   4.634   3.475   1.552
28223WAT     H184911   4.604   3.431   1.636
28223WAT     H284912   4.593   3.430   1.473
28224WAT      O84913   4.518   3.118   1.631
28224WAT     H184914   4.432   3.169   1.626
28224WAT     H284915   4.582   3.166   1.691
28225WAT      O84916   0.097   1.412   8.811
28225WAT     H184917   0.149   1.373   8.886
28225WAT     H284918   0.044   1.341   8.765
28226WAT      O84919   4.858   3.299   3.888
28226WAT     H184920   4.860   3.200   3.898
28226WAT     H284921   4.893   3.341   3.972
28227WAT      O84922   8.080   2.921   4.169
28227WAT     H184923   8.128   2.872   4.241
28227WAT     H284924   8.079   3.019   4.191
28228WAT      O84925   1.996   2.013   0.172
28228WAT     H184926   2.079   1.963   0.147
28228WAT     H284927   1.926   1.949   0.204
28229WAT      O84928   0.953   8.944   3.753
28229WAT     H184929   1.044   8.958   3.714
28229WAT     H284930   0.902   8.880   3.695
28230WAT      O84931   3.781   3.290   0.073
28230WAT     H184932   3.739   3.199   0.076
28230WAT     H284933   3.846   3.299   0.149
28231WAT      O84934   9.395   4.383   6.629
28231WAT     H184935   9.448   4.468   6.624
28231WAT     H284936   9.329   4.381   6.554
28232WAT      O84937   0.175   0.696   9.351
28232WAT     H184938   0.089   0.656   9.318
28232WAT     H284939   0.190   0.784   9.305
28233WAT      O84940   6.541   9.097   7.246
28233WAT     H184941   6.569   9.142   7.331
28233WAT     H284942   6.567   9.001   7.249
28234WAT      O84943   3.616   1.777   3.614
28234WAT     H184944   3.598   1.835   3.535
28234WAT     H284945   3.686   1.709   3.591
28235WAT      O84946   6.472   4.422   0.902
28235WAT     H184947   6.522   4.503   0.872
28235WAT     H284948   6.381   4.422   0.861
28236WAT      O84949   0.467   9.576   4.168
28236WAT     H184950   0.371   9.602   4.178
28236WAT     H284951   0.493   9.578   4.071
28237WAT      O84952   6.229   9.137   3.814
28237WAT     H184953   6.319   9.180   3.825
28237WAT     H284954   6.177   9.147   3.898
28238WAT      O84955   6.574   7.678   3.689
28238WAT     H184956   6.581   7.760   3.745
28238WAT     H284957   6.500   7.621   3.724
28239WAT      O84958   9.282   8.739   1.544
28239WAT     H184959   9.281   8.778   1.636
28239WAT     H284960   9.255   8.643   1.548
28240WAT      O84961   9.351   0.040   8.440
28240WAT     H184962   9.314  -0.049   8.464
28240WAT     H284963   9.448   0.045   8.466
28241WAT      O84964   5.828   4.525   4.906
28241WAT     H184965   5.796   4.507   4.813
28241WAT     H284966   5.863   4.441   4.946
28242WAT      O84967   6.444   0.558   7.389
28242WAT     H184968   6.405   0.643   7.353
28242WAT     H284969   6.474   0.572   7.483
28243WAT      O84970   5.364   1.985   0.853
28243WAT     H184971   5.408   2.075   0.856
28243WAT     H284972   5.434   1.914   0.848
28244WAT      O84973   0.537   2.315   3.761
28244WAT     H184974   0.451   2.269   3.740
28244WAT     H284975   0.535   2.351   3.854
28245WAT      O84976   5.257   4.325   4.501
28245WAT     H184977   5.253   4.310   4.403
28245WAT     H284978   5.285   4.419   4.519
28246WAT      O84979   4.721   0.869   3.290
28246WAT     H184980   4.706   0.879   3.191
28246WAT     H284981   4.793   0.932   3.319
28247WAT      O84982   1.428   6.345   7.083
28247WAT     H184983   1.442   6.313   7.176
28247WAT     H284984   1.476   6.432   7.070
28248WAT      O84985   1.837   0.340   3.530
28248WAT     H184986   1.923   0.334   3.581
28248WAT     H284987   1.761   0.312   3.590
28249WAT      O84988   1.238   6.273   3.793
28249WAT     H184989   1.327   6.236   3.820
28249WAT     H284990   1.192   6.310   3.873
28250WAT      O84991   1.955   9.310   0.763
28250WAT     H184992   1.886   9.348   0.702
28250WAT     H284993   2.044   9.311   0.717
28251WAT      O84994   0.426   8.173   3.366
28251WAT     H184995   0.380   8.253   3.328
28251WAT     H284996   0.520   8.197   3.390
28252WAT      O84997   7.312   8.076   0.058
28252WAT     H184998   7.248   8.138   0.012
28252WAT     H284999   7.384   8.050  -0.007
28253WAT      O85000   6.981   6.742   6.194
28253WAT     H185001   6.897   6.786   6.226
28253WAT     H285002   6.977   6.644   6.212
28254WAT      O85003   4.134   1.296   7.727
28254WAT     H185004   4.199   1.221   7.744
28254WAT     H285005   4.169   1.380   7.768
28255WAT      O85006   8.991   7.793   6.330
28255WAT     H185007   9.086   7.763   6.318
28255WAT     H285008   8.988   7.864   6.401
28256WAT      O85009   3.428   0.497   0.462
28256WAT     H185010   3.495   0.569   0.476
28256WAT     H285011   3.458   0.437   0.387
28257WAT      O85012   9.044   1.377   4.421
28257WAT     H185013   9.076   1.284   4.438
28257WAT     H285014   9.123   1.437   4.410
28258WAT      O85015   7.818   3.306   4.392
28258WAT     H185016   7.754   3.239   4.430
28258WAT     H285017   7.768   3.387   4.362
28259WAT      O85018   9.818   1.887   8.265
28259WAT     H185019   9.720   1.879   8.283
28259WAT     H285020   9.868   1.828   8.328
28260WAT      O85021   8.078   2.325   1.804
28260WAT     H185022   8.165   2.298   1.846
28260WAT     H285023   8.094   2.351   1.708
28261WAT      O85024   4.278   6.462   8.299
28261WAT     H185025   4.268   6.520   8.380
28261WAT     H285026   4.324   6.377   8.325
28262WAT      O85027   7.224   5.213   7.988
28262WAT     H185028   7.321   5.237   7.987
28262WAT     H285029   7.185   5.240   8.076
28263WAT      O85030   9.505   3.852   0.141
28263WAT     H185031   9.498   3.795   0.059
28263WAT     H285032   9.429   3.916   0.143
28264WAT      O85033   6.617   1.874   8.525
28264WAT     H185034   6.714   1.882   8.504
28264WAT     H285035   6.603   1.882   8.624
28265WAT      O85036   0.559   6.557   9.804
28265WAT     H185037   0.478   6.513   9.765
28265WAT     H285038   0.640   6.502   9.782
28266WAT      O85039   2.302   9.251   5.181
28266WAT     H185040   2.303   9.267   5.083
28266WAT     H285041   2.306   9.152   5.198
28267WAT      O85042   1.557   1.147   6.876
28267WAT     H185043   1.475   1.131   6.932
28267WAT     H285044   1.533   1.142   6.779
28268WAT      O85045   8.795   9.232   2.267
28268WAT     H185046   8.706   9.191   2.286
28268WAT     H285047   8.812   9.305   2.332
28269WAT      O85048   9.749   9.762   3.868
28269WAT     H185049   9.662   9.713   3.871
28269WAT     H285050   9.742   9.839   3.806
28270WAT      O85051   9.525   4.181   6.767
28270WAT     H185052   9.469   4.228   6.698
28270WAT     H285053   9.477   4.098   6.797
28271WAT      O85054   0.822   0.958   2.787
28271WAT     H185055   0.776   1.018   2.853
28271WAT     H285056   0.815   0.863   2.817
28272WAT      O85057   8.569   5.732  -0.003
28272WAT     H185058   8.509   5.657  -0.030
28272WAT     H285059   8.580   5.731   0.096
28273WAT      O85060   9.853   8.757   6.482
28273WAT     H185061   9.796   8.803   6.550
28273WAT     H285062   9.939   8.730   6.525
28274WAT      O85063   7.776   7.654   5.603
28274WAT     H185064   7.747   7.575   5.550
28274WAT     H285065   7.804   7.624   5.695
28275WAT      O85066   4.293   2.154   4.123
28275WAT     H185067   4.272   2.252   4.128
28275WAT     H285068   4.274   2.121   4.030
28276WAT      O85069   9.632   6.063   6.917
28276WAT     H185070   9.624   6.139   6.981
28276WAT     H285071   9.558   5.998   6.933
28277WAT      O85072   9.497   0.028   0.791
28277WAT     H185073   9.400   0.022   0.770
28277WAT     H285074   9.536   0.109   0.748
28278WAT      O85075   8.330   1.766   3.361
28278WAT     H185076   8.266   1.771   3.285
28278WAT     H285077   8.387   1.848   3.363
28279WAT      O85078   4.613   1.041   2.038
28279WAT     H185079   4.709   1.040   2.008
28279WAT     H285080   4.601   0.972   2.109
28280WAT      O85081   2.550   7.129   0.400
28280WAT     H185082   2.619   7.179   0.348
28280WAT     H285083   2.516   7.053   0.345
28281WAT      O85084   4.380   1.243   6.914
28281WAT     H185085   4.342   1.272   7.002
28281WAT     H285086   4.394   1.323   6.855
28282WAT      O85087   8.583   3.616   5.182
28282WAT     H185088   8.627   3.528   5.199
28282WAT     H285089   8.619   3.656   5.097
28283WAT      O85090   7.077   8.903   8.548
28283WAT     H185091   6.986   8.929   8.582
28283WAT     H285092   7.088   8.804   8.554
28284WAT      O85093   1.945   2.332   0.690
28284WAT     H185094   1.870   2.306   0.630
28284WAT     H285095   2.013   2.383   0.637
28285WAT      O85096   8.868   8.952   3.012
28285WAT     H185097   8.955   8.988   2.978
28285WAT     H285098   8.853   8.982   3.106
28286WAT      O85099   7.598   2.622   9.797
28286WAT     H185100   7.509   2.666   9.808
28286WAT     H285101   7.625   2.627   9.701
28287WAT      O85102   3.185   9.485   1.703
28287WAT     H185103   3.088   9.495   1.725
28287WAT     H285104   3.195   9.442   1.613
28288WAT      O85105   5.338   1.884   2.564
28288WAT     H185106   5.241   1.904   2.559
28288WAT     H285107   5.390   1.960   2.525
28289WAT      O85108   4.246   1.079   6.040
28289WAT     H185109   4.273   1.091   5.945
28289WAT     H285110   4.286   1.153   6.095
28290WAT      O85111   4.900   8.563   1.363
28290WAT     H185112   4.833   8.612   1.308
28290WAT     H285113   4.929   8.481   1.314
28291WAT      O85114   1.203   1.105   3.551
28291WAT     H185115   1.170   1.152   3.470
28291WAT     H285116   1.147   1.130   3.630
28292WAT      O85117   1.395   0.240   4.844
28292WAT     H185118   1.420   0.239   4.940
28292WAT     H285119   1.477   0.231   4.787
28293WAT      O85120   6.269   5.273   1.017
28293WAT     H185121   6.208   5.206   1.060
28293WAT     H285122   6.346   5.225   0.974
28294WAT      O85123   0.110   4.098   8.862
28294WAT     H185124   0.125   4.016   8.916
28294WAT     H285125   0.049   4.078   8.785
28295WAT      O85126   9.866   6.360   5.485
28295WAT     H185127   9.871   6.326   5.578
28295WAT     H285128   9.930   6.436   5.473
28296WAT      O85129   9.072   7.825   5.847
28296WAT     H185130   9.159   7.840   5.799
28296WAT     H285131   9.028   7.744   5.811
28297WAT      O85132   4.047   8.966   1.453
28297WAT     H185133   4.019   8.871   1.449
28297WAT     H285134   3.966   9.025   1.447
28298WAT      O85135   0.797   6.463   9.707
28298WAT     H185136   0.862   6.393   9.738
28298WAT     H285137   0.766   6.442   9.614
28299WAT      O85138   7.956   8.080   0.480
28299WAT     H185139   7.970   7.981   0.477
28299WAT     H285140   7.869   8.103   0.438
28300WAT      O85141   8.643   3.766   5.386
28300WAT     H185142   8.617   3.714   5.305
28300WAT     H285143   8.577   3.749   5.460
28301WAT      O85144   8.928   3.984   8.169
28301WAT     H185145   8.938   3.894   8.127
28301WAT     H285146   8.868   3.977   8.249
28302WAT      O85147   1.486   7.472   9.705
28302WAT     H185148   1.528   7.557   9.675
28302WAT     H285149   1.424   7.490   9.781
28303WAT      O85150   8.877   1.433   7.652
28303WAT     H185151   8.890   1.523   7.692
28303WAT     H285152   8.797   1.434   7.591
28304WAT      O85153   7.379   0.526   0.185
28304WAT     H185154   7.424   0.456   0.129
28304WAT     H285155   7.340   0.597   0.126
28305WAT      O85156   1.390   3.129   9.746
28305WAT     H185157   1.390   3.182   9.661
28305WAT     H285158   1.332   3.175   9.813
28306WAT      O85159   9.649   5.451   0.074
28306WAT     H185160   9.590   5.392   0.128
28306WAT     H285161   9.602   5.477  -0.011
28307WAT      O85162   3.920   2.497   8.780
28307WAT     H185163   3.922   2.482   8.681
28307WAT     H285164   3.855   2.435   8.822
28308WAT      O85165   1.931   0.493   9.328
28308WAT     H185166   2.008   0.433   9.348
28308WAT     H285167   1.888   0.465   9.242
28309WAT      O85168   5.832   1.551   4.404
28309WAT     H185169   5.749   1.605   4.391
28309WAT     H285170   5.821   1.461   4.363
28310WAT      O85171   4.403   6.868   4.718
28310WAT     H185172   4.417   6.795   4.785
28310WAT     H285173   4.412   6.832   4.626
28311WAT      O85174   3.780   5.340   7.006
28311WAT     H185175   3.715   5.288   7.061
28311WAT     H285176   3.768   5.317   6.909
28312WAT      O85177   4.145   5.715   0.307
28312WAT     H185178   4.087   5.693   0.385
28312WAT     H285179   4.214   5.643   0.295
28313WAT      O85180   9.233   1.174   1.256
28313WAT     H185181   9.297   1.113   1.208
28313WAT     H285182   9.140   1.142   1.240
28314WAT      O85183   3.934   6.997   6.956
28314WAT     H185184   3.852   6.986   6.899
28314WAT     H285185   3.972   6.907   6.978
28315WAT      O85186   6.613   2.051   2.314
28315WAT     H185187   6.660   1.963   2.312
28315WAT     H285188   6.557   2.058   2.396
28316WAT      O85189   1.519   6.128   6.222
28316WAT     H185190   1.444   6.097   6.282
28316WAT     H285191   1.582   6.185   6.275
28317WAT      O85192   9.081   2.070   9.669
28317WAT     H185193   9.098   2.155   9.720
28317WAT     H285194   9.024   2.089   9.589
28318WAT      O85195   4.650   2.195   2.192
28318WAT     H185196   4.732   2.191   2.135
28318WAT     H285197   4.649   2.281   2.243
28319WAT      O85198   5.422   3.622   4.206
28319WAT     H185199   5.477   3.701   4.234
28319WAT     H285200   5.333   3.653   4.174
28320WAT      O85201   6.134   9.523   8.801
28320WAT     H185202   6.065   9.585   8.766
28320WAT     H285203   6.218   9.573   8.821
28321WAT      O85204   6.308   7.991   1.451
28321WAT     H185205   6.250   7.912   1.471
28321WAT     H285206   6.251   8.068   1.422
28322WAT      O85207   3.368   5.297   6.648
28322WAT     H185208   3.293   5.241   6.683
28322WAT     H285209   3.378   5.379   6.705
28323WAT      O85210   6.325   3.505   2.235
28323WAT     H185211   6.319   3.571   2.161
28323WAT     H285212   6.280   3.542   2.317
28324WAT      O85213   4.169   0.464   1.961
28324WAT     H185214   4.105   0.510   1.901
28324WAT     H285215   4.120   0.425   2.040
28325WAT      O85216   5.534   0.188   5.891
28325WAT     H185217   5.468   0.169   5.818
28325WAT     H285218   5.515   0.131   5.970
28326WAT      O85219   8.388   3.320   8.976
28326WAT     H185220   8.402   3.222   8.985
28326WAT     H285221   8.334   3.353   9.053
28327WAT      O85222   1.700   6.035   7.770
28327WAT     H185223   1.658   6.109   7.821
28327WAT     H285224   1.659   6.030   7.678
28328WAT      O85225   2.420   6.016   8.150
28328WAT     H185226   2.431   6.112   8.123
28328WAT     H285227   2.475   5.959   8.089
28329WAT      O85228   9.012   4.960   0.082
28329WAT     H185229   9.097   4.909   0.068
28329WAT     H285230   9.034   5.056   0.098
28330WAT      O85231   3.426   6.309   1.430
28330WAT     H185232   3.442   6.271   1.338
28330WAT     H285233   3.351   6.374   1.427
28331WAT      O85234   6.711   2.376   9.103
28331WAT     H185235   6.770   2.384   9.183
28331WAT     H285236   6.748   2.432   9.029
28332WAT      O85237   4.599   8.495   5.071
28332WAT     H185238   4.583   8.539   5.159
28332WAT     H285239   4.691   8.517   5.039
28333WAT      O85240   5.479   2.701   8.282
28333WAT     H185241   5.477   2.796   8.250
28333WAT     H285242   5.489   2.700   8.382
28334WAT      O85243   9.475   5.324   3.123
28334WAT     H185244   9.436   5.416   3.118
28334WAT     H285245   9.538   5.310   3.047
28335WAT      O85246   4.097   5.807   6.765
28335WAT     H185247   4.032   5.732   6.753
28335WAT     H285248   4.149   5.821   6.681
28336WAT      O85249   6.132   8.706   4.449
28336WAT     H185250   6.173   8.728   4.537
28336WAT     H285251   6.088   8.788   4.411
28337WAT      O85252   8.865   8.307   4.050
28337WAT     H185253   8.819   8.261   4.126
28337WAT     H285254   8.802   8.373   4.009
28338WAT      O85255   9.821   3.714   0.031
28338WAT     H185256   9.748   3.655   0.065
28338WAT     H285257   9.782   3.783  -0.030
28339WAT      O85258   9.307   3.663   3.397
28339WAT     H185259   9.237   3.696   3.460
28339WAT     H285260   9.393   3.650   3.447
28340WAT      O85261   5.642   4.087   8.532
28340WAT     H185262   5.640   4.169   8.590
28340WAT     H285263   5.735   4.052   8.526
28341WAT      O85264   7.453   4.453   4.215
28341WAT     H185265   7.512   4.534   4.206
28341WAT     H285266   7.507   4.376   4.250
28342WAT      O85267   7.303   4.349   2.274
28342WAT     H185268   7.248   4.386   2.350
28342WAT     H285269   7.342   4.424   2.222
28343WAT      O85270   8.284   5.743   3.527
28343WAT     H185271   8.301   5.789   3.439
28343WAT     H285272   8.242   5.654   3.510
28344WAT      O85273   7.422   5.912   8.786
28344WAT     H185274   7.376   5.891   8.700
28344WAT     H285275   7.437   5.828   8.837
28345WAT      O85276   8.566   6.253   7.168
28345WAT     H185277   8.476   6.255   7.211
28345WAT     H285278   8.579   6.336   7.114
28346WAT      O85279   3.262   9.510   2.860
28346WAT     H185280   3.232   9.583   2.921
28346WAT     H285281   3.199   9.433   2.866
28347WAT      O85282   2.349   2.724   3.509
28347WAT     H185283   2.269   2.697   3.563
28347WAT     H285284   2.372   2.819   3.529
28348WAT      O85285   4.296   7.793   7.137
28348WAT     H185286   4.343   7.739   7.067
28348WAT     H285287   4.364   7.836   7.197
28349WAT      O85288   8.067   4.578   9.029
28349WAT     H185289   8.089   4.495   9.079
28349WAT     H285290   8.145   4.603   8.970
28350WAT      O85291   8.976   2.478   5.979
28350WAT     H185292   9.045   2.514   6.043
28350WAT     H285293   8.914   2.418   6.028
28351WAT      O85294   9.060   6.983   6.764
28351WAT     H185295   9.127   6.917   6.799
28351WAT     H285296   9.006   6.940   6.691
28352WAT      O85297   4.397   9.265   1.494
28352WAT     H185298   4.315   9.235   1.444
28352WAT     H285299   4.478   9.223   1.453
28353WAT      O85300   1.228   4.269   6.165
28353WAT     H185301   1.141   4.224   6.143
28353WAT     H285302   1.241   4.271   6.264
28354WAT      O85303   5.101   4.101   6.885
28354WAT     H185304   5.170   4.061   6.825
28354WAT     H285305   5.010   4.092   6.843
28355WAT      O85306   3.800   1.601   5.462
28355WAT     H185307   3.855   1.673   5.421
28355WAT     H285308   3.742   1.558   5.393
28356WAT      O85309   9.443   4.562   0.248
28356WAT     H185310   9.388   4.523   0.175
28356WAT     H285311   9.539   4.563   0.220
28357WAT      O85312   0.182   6.570   5.970
28357WAT     H185313   0.230   6.649   5.931
28357WAT     H285314   0.208   6.488   5.921
28358WAT      O85315   4.959   9.733   2.400
28358WAT     H185316   4.893   9.772   2.465
28358WAT     H285317   4.990   9.805   2.338
28359WAT      O85318   8.019   4.708   8.338
28359WAT     H185319   7.992   4.724   8.433
28359WAT     H285320   8.042   4.795   8.294
28360WAT      O85321   7.063   4.609   4.806
28360WAT     H185322   7.150   4.655   4.792
28360WAT     H285323   6.994   4.677   4.832
28361WAT      O85324   7.294   5.030   3.757
28361WAT     H185325   7.258   5.089   3.685
28361WAT     H285326   7.219   4.995   3.812
28362WAT      O85327   5.642   5.161   1.624
28362WAT     H185328   5.735   5.196   1.627
28362WAT     H285329   5.590   5.198   1.702
28363WAT      O85330   6.651   6.452   8.858
28363WAT     H185331   6.635   6.508   8.939
28363WAT     H285332   6.568   6.448   8.803
28364WAT      O85333   8.516   0.653   1.840
28364WAT     H185334   8.468   0.696   1.916
28364WAT     H285335   8.475   0.563   1.821
28365WAT      O85336   9.746   8.936   4.517
28365WAT     H185337   9.765   8.913   4.613
28365WAT     H285338   9.753   9.035   4.505
28366WAT      O85339   4.174   2.341   8.208
28366WAT     H185340   4.197   2.244   8.209
28366WAT     H285341   4.208   2.384   8.291
28367WAT      O85342   8.146   0.032   6.364
28367WAT     H185343   8.223  -0.026   6.387
28367WAT     H285344   8.152   0.118   6.415
28368WAT      O85345   8.751   1.700   4.936
28368WAT     H185346   8.770   1.688   5.034
28368WAT     H285347   8.835   1.688   4.884
28369WAT      O85348   3.209   4.907   2.338
28369WAT     H185349   3.208   5.001   2.373
28369WAT     H285350   3.233   4.844   2.411
28370WAT      O85351   4.141   0.730   1.351
28370WAT     H185352   4.223   0.697   1.304
28370WAT     H285353   4.166   0.797   1.421
28371WAT      O85354   5.801   4.973   6.689
28371WAT     H185355   5.802   4.880   6.723
28371WAT     H285356   5.882   5.022   6.723
28372WAT      O85357   1.125   3.386   0.042
28372WAT     H185358   1.206   3.376   0.100
28372WAT     H285359   1.052   3.430   0.095
28373WAT      O85360   1.379   7.176   7.964
28373WAT     H185361   1.443   7.252   7.977
28373WAT     H285362   1.322   7.195   7.884
28374WAT      O85363   9.132   7.190   5.894
28374WAT     H185364   9.044   7.237   5.884
28374WAT     H285365   9.177   7.184   5.805
28375WAT      O85366   8.677   8.327   5.810
28375WAT     H185367   8.601   8.287   5.759
28375WAT     H285368   8.652   8.419   5.840
28376WAT      O85369   2.213   5.968   4.587
28376WAT     H185370   2.262   5.890   4.625
28376WAT     H285371   2.255   6.053   4.621
28377WAT      O85372   3.646   0.564   7.495
28377WAT     H185373   3.672   0.638   7.556
28377WAT     H285374   3.572   0.594   7.435
28378WAT      O85375   5.079   3.036   7.897
28378WAT     H185376   5.153   2.995   7.949
28378WAT     H285377   5.096   3.024   7.800
28379WAT      O85378   3.195   7.982   6.796
28379WAT     H185379   3.196   8.005   6.698
28379WAT     H285380   3.187   7.883   6.806
28380WAT      O85381   1.167   1.396   1.198
28380WAT     H185382   1.144   1.465   1.267
28380WAT     H285383   1.139   1.306   1.229
28381WAT      O85384   1.250   5.589   4.205
28381WAT     H185385   1.150   5.583   4.200
28381WAT     H285386   1.283   5.532   4.280
28382WAT      O85387   7.890   6.269   7.689
28382WAT     H185388   7.916   6.318   7.606
28382WAT     H285389   7.835   6.189   7.665
28383WAT      O85390   5.826   6.118   9.353
28383WAT     H185391   5.794   6.042   9.410
28383WAT     H285392   5.817   6.204   9.403
28384WAT      O85393   2.433   9.379   1.149
28384WAT     H185394   2.532   9.385   1.138
28384WAT     H285395   2.407   9.406   1.242
28385WAT      O85396   6.814   2.233   9.569
28385WAT     H185397   6.815   2.231   9.669
28385WAT     H285398   6.840   2.143   9.534
28386WAT      O85399   4.222   3.247   6.703
28386WAT     H185400   4.138   3.298   6.721
28386WAT     H285401   4.300   3.298   6.740
28387WAT      O85402   0.616   3.548   8.251
28387WAT     H185403   0.570   3.465   8.283
28387WAT     H285404   0.692   3.524   8.192
28388WAT      O85405   1.569   1.912   9.249
28388WAT     H185406   1.667   1.908   9.265
28388WAT     H285407   1.521   1.887   9.333
28389WAT      O85408   1.720   0.589   4.092
28389WAT     H185409   1.738   0.568   3.996
28389WAT     H285410   1.630   0.631   4.101
28390WAT      O85411   8.361   6.427   3.707
28390WAT     H185412   8.425   6.400   3.636
28390WAT     H285413   8.276   6.375   3.697
28391WAT      O85414   9.637   5.822   0.173
28391WAT     H185415   9.709   5.753   0.183
28391WAT     H285416   9.554   5.792   0.220
28392WAT      O85417   7.638   5.800   8.469
28392WAT     H185418   7.662   5.871   8.535
28392WAT     H285419   7.553   5.825   8.423
28393WAT      O85420   2.773   9.157   3.185
28393WAT     H185421   2.691   9.171   3.129
28393WAT     H285422   2.811   9.246   3.210
28394WAT      O85423   0.212   3.667   5.347
28394WAT     H185424   0.262   3.662   5.434
28394WAT     H285425   0.264   3.723   5.282
28395WAT      O85426   8.924   2.425   6.925
28395WAT     H185427   8.852   2.357   6.911
28395WAT     H285428   8.988   2.423   6.848
28396WAT      O85429   5.635   8.423   2.881
28396WAT     H185430   5.644   8.521   2.898
28396WAT     H285431   5.601   8.377   2.963
28397WAT      O85432   3.531   2.349   9.084
28397WAT     H185433   3.533   2.407   9.166
28397WAT     H285434   3.526   2.253   9.111
28398WAT      O85435   7.409   8.000   8.076
28398WAT     H185436   7.479   8.061   8.038
28398WAT     H285437   7.355   8.051   8.143
28399WAT      O85438   2.531   7.454   8.917
28399WAT     H185439   2.508   7.460   8.820
28399WAT     H285440   2.458   7.406   8.965
28400WAT      O85441   0.025   7.351   3.243
28400WAT     H185442  -0.015   7.261   3.223
28400WAT     H285443   0.025   7.406   3.159
28401WAT      O85444   8.315   4.605   4.014
28401WAT     H185445   8.241   4.634   3.952
28401WAT     H285446   8.367   4.532   3.970
28402WAT      O85447   8.464   2.516   1.193
28402WAT     H185448   8.395   2.543   1.126
28402WAT     H285449   8.536   2.586   1.196
28403WAT      O85450   5.989   6.491   9.525
28403WAT     H185451   5.903   6.441   9.537
28403WAT     H285452   5.973   6.589   9.539
28404WAT      O85453   4.486   3.290   4.335
28404WAT     H185454   4.471   3.192   4.347
28404WAT     H285455   4.495   3.334   4.424
28405WAT      O85456   7.664   4.230   6.251
28405WAT     H185457   7.691   4.282   6.332
28405WAT     H285458   7.710   4.141   6.252
28406WAT      O85459   9.721   9.290   8.338
28406WAT     H185460   9.646   9.323   8.396
28406WAT     H285461   9.776   9.224   8.390
28407WAT      O85462   1.700   4.909   6.996
28407WAT     H185463   1.725   4.825   7.043
28407WAT     H285464   1.657   4.887   6.909
28408WAT      O85465   2.857   2.353   4.576
28408WAT     H185466   2.798   2.406   4.637
28408WAT     H285467   2.878   2.265   4.618
28409WAT      O85468   9.445   0.497   0.715
28409WAT     H185469   9.479   0.591   0.707
28409WAT     H285470   9.495   0.451   0.788
28410WAT      O85471   0.021   6.638   3.101
28410WAT     H185472   0.044   6.543   3.125
28410WAT     H285473  -0.023   6.639   3.011
28411WAT      O85474   7.282   0.677   6.255
28411WAT     H185475   7.375   0.643   6.267
28411WAT     H285476   7.284   0.764   6.205
28412WAT      O85477   8.010   7.681   3.846
28412WAT     H185478   8.021   7.585   3.870
28412WAT     H285479   7.928   7.717   3.890
28413WAT      O85480   7.036   3.912   4.698
28413WAT     H185481   7.026   3.821   4.738
28413WAT     H285482   7.108   3.962   4.746
28414WAT      O85483   5.120   8.564   8.336
28414WAT     H185484   5.202   8.521   8.299
28414WAT     H285485   5.133   8.584   8.433
28415WAT      O85486   2.584   7.171   5.573
28415WAT     H185487   2.547   7.080   5.591
28415WAT     H285488   2.520   7.223   5.517
28416WAT      O85489   9.754   2.002   4.375
28416WAT     H185490   9.723   2.086   4.331
28416WAT     H285491   9.751   2.015   4.475
28417WAT      O85492   4.022   5.243   8.084
28417WAT     H185493   3.974   5.190   8.153
28417WAT     H285494   4.031   5.190   8.000
28418WAT      O85495   1.562   4.161   3.639
28418WAT     H185496   1.644   4.105   3.624
28418WAT     H285497   1.587   4.244   3.687
28419WAT      O85498   1.479   0.707   4.110
28419WAT     H185499   1.443   0.790   4.153
28419WAT     H285500   1.450   0.704   4.014
28420WAT      O85501   3.137   3.393   2.807
28420WAT     H185502   3.140   3.308   2.858
28420WAT     H285503   3.143   3.471   2.870
28421WAT      O85504   5.339   1.890   3.127
28421WAT     H185505   5.369   1.916   3.219
28421WAT     H285506   5.239   1.893   3.122
28422WAT      O85507   8.617   2.542   2.082
28422WAT     H185508   8.695   2.532   2.144
28422WAT     H285509   8.537   2.569   2.134
28423WAT      O85510   3.518   1.628   7.991
28423WAT     H185511   3.608   1.612   8.032
28423WAT     H285512   3.527   1.692   7.915
28424WAT      O85513   0.291   9.043   7.698
28424WAT     H185514   0.354   9.120   7.689
28424WAT     H285515   0.295   9.008   7.792
28425WAT      O85516   9.215   8.200   3.033
28425WAT     H185517   9.195   8.117   2.980
28425WAT     H285518   9.241   8.274   2.970
28426WAT      O85519   3.849   7.943   6.627
28426WAT     H185520   3.943   7.951   6.663
28426WAT     H285521   3.796   8.022   6.656
28427WAT      O85522   6.962   2.664   2.327
28427WAT     H185523   6.906   2.593   2.369
28427WAT     H285524   6.904   2.724   2.273
28428WAT      O85525   8.379   5.960   8.084
28428WAT     H185526   8.316   5.884   8.094
28428WAT     H285527   8.421   5.957   7.993
28429WAT      O85528   2.015   5.572   8.255
28429WAT     H185529   2.102   5.601   8.216
28429WAT     H285530   1.945   5.569   8.183
28430WAT      O85531   9.575   6.461   3.922
28430WAT     H185532   9.615   6.411   3.999
28430WAT     H285533   9.555   6.555   3.950
28431WAT      O85534   2.300   2.210   8.081
28431WAT     H185535   2.326   2.114   8.074
28431WAT     H285536   2.349   2.253   8.157
28432WAT      O85537   7.351   7.263   9.422
28432WAT     H185538   7.255   7.257   9.449
28432WAT     H285539   7.358   7.280   9.323
28433WAT      O85540   8.861   9.839   6.011
28433WAT     H185541   8.960   9.827   6.013
28433WAT     H285542   8.837   9.926   6.055
28434WAT      O85543   8.664   8.239   0.477
28434WAT     H185544   8.588   8.176   0.491
28434WAT     H285545   8.736   8.219   0.543
28435WAT      O85546   2.328   4.033   9.010
28435WAT     H185547   2.418   3.992   9.025
28435WAT     H285548   2.283   4.049   9.098
28436WAT      O85549   4.988   5.952   6.616
28436WAT     H185550   5.005   5.994   6.528
28436WAT     H285551   4.986   6.022   6.687
28437WAT      O85552   9.285   7.385   0.991
28437WAT     H185553   9.384   7.392   0.985
28437WAT     H285554   9.260   7.320   1.063
28438WAT      O85555   5.241   0.985   2.529
28438WAT     H185556   5.338   0.973   2.551
28438WAT     H285557   5.226   1.078   2.496
28439WAT      O85558   6.416   1.629   7.643
28439WAT     H185559   6.402   1.680   7.728
28439WAT     H285560   6.487   1.560   7.658
28440WAT      O85561   8.173   3.378   2.905
28440WAT     H185562   8.237   3.381   2.828
28440WAT     H285563   8.219   3.338   2.984
28441WAT      O85564   6.883   3.314   0.945
28441WAT     H185565   6.904   3.308   0.848
28441WAT     H285566   6.851   3.407   0.967
28442WAT      O85567   2.405   9.537   9.391
28442WAT     H185568   2.350   9.454   9.389
28442WAT     H285569   2.416   9.568   9.485
28443WAT      O85570   0.995   5.045   7.824
28443WAT     H185571   0.978   5.056   7.922
28443WAT     H285572   0.978   5.131   7.777
28444WAT      O85573   7.424   6.596   6.528
28444WAT     H185574   7.331   6.614   6.497
28444WAT     H285575   7.430   6.610   6.627
28445WAT      O85576   5.454   9.005   2.881
28445WAT     H185577   5.405   9.091   2.891
28445WAT     H285578   5.389   8.932   2.858
28446WAT      O85579   7.336   3.207   0.270
28446WAT     H185580   7.366   3.293   0.230
28446WAT     H285581   7.387   3.131   0.228
28447WAT      O85582   3.873   4.526   7.329
28447WAT     H185583   3.788   4.556   7.285
28447WAT     H285584   3.854   4.447   7.388
28448WAT      O85585   1.989   1.101   4.514
28448WAT     H185586   2.082   1.089   4.477
28448WAT     H285587   1.947   1.011   4.525
28449WAT      O85588   3.099   8.824   4.625
28449WAT     H185589   3.121   8.727   4.635
28449WAT     H285590   3.022   8.835   4.561
28450WAT      O85591   6.971   5.925   6.306
28450WAT     H185592   6.937   6.016   6.332
28450WAT     H285593   6.915   5.855   6.349
28451WAT      O85594   8.842   2.663   8.338
28451WAT     H185595   8.758   2.650   8.286
28451WAT     H285596   8.820   2.693   8.431
28452WAT      O85597   7.651   1.652   7.933
28452WAT     H185598   7.609   1.743   7.931
28452WAT     H285599   7.690   1.632   7.843
28453WAT      O85600   0.375   8.381   4.410
28453WAT     H185601   0.347   8.422   4.324
28453WAT     H285602   0.305   8.317   4.441
28454WAT      O85603   7.760   7.225   0.210
28454WAT     H185604   7.664   7.244   0.230
28454WAT     H285605   7.788   7.276   0.129
28455WAT      O85606   6.319   0.802   4.915
28455WAT     H185607   6.224   0.809   4.947
28455WAT     H285608   6.376   0.865   4.967
28456WAT      O85609   8.163   6.104   9.127
28456WAT     H185610   8.181   6.098   9.225
28456WAT     H285611   8.194   6.193   9.093
28457WAT      O85612   1.852   8.710   8.350
28457WAT     H185613   1.952   8.719   8.343
28457WAT     H285614   1.822   8.635   8.291
28458WAT      O85615   3.539   5.225   8.604
28458WAT     H185616   3.527   5.298   8.537
28458WAT     H285617   3.450   5.199   8.641
28459WAT      O85618   9.160   4.482   2.971
28459WAT     H185619   9.117   4.395   2.996
28459WAT     H285620   9.111   4.557   3.016
28460WAT      O85621   8.303   2.150   4.207
28460WAT     H185622   8.249   2.156   4.123
28460WAT     H285623   8.390   2.106   4.187
28461WAT      O85624   0.741   2.988   6.708
28461WAT     H185625   0.686   3.042   6.643
28461WAT     H285626   0.773   2.905   6.664
28462WAT      O85627   3.420   4.433   3.345
28462WAT     H185628   3.408   4.336   3.320
28462WAT     H285629   3.504   4.443   3.399
28463WAT      O85630   2.729   7.572   0.726
28463WAT     H185631   2.756   7.657   0.770
28463WAT     H285632   2.741   7.580   0.627
28464WAT      O85633   7.235   8.420   3.468
28464WAT     H185634   7.179   8.415   3.385
28464WAT     H285635   7.331   8.432   3.443
28465WAT      O85636   2.996   8.250   3.298
28465WAT     H185637   2.967   8.289   3.210
28465WAT     H285638   3.055   8.171   3.281
28466WAT      O85639   6.727   7.463   6.040
28466WAT     H185640   6.654   7.409   6.082
28466WAT     H285641   6.761   7.530   6.107
28467WAT      O85642   9.281   0.104   3.553
28467WAT     H185643   9.326   0.189   3.527
28467WAT     H285644   9.187   0.104   3.518
28468WAT      O85645   2.448   9.023   1.201
28468WAT     H185646   2.348   9.025   1.192
28468WAT     H285647   2.489   9.070   1.123
28469WAT      O85648   9.258   2.785   4.327
28469WAT     H185649   9.186   2.717   4.313
28469WAT     H285650   9.346   2.738   4.334
28470WAT      O85651   4.114   9.380   3.395
28470WAT     H185652   4.036   9.433   3.362
28470WAT     H285653   4.160   9.429   3.469
28471WAT      O85654   3.670   8.710   0.332
28471WAT     H185655   3.598   8.769   0.369
28471WAT     H285656   3.695   8.741   0.240
28472WAT      O85657   9.235   2.838   7.931
28472WAT     H185658   9.315   2.833   7.871
28472WAT     H285659   9.216   2.934   7.953
28473WAT      O85660   0.205   6.567   0.222
28473WAT     H185661   0.128   6.619   0.259
28473WAT     H285662   0.172   6.481   0.183
28474WAT      O85663   5.372   9.537   8.916
28474WAT     H185664   5.363   9.598   8.995
28474WAT     H285665   5.370   9.591   8.832
28475WAT      O85666   5.563   9.704   6.385
28475WAT     H185667   5.538   9.766   6.459
28475WAT     H285668   5.480   9.664   6.345
28476WAT      O85669   0.152   1.008   0.876
28476WAT     H185670   0.152   0.974   0.970
28476WAT     H285671   0.219   1.081   0.866
28477WAT      O85672   1.496   4.017   6.757
28477WAT     H185673   1.537   3.956   6.689
28477WAT     H285674   1.508   3.979   6.848
28478WAT      O85675   3.125   9.073   3.448
28478WAT     H185676   3.180   8.992   3.467
28478WAT     H285677   3.035   9.064   3.491
28479WAT      O85678   7.459   3.395   6.316
28479WAT     H185679   7.435   3.470   6.254
28479WAT     H285680   7.476   3.312   6.263
28480WAT      O85681   1.706   7.581   3.774
28480WAT     H185682   1.675   7.499   3.725
28480WAT     H285683   1.805   7.578   3.786
28481WAT      O85684   5.898   8.022   7.598
28481WAT     H185685   5.941   8.098   7.647
28481WAT     H285686   5.862   8.054   7.511
28482WAT      O85687   0.320   7.249   2.403
28482WAT     H185688   0.342   7.174   2.466
28482WAT     H285689   0.257   7.216   2.333
28483WAT      O85690   8.152   4.648   3.377
28483WAT     H185691   8.236   4.605   3.410
28483WAT     H285692   8.073   4.595   3.409
28484WAT      O85693   5.277   0.073   1.431
28484WAT     H185694   5.234   0.101   1.517
28484WAT     H285695   5.293   0.154   1.374
28485WAT      O85696   8.774   9.635   0.289
28485WAT     H185697   8.743   9.653   0.195
28485WAT     H285698   8.863   9.589   0.287
28486WAT      O85699   3.729   1.675   4.672
28486WAT     H185700   3.760   1.714   4.759
28486WAT     H285701   3.739   1.576   4.674
28487WAT      O85702   4.849   7.941   8.445
28487WAT     H185703   4.779   8.000   8.485
28487WAT     H285704   4.909   7.907   8.517
28488WAT      O85705   2.634   5.841   2.309
28488WAT     H185706   2.720   5.792   2.319
28488WAT     H285707   2.631   5.887   2.220
28489WAT      O85708   5.376   8.028   5.310
28489WAT     H185709   5.305   8.088   5.274
28489WAT     H285710   5.391   7.952   5.248
28490WAT      O85711   0.762   3.282   4.712
28490WAT     H185712   0.695   3.337   4.760
28490WAT     H285713   0.717   3.231   4.639
28491WAT      O85714   5.320   3.041   6.238
28491WAT     H185715   5.317   3.072   6.143
28491WAT     H285716   5.274   3.107   6.297
28492WAT      O85717   0.834   2.936   1.305
28492WAT     H185718   0.763   2.870   1.282
28492WAT     H285719   0.801   3.028   1.286
28493WAT      O85720   8.147   7.947   8.775
28493WAT     H185721   8.093   8.023   8.739
28493WAT     H285722   8.145   7.949   8.875
28494WAT      O85723   7.559   4.565   7.701
28494WAT     H185724   7.574   4.661   7.679
28494WAT     H285725   7.569   4.551   7.799
28495WAT      O85726   6.506   0.712   0.828
28495WAT     H185727   6.439   0.776   0.791
28495WAT     H285728   6.476   0.681   0.919
28496WAT      O85729   1.752   9.360   6.886
28496WAT     H185730   1.757   9.391   6.791
28496WAT     H285731   1.817   9.412   6.942
28497WAT      O85732   3.981   1.734   0.469
28497WAT     H185733   4.080   1.733   0.455
28497WAT     H285734   3.953   1.819   0.512
28498WAT      O85735   7.400   8.010   0.758
28498WAT     H185736   7.307   7.973   0.763
28498WAT     H285737   7.446   7.995   0.846
28499WAT      O85738   1.872   4.481   3.758
28499WAT     H185739   1.774   4.478   3.738
28499WAT     H285740   1.886   4.510   3.853
28500WAT      O85741   8.380   7.526   0.050
28500WAT     H185742   8.343   7.521  -0.042
28500WAT     H285743   8.477   7.501   0.050
28501WAT      O85744   6.768   0.555   3.938
28501WAT     H185745   6.806   0.594   3.854
28501WAT     H285746   6.700   0.486   3.914
28502WAT      O85747   2.486   2.282   5.933
28502WAT     H185748   2.406   2.334   5.903
28502WAT     H285749   2.539   2.337   5.999
28503WAT      O85750   0.922   4.006   7.771
28503WAT     H185751   0.833   3.961   7.773
28503WAT     H285752   0.974   3.973   7.692
28504WAT      O85753   0.023   9.700   6.910
28504WAT     H185754  -0.042   9.725   6.838
28504WAT     H285755   0.093   9.770   6.917
28505WAT      O85756   8.669   0.936   0.976
28505WAT     H185757   8.598   1.005   0.963
28505WAT     H285758   8.743   0.951   0.910
28506WAT      O85759   1.523   0.650   5.617
28506WAT     H185760   1.558   0.683   5.704
28506WAT     H285761   1.593   0.598   5.569
28507WAT      O85762   5.287   6.693   7.373
28507WAT     H185763   5.277   6.746   7.288
28507WAT     H285764   5.197   6.684   7.417
28508WAT      O85765   1.240   0.525   0.503
28508WAT     H185766   1.304   0.548   0.429
28508WAT     H285767   1.188   0.443   0.477
28509WAT      O85768   5.908   5.729   7.232
28509WAT     H185769   5.812   5.710   7.211
28509WAT     H285770   5.930   5.824   7.209
28510WAT      O85771   9.740   6.715   7.269
28510WAT     H185772   9.827   6.751   7.233
28510WAT     H285773   9.706   6.775   7.341
28511WAT      O85774   7.142   4.891   1.751
28511WAT     H185775   7.137   4.876   1.850
28511WAT     H285776   7.228   4.853   1.717
28512WAT      O85777   6.269   3.674   9.230
28512WAT     H185778   6.311   3.650   9.143
28512WAT     H285779   6.179   3.715   9.214
28513WAT      O85780   0.124   3.067   2.717
28513WAT     H185781   0.142   3.100   2.625
28513WAT     H285782   0.177   2.984   2.734
28514WAT      O85783   1.650   9.431   5.133
28514WAT     H185784   1.658   9.340   5.174
28514WAT     H285785   1.623   9.422   5.037
28515WAT      O85786   1.033   3.288   2.115
28515WAT     H185787   0.985   3.371   2.143
28515WAT     H285788   1.030   3.221   2.189
28516WAT      O85789   8.313   6.582   8.122
28516WAT     H185790   8.290   6.656   8.186
28516WAT     H285791   8.262   6.500   8.147
28517WAT      O85792   7.390   1.258   5.340
28517WAT     H185793   7.305   1.208   5.326
28517WAT     H285794   7.438   1.223   5.420
28518WAT      O85795   2.343   7.825   6.517
28518WAT     H185796   2.267   7.822   6.452
28518WAT     H285797   2.429   7.814   6.468
28519WAT      O85798   1.947   2.440   4.383
28519WAT     H185799   2.007   2.517   4.404
28519WAT     H285800   2.000   2.367   4.341
28520WAT      O85801   6.292   6.836   7.204
28520WAT     H185802   6.194   6.842   7.187
28520WAT     H285803   6.331   6.763   7.148
28521WAT      O85804   2.003   5.023   4.271
28521WAT     H185805   2.081   5.080   4.299
28521WAT     H285806   1.922   5.052   4.322
28522WAT      O85807   2.583   4.545   0.781
28522WAT     H185808   2.524   4.517   0.705
28522WAT     H285809   2.678   4.539   0.753
28523WAT      O85810   6.709   1.836   0.180
28523WAT     H185811   6.678   1.770   0.249
28523WAT     H285812   6.654   1.919   0.186
28524WAT      O85813   7.523   2.347   5.580
28524WAT     H185814   7.613   2.371   5.544
28524WAT     H285815   7.456   2.346   5.505
28525WAT      O85816   8.045   3.835   4.525
28525WAT     H185817   8.068   3.872   4.615
28525WAT     H285818   8.016   3.908   4.464
28526WAT      O85819   4.843   8.716   0.539
28526WAT     H185820   4.774   8.785   0.559
28526WAT     H285821   4.806   8.649   0.476
28527WAT      O85822   9.310   0.120   4.606
28527WAT     H185823   9.318   0.149   4.510
28527WAT     H285824   9.383   0.054   4.627
28528WAT      O85825   6.547   8.571   0.438
28528WAT     H185826   6.518   8.634   0.365
28528WAT     H285827   6.467   8.543   0.491
28529WAT      O85828   4.669   4.676   1.783
28529WAT     H185829   4.604   4.616   1.736
28529WAT     H285830   4.741   4.704   1.719
28530WAT      O85831   8.226   7.904   4.771
28530WAT     H185832   8.257   7.992   4.737
28530WAT     H285833   8.147   7.918   4.832
28531WAT      O85834   6.124   7.396   6.624
28531WAT     H185835   6.187   7.426   6.696
28531WAT     H285836   6.113   7.469   6.556
28532WAT      O85837   6.125   5.854   8.296
28532WAT     H185838   6.028   5.838   8.317
28532WAT     H285839   6.171   5.890   8.377
28533WAT      O85840   5.524   5.763   8.445
28533WAT     H185841   5.575   5.758   8.359
28533WAT     H285842   5.426   5.768   8.424
28534WAT      O85843   8.815   6.217   1.765
28534WAT     H185844   8.762   6.294   1.731
28534WAT     H285845   8.910   6.225   1.732
28535WAT      O85846   4.119   5.486   2.581
28535WAT     H185847   4.159   5.573   2.556
28535WAT     H285848   4.046   5.462   2.517
28536WAT      O85849   9.632   9.367   8.777
28536WAT     H185850   9.663   9.273   8.793
28536WAT     H285851   9.710   9.429   8.778
28537WAT      O85852   8.566   9.118   2.301
28537WAT     H185853   8.491   9.178   2.330
28537WAT     H285854   8.529   9.033   2.265
28538WAT      O85855   7.774   4.346   6.470
28538WAT     H185856   7.842   4.405   6.425
28538WAT     H285857   7.720   4.401   6.534
28539WAT      O85858   6.459   9.431   1.025
28539WAT     H185859   6.415   9.344   1.004
28539WAT     H285860   6.545   9.414   1.073
28540WAT      O85861   0.552   2.192   2.927
28540WAT     H185862   0.511   2.110   2.967
28540WAT     H285863   0.651   2.191   2.941
28541WAT      O85864   4.309   8.056   1.115
28541WAT     H185865   4.341   7.962   1.125
28541WAT     H285866   4.283   8.073   1.020
28542WAT      O85867   4.389   9.095   5.856
28542WAT     H185868   4.444   9.099   5.940
28542WAT     H285869   4.448   9.080   5.778
28543WAT      O85870   0.378   3.343   6.354
28543WAT     H185871   0.323   3.259   6.361
28543WAT     H285872   0.422   3.361   6.442
28544WAT      O85873   9.105   3.863   6.018
28544WAT     H185874   9.082   3.766   6.010
28544WAT     H285875   9.198   3.879   5.983
28545WAT      O85876   3.179   6.634   1.023
28545WAT     H185877   3.186   6.675   0.933
28545WAT     H285878   3.161   6.705   1.091
28546WAT      O85879   8.569   4.038   2.275
28546WAT     H185880   8.598   4.112   2.214
28546WAT     H285881   8.620   3.955   2.252
28547WAT      O85882   3.259   1.763   4.619
28547WAT     H185883   3.238   1.812   4.703
28547WAT     H285884   3.191   1.691   4.604
28548WAT      O85885   8.887   8.662   1.253
28548WAT     H185886   8.964   8.598   1.256
28548WAT     H285887   8.907   8.734   1.186
28549WAT      O85888   6.611   2.496   9.828
28549WAT     H185889   6.685   2.563   9.822
28549WAT     H285890   6.525   2.539   9.802
28550WAT      O85891   4.089   5.235   2.674
28550WAT     H185892   4.150   5.188   2.610
28550WAT     H285893   4.106   5.333   2.672
28551WAT      O85894   0.204   2.692   6.029
28551WAT     H185895   0.239   2.611   6.076
28551WAT     H285896   0.104   2.687   6.023
28552WAT      O85897   2.900   9.077   3.966
28552WAT     H185898   2.865   9.139   3.896
28552WAT     H285899   3.000   9.086   3.971
28553WAT      O85900   8.229   2.601   5.081
28553WAT     H185901   8.224   2.701   5.073
28553WAT     H285902   8.292   2.566   5.012
28554WAT      O85903   5.881   6.243   4.909
28554WAT     H185904   5.785   6.245   4.881
28554WAT     H285905   5.888   6.244   5.008
28555WAT      O85906   7.640   5.012   8.056
28555WAT     H185907   7.726   5.046   8.019
28555WAT     H285908   7.635   4.913   8.042
28556WAT      O85909   0.796   5.360   9.754
28556WAT     H185910   0.829   5.281   9.806
28556WAT     H285911   0.696   5.356   9.748
28557WAT      O85912   1.933   8.120   6.785
28557WAT     H185913   1.952   8.022   6.773
28557WAT     H285914   2.007   8.174   6.745
28558WAT      O85915   9.459   5.791   5.390
28558WAT     H185916   9.394   5.865   5.403
28558WAT     H285917   9.495   5.761   5.479
28559WAT      O85918   9.712   9.368   4.033
28559WAT     H185919   9.758   9.308   4.099
28559WAT     H285920   9.755   9.459   4.035
28560WAT      O85921   4.512   0.669   9.845
28560WAT     H185922   4.467   0.756   9.827
28560WAT     H285923   4.476   0.630   9.929
28561WAT      O85924   1.907   9.227   5.444
28561WAT     H185925   1.972   9.286   5.396
28561WAT     H285926   1.948   9.138   5.461
28562WAT      O85927   9.821   3.592   9.667
28562WAT     H185928   9.725   3.566   9.655
28562WAT     H285929   9.842   3.597   9.765
28563WAT      O85930   6.007   2.296   7.813
28563WAT     H185931   6.057   2.240   7.747
28563WAT     H285932   6.055   2.383   7.826
28564WAT      O85933   3.386   3.319   9.037
28564WAT     H185934   3.379   3.369   9.124
28564WAT     H285935   3.295   3.299   9.003
28565WAT      O85936   7.716   8.241   3.330
28565WAT     H185937   7.670   8.167   3.281
28565WAT     H285938   7.812   8.216   3.346
28566WAT      O85939   3.442   3.580   1.031
28566WAT     H185940   3.453   3.518   1.109
28566WAT     H285941   3.376   3.540   0.967
28567WAT      O85942   1.873   1.291   4.012
28567WAT     H185943   1.879   1.199   4.049
28567WAT     H285944   1.863   1.287   3.913
28568WAT      O85945   8.636   5.121   0.843
28568WAT     H185946   8.603   5.030   0.818
28568WAT     H285947   8.726   5.136   0.803
28569WAT      O85948   6.407   1.381   7.328
28569WAT     H185949   6.451   1.364   7.416
28569WAT     H285950   6.388   1.293   7.283
28570WAT      O85951   0.117   5.024   8.064
28570WAT     H185952   0.047   5.006   7.994
28570WAT     H285953   0.073   5.037   8.153
28571WAT      O85954   6.623   1.390   0.139
28571WAT     H185955   6.649   1.463   0.202
28571WAT     H285956   6.602   1.307   0.192
28572WAT      O85957   3.830   8.527   7.126
28572WAT     H185958   3.763   8.600   7.111
28572WAT     H285959   3.837   8.507   7.224
28573WAT      O85960   7.726   6.612   2.241
28573WAT     H185961   7.825   6.597   2.241
28573WAT     H285962   7.707   6.710   2.254
28574WAT      O85963   3.941   2.193   6.678
28574WAT     H185964   3.944   2.097   6.707
28574WAT     H285965   3.997   2.248   6.740
28575WAT      O85966   5.637   9.645   5.279
28575WAT     H185967   5.590   9.686   5.200
28575WAT     H285968   5.590   9.673   5.363
28576WAT      O85969   3.591   6.267   7.763
28576WAT     H185970   3.677   6.299   7.803
28576WAT     H285971   3.597   6.270   7.663
28577WAT      O85972   9.312   7.435   2.741
28577WAT     H185973   9.365   7.500   2.688
28577WAT     H285974   9.351   7.429   2.834
28578WAT      O85975   6.862   5.510   3.739
28578WAT     H185976   6.803   5.453   3.683
28578WAT     H285977   6.807   5.564   3.802
28579WAT      O85978   8.257   5.401   5.923
28579WAT     H185979   8.310   5.317   5.939
28579WAT     H285980   8.305   5.458   5.857
28580WAT      O85981   1.446   2.623   4.833
28580WAT     H185982   1.514   2.695   4.849
28580WAT     H285983   1.410   2.632   4.740
28581WAT      O85984   0.796   7.022   0.633
28581WAT     H185985   0.802   7.013   0.534
28581WAT     H285986   0.710   7.065   0.658
28582WAT      O85987   8.843   4.209   9.051
28582WAT     H185988   8.836   4.239   9.146
28582WAT     H285989   8.940   4.203   9.026
28583WAT      O85990   9.828   6.194   3.471
28583WAT     H185991   9.836   6.293   3.460
28583WAT     H285992   9.867   6.166   3.559
28584WAT      O85993   7.977   6.162   1.264
28584WAT     H185994   7.934   6.252   1.268
28584WAT     H285995   7.927   6.104   1.200
28585WAT      O85996   8.744   9.426   8.906
28585WAT     H185997   8.764   9.328   8.903
28585WAT     H285998   8.818   9.473   8.955
28586WAT      O85999   3.160   8.439   6.513
28586WAT     H186000   3.138   8.371   6.443
28586WAT     H286001   3.106   8.521   6.497
28587WAT      O86002   2.216   8.632   0.515
28587WAT     H186003   2.270   8.709   0.482
28587WAT     H286004   2.132   8.666   0.557
28588WAT      O86005   8.905   1.761   6.596
28588WAT     H186006   9.005   1.771   6.597
28588WAT     H286007   8.876   1.707   6.675
28589WAT      O86008   3.743   5.683   3.518
28589WAT     H186009   3.778   5.775   3.501
28589WAT     H286010   3.777   5.621   3.447
28590WAT      O86011   3.397   9.416   1.331
28590WAT     H186012   3.380   9.319   1.315
28590WAT     H286013   3.443   9.427   1.419
28591WAT      O86014   3.729   8.567   4.893
28591WAT     H186015   3.691   8.620   4.969
28591WAT     H286016   3.805   8.511   4.926
28592WAT      O86017   9.118   4.326   9.696
28592WAT     H186018   9.094   4.322   9.599
28592WAT     H286019   9.039   4.358   9.748
28593WAT      O86020   3.822   6.820   1.738
28593WAT     H186021   3.904   6.856   1.783
28593WAT     H286022   3.757   6.895   1.725
28594WAT      O86023   5.376   2.411   2.965
28594WAT     H186024   5.404   2.334   2.906
28594WAT     H286025   5.457   2.464   2.990
28595WAT      O86026   9.628   6.158   8.817
28595WAT     H186027   9.677   6.185   8.900
28595WAT     H286028   9.534   6.192   8.823
28596WAT      O86029   1.817   9.775   5.496
28596WAT     H186030   1.775   9.702   5.441
28596WAT     H286031   1.902   9.743   5.536
28597WAT      O86032   3.781   2.068   8.262
28597WAT     H186033   3.697   2.014   8.252
28597WAT     H286034   3.811   2.099   8.172
28598WAT      O86035   0.375   4.312   5.589
28598WAT     H186036   0.394   4.378   5.662
28598WAT     H286037   0.396   4.220   5.621
28599WAT      O86038   7.167   8.757   4.627
28599WAT     H186039   7.116   8.828   4.578
28599WAT     H286040   7.129   8.667   4.605
28600WAT      O86041   7.542   4.097   4.937
28600WAT     H186042   7.571   4.118   4.844
28600WAT     H286043   7.461   4.038   4.935
28601WAT      O86044   8.870   9.449   1.642
28601WAT     H186045   8.887   9.410   1.552
28601WAT     H286046   8.821   9.383   1.699
28602WAT      O86047   0.085   3.576   2.747
28602WAT     H186048  -0.005   3.618   2.736
28602WAT     H286049   0.077   3.493   2.802
28603WAT      O86050   9.129   6.838   3.702
28603WAT     H186051   9.185   6.869   3.625
28603WAT     H286052   9.066   6.767   3.670
28604WAT      O86053   9.576   1.001   8.580
28604WAT     H186054   9.588   0.913   8.533
28604WAT     H286055   9.574   1.075   8.513
28605WAT      O86056   2.587   1.779   5.894
28605WAT     H186057   2.559   1.810   5.985
28605WAT     H286058   2.687   1.779   5.888
28606WAT      O86059   2.551   1.192   9.235
28606WAT     H186060   2.628   1.239   9.279
28606WAT     H286061   2.519   1.118   9.293
28607WAT      O86062   3.185   4.026   5.828
28607WAT     H186063   3.174   3.935   5.868
28607WAT     H286064   3.276   4.061   5.851
28608WAT      O86065   3.275   9.245   9.866
28608WAT     H186066   3.224   9.330   9.850
28608WAT     H286067   3.268   9.186   9.786
28609WAT      O86068   9.369   3.814   7.404
28609WAT     H186069   9.433   3.787   7.332
28609WAT     H286070   9.285   3.849   7.362
28610WAT      O86071   5.606   2.377   6.987
28610WAT     H186072   5.624   2.458   7.042
28610WAT     H286073   5.510   2.352   6.994
28611WAT      O86074   0.431   7.352   2.652
28611WAT     H186075   0.409   7.358   2.555
28611WAT     H286076   0.369   7.411   2.704
28612WAT      O86077   8.692   7.718   0.927
28612WAT     H186078   8.618   7.651   0.924
28612WAT     H286079   8.727   7.734   0.835
28613WAT      O86080   8.706   9.422   7.171
28613WAT     H186081   8.719   9.495   7.239
28613WAT     H286082   8.608   9.412   7.152
28614WAT      O86083   6.223   5.422   7.498
28614WAT     H186084   6.251   5.466   7.583
28614WAT     H286085   6.190   5.491   7.434
28615WAT      O86086   6.329   3.913   3.230
28615WAT     H186087   6.335   3.983   3.159
28615WAT     H286088   6.333   3.822   3.188
28616WAT      O86089   5.412   6.925   9.503
28616WAT     H186090   5.352   6.992   9.547
28616WAT     H286091   5.500   6.968   9.483
28617WAT      O86092   2.056   9.096   9.181
28617WAT     H186093   2.016   9.173   9.231
28617WAT     H286094   2.155   9.109   9.173
28618WAT      O86095   7.622   4.452   3.092
28618WAT     H186096   7.710   4.420   3.055
28618WAT     H286097   7.597   4.395   3.171
28619WAT      O86098   1.467   1.863   2.509
28619WAT     H186099   1.473   1.790   2.441
28619WAT     H286100   1.371   1.885   2.526
28620WAT      O86101   5.304   0.169   0.133
28620WAT     H186102   5.282   0.240   0.201
28620WAT     H286103   5.298   0.209   0.042
28621WAT      O86104   2.364   7.016   7.389
28621WAT     H186105   2.411   7.012   7.301
28621WAT     H286106   2.350   6.923   7.423
28622WAT      O86107   6.504   4.881   9.269
28622WAT     H186108   6.485   4.957   9.207
28622WAT     H286109   6.508   4.915   9.363
28623WAT      O86110   7.978   9.471   7.084
28623WAT     H186111   7.895   9.504   7.128
28623WAT     H286112   8.051   9.461   7.152
28624WAT      O86113   8.407   4.005   7.478
28624WAT     H186114   8.415   4.002   7.379
28624WAT     H286115   8.313   4.026   7.504
28625WAT      O86116   1.036   2.887   9.814
28625WAT     H186117   1.028   2.831   9.896
28625WAT     H286118   1.071   2.978   9.839
28626WAT      O86119   7.794   9.021   2.921
28626WAT     H186120   7.860   8.946   2.917
28626WAT     H286121   7.793   9.059   3.013
28627WAT      O86122   5.949   2.374   2.842
28627WAT     H186123   5.912   2.296   2.792
28627WAT     H286124   5.990   2.438   2.777
28628WAT      O86125   0.769   0.094   2.461
28628WAT     H186126   0.764   0.059   2.554
28628WAT     H286127   0.712   0.037   2.401
28629WAT      O86128   7.964   3.067   1.283
28629WAT     H186129   7.976   3.052   1.381
28629WAT     H286130   7.931   3.160   1.268
28630WAT      O86131   7.932   1.689   4.992
28630WAT     H186132   7.962   1.669   5.085
28630WAT     H286133   7.832   1.686   4.987
28631WAT      O86134   6.158   0.912   9.822
28631WAT     H186135   6.104   0.893   9.740
28631WAT     H286136   6.234   0.972   9.798
28632WAT      O86137   6.492   5.733   3.594
28632WAT     H186138   6.393   5.722   3.584
28632WAT     H286139   6.529   5.785   3.517
28633WAT      O86140   6.391   3.241   9.401
28633WAT     H186141   6.361   3.206   9.490
28633WAT     H286142   6.490   3.255   9.403
28634WAT      O86143   4.740   9.107   0.410
28634WAT     H186144   4.752   9.024   0.355
28634WAT     H286145   4.815   9.114   0.476
28635WAT      O86146   7.776   0.613   7.131
28635WAT     H186147   7.875   0.604   7.142
28635WAT     H286148   7.753   0.608   7.034
28636WAT      O86149   8.306   1.631   9.568
28636WAT     H186150   8.311   1.716   9.515
28636WAT     H286151   8.395   1.585   9.565
28637WAT      O86152   5.905   2.121   3.146
28637WAT     H186153   5.960   2.160   3.220
28637WAT     H286154   5.844   2.051   3.184
28638WAT      O86155   1.561   4.760   8.569
28638WAT     H186156   1.548   4.732   8.664
28638WAT     H286157   1.545   4.683   8.509
28639WAT      O86158   7.168   8.867   9.670
28639WAT     H186159   7.131   8.787   9.717
28639WAT     H286160   7.244   8.905   9.723
28640WAT      O86161   1.574   8.823   1.166
28640WAT     H186162   1.523   8.800   1.249
28640WAT     H286163   1.663   8.777   1.167
28641WAT      O86164   6.585   3.137   6.986
28641WAT     H186165   6.531   3.164   6.906
28641WAT     H286166   6.531   3.075   7.043
28642WAT      O86167   2.549   5.231   0.793
28642WAT     H186168   2.572   5.135   0.811
28642WAT     H286169   2.606   5.290   0.850
28643WAT      O86170   7.996   2.624   6.013
28643WAT     H186171   7.946   2.552   6.061
28643WAT     H286172   7.931   2.695   5.984
28644WAT      O86173   7.948   9.720   3.649
28644WAT     H186174   7.878   9.652   3.626
28644WAT     H286175   8.027   9.674   3.690
28645WAT      O86176   2.131   0.976   2.695
28645WAT     H186177   2.077   0.912   2.749
28645WAT     H286178   2.099   0.977   2.600
28646WAT      O86179   3.951   7.701   1.047
28646WAT     H186180   3.923   7.791   1.011
28646WAT     H286181   4.041   7.709   1.090
28647WAT      O86182   1.630   9.400   4.395
28647WAT     H186183   1.557   9.343   4.357
28647WAT     H286184   1.645   9.479   4.336
28648WAT      O86185   6.733   4.341   5.106
28648WAT     H186186   6.728   4.335   5.205
28648WAT     H286187   6.823   4.374   5.078
28649WAT      O86188   0.621   3.133   0.365
28649WAT     H186189   0.598   3.123   0.268
28649WAT     H286190   0.693   3.201   0.376
28650WAT      O86191   1.935   3.075   2.720
28650WAT     H186192   1.984   2.988   2.717
28650WAT     H286193   1.870   3.073   2.797
28651WAT      O86194   9.660   6.583   5.834
28651WAT     H186195   9.685   6.657   5.897
28651WAT     H286196   9.595   6.522   5.880
28652WAT      O86197   3.676   3.640   2.921
28652WAT     H186198   3.599   3.579   2.939
28652WAT     H286199   3.761   3.587   2.923
28653WAT      O86200   1.129   0.194   4.785
28653WAT     H186201   1.218   0.165   4.818
28653WAT     H286202   1.093   0.127   4.721
28654WAT      O86203   4.435   8.432   5.749
28654WAT     H186204   4.428   8.490   5.829
28654WAT     H286205   4.498   8.356   5.768
28655WAT      O86206   9.079   2.071   7.403
28655WAT     H186207   9.056   2.165   7.428
28655WAT     H286208   9.033   2.007   7.464
28656WAT      O86209   6.120   9.183   5.889
28656WAT     H186210   6.168   9.104   5.926
28656WAT     H286211   6.021   9.173   5.905
28657WAT      O86212   3.578   2.351   4.582
28657WAT     H186213   3.567   2.258   4.618
28657WAT     H286214   3.520   2.414   4.634
28658WAT      O86215   9.624   6.288   7.634
28658WAT     H186216   9.639   6.330   7.544
28658WAT     H286217   9.708   6.295   7.688
28659WAT      O86218   2.987   1.649   7.140
28659WAT     H186219   2.912   1.715   7.137
28659WAT     H286220   2.952   1.557   7.127
28660WAT      O86221   5.541   2.360   2.561
28660WAT     H186222   5.617   2.306   2.526
28660WAT     H286223   5.567   2.400   2.649
28661WAT      O86224   3.476   7.929   5.647
28661WAT     H186225   3.403   7.935   5.715
28661WAT     H286226   3.560   7.966   5.686
28662WAT      O86227   2.358   5.219   1.206
28662WAT     H186228   2.325   5.162   1.131
28662WAT     H286229   2.280   5.256   1.257
28663WAT      O86230   2.501   3.119   8.417
28663WAT     H186231   2.465   3.139   8.508
28663WAT     H286232   2.516   3.205   8.368
28664WAT      O86233   0.152   9.428   1.601
28664WAT     H186234   0.217   9.504   1.599
28664WAT     H286235   0.065   9.458   1.561
28665WAT      O86236   7.094   4.808   9.063
28665WAT     H186237   7.094   4.863   9.146
28665WAT     H286238   7.007   4.820   9.015
28666WAT      O86239   7.293   6.858   3.139
28666WAT     H186240   7.265   6.945   3.098
28666WAT     H286241   7.217   6.793   3.133
28667WAT      O86242   4.922   6.214   8.778
28667WAT     H186243   4.927   6.120   8.745
28667WAT     H286244   4.836   6.227   8.828
28668WAT      O86245   5.666   9.630   1.307
28668WAT     H186246   5.685   9.601   1.213
28668WAT     H286247   5.567   9.635   1.321
28669WAT      O86248   9.584   8.736   0.175
28669WAT     H186249   9.669   8.690   0.199
28669WAT     H286250   9.545   8.778   0.257
28670WAT      O86251   2.171   8.235   7.515
28670WAT     H186252   2.152   8.314   7.573
28670WAT     H286253   2.236   8.261   7.443
28671WAT      O86254   4.904   8.164   8.318
28671WAT     H186255   4.910   8.076   8.363
28671WAT     H286256   4.830   8.218   8.358
28672WAT      O86257   0.199   6.002   6.305
28672WAT     H186258   0.227   6.078   6.245
28672WAT     H286259   0.221   6.025   6.400
28673WAT      O86260   3.504   9.565   8.090
28673WAT     H186261   3.593   9.599   8.120
28673WAT     H286262   3.452   9.640   8.049
28674WAT      O86263   7.394   9.313   8.885
28674WAT     H186264   7.431   9.316   8.792
28674WAT     H286265   7.391   9.406   8.923
28675WAT      O86266   9.588   5.745   7.958
28675WAT     H186267   9.658   5.761   8.028
28675WAT     H286268   9.602   5.807   7.881
28676WAT      O86269   8.954   9.717   3.536
28676WAT     H186270   9.001   9.802   3.511
28676WAT     H286271   9.021   9.644   3.549
28677WAT      O86272   1.192   8.010   1.736
28677WAT     H186273   1.112   8.062   1.704
28677WAT     H286274   1.247   8.068   1.797
28678WAT      O86275   8.003   7.700   8.701
28678WAT     H186276   8.055   7.618   8.681
28678WAT     H286277   8.062   7.767   8.747
28679WAT      O86278   5.108   4.495   9.302
28679WAT     H186279   5.106   4.503   9.402
28679WAT     H286280   5.192   4.538   9.267
28680WAT      O86281   4.500   4.959   0.855
28680WAT     H186282   4.561   4.892   0.814
28680WAT     H286283   4.476   4.931   0.948
28681WAT      O86284   7.108   4.614   7.765
28681WAT     H186285   7.056   4.581   7.687
28681WAT     H286286   7.171   4.542   7.796
28682WAT      O86287   0.647   7.067   1.830
28682WAT     H186288   0.650   7.147   1.771
28682WAT     H286289   0.605   7.092   1.917
28683WAT      O86290   1.257   0.856   9.191
28683WAT     H186291   1.183   0.794   9.218
28683WAT     H286292   1.342   0.828   9.235
28684WAT      O86293   2.396   0.735   3.374
28684WAT     H186294   2.469   0.760   3.438
28684WAT     H286295   2.380   0.810   3.311
28685WAT      O86296   7.176   8.286   9.522
28685WAT     H186297   7.123   8.213   9.478
28685WAT     H286298   7.200   8.355   9.455
28686WAT      O86299   2.749   9.243   8.724
28686WAT     H186300   2.721   9.247   8.820
28686WAT     H286301   2.808   9.164   8.709
28687WAT      O86302   4.351   7.541   0.634
28687WAT     H186303   4.333   7.587   0.721
28687WAT     H286304   4.443   7.564   0.602
28688WAT      O86305   8.157   4.338   7.896
28688WAT     H186306   8.087   4.400   7.931
28688WAT     H286307   8.127   4.244   7.909
28689WAT      O86308   8.349   1.251   1.474
28689WAT     H186309   8.276   1.184   1.486
28689WAT     H286310   8.383   1.281   1.563
28690WAT      O86311   2.516   4.783   0.962
28690WAT     H186312   2.438   4.814   0.908
28690WAT     H286313   2.558   4.703   0.919
28691WAT      O86314   0.581   3.598   6.951
28691WAT     H186315   0.498   3.548   6.929
28691WAT     H286316   0.574   3.692   6.917
28692WAT      O86317   7.792   7.305   7.163
28692WAT     H186318   7.892   7.302   7.157
28692WAT     H286319   7.764   7.284   7.257
28693WAT      O86320   0.492   0.778   8.097
28693WAT     H186321   0.476   0.770   7.998
28693WAT     H286322   0.404   0.777   8.145
28694WAT      O86323   3.371   9.388   3.945
28694WAT     H186324   3.324   9.322   4.005
28694WAT     H286325   3.413   9.339   3.869
28695WAT      O86326   3.251   5.174   4.327
28695WAT     H186327   3.281   5.216   4.413
28695WAT     H286328   3.275   5.234   4.250
28696WAT      O86329   0.742   9.837   4.134
28696WAT     H186330   0.651   9.867   4.108
28696WAT     H286331   0.748   9.828   4.233
28697WAT      O86332   2.615   2.199   9.541
28697WAT     H186333   2.592   2.227   9.447
28697WAT     H286334   2.532   2.168   9.587
28698WAT      O86335   3.313   0.711   1.808
28698WAT     H186336   3.365   0.737   1.727
28698WAT     H286337   3.376   0.685   1.881
28699WAT      O86338   8.909   4.234   2.230
28699WAT     H186339   8.944   4.187   2.149
28699WAT     H286340   8.813   4.260   2.214
28700WAT      O86341   5.188   8.778   1.604
28700WAT     H186342   5.116   8.800   1.538
28700WAT     H286343   5.182   8.842   1.681
28701WAT      O86344   2.432   3.894   3.778
28701WAT     H186345   2.382   3.943   3.849
28701WAT     H286346   2.431   3.947   3.693
28702WAT      O86347   5.561   5.732   6.675
28702WAT     H186348   5.479   5.679   6.655
28702WAT     H286349   5.607   5.755   6.589
28703WAT      O86350   6.871   2.836   7.507
28703WAT     H186351   6.903   2.807   7.597
28703WAT     H286352   6.935   2.902   7.468
28704WAT      O86353   7.808   5.334   7.453
28704WAT     H186354   7.812   5.282   7.538
28704WAT     H286355   7.852   5.282   7.380
28705WAT      O86356   8.855   8.378   4.674
28705WAT     H186357   8.892   8.332   4.755
28705WAT     H286358   8.903   8.347   4.592
28706WAT      O86359   1.712   3.434   7.807
28706WAT     H186360   1.670   3.483   7.730
28706WAT     H286361   1.703   3.489   7.890
28707WAT      O86362   2.787   0.920   4.228
28707WAT     H186363   2.816   0.849   4.292
28707WAT     H286364   2.856   0.931   4.157
28708WAT      O86365   2.413   1.391   1.109
28708WAT     H186366   2.418   1.309   1.166
28708WAT     H286367   2.454   1.468   1.158
28709WAT      O86368   7.255   4.041   4.809
28709WAT     H186369   7.237   4.010   4.903
28709WAT     H286370   7.242   4.140   4.805
28710WAT      O86371   5.546   4.874   2.732
28710WAT     H186372   5.538   4.945   2.662
28710WAT     H286373   5.642   4.864   2.759
28711WAT      O86374   4.849   3.143   7.996
28711WAT     H186375   4.874   3.228   8.043
28711WAT     H286376   4.932   3.098   7.963
28712WAT      O86377   1.807   1.471   8.676
28712WAT     H186378   1.826   1.374   8.693
28712WAT     H286379   1.747   1.480   8.598
28713WAT      O86380   1.762   3.982   7.380
28713WAT     H186381   1.795   3.889   7.365
28713WAT     H286382   1.839   4.046   7.382
28714WAT      O86383   0.912   8.862   4.000
28714WAT     H186384   0.854   8.780   3.995
28714WAT     H286385   0.936   8.891   3.907
28715WAT      O86386   1.344   6.352   3.558
28715WAT     H186387   1.440   6.359   3.582
28715WAT     H286388   1.292   6.320   3.638
28716WAT      O86389   9.164   9.356   7.745
28716WAT     H186390   9.236   9.287   7.741
28716WAT     H286391   9.173   9.408   7.830
28717WAT      O86392   6.805   3.906   7.137
28717WAT     H186393   6.728   3.865   7.187
28717WAT     H286394   6.840   3.840   7.071
28718WAT      O86395   0.158   2.876   0.011
28718WAT     H186396   0.060   2.891   0.028
28718WAT     H286397   0.207   2.878   0.098
28719WAT      O86398   2.052   2.604   2.516
28719WAT     H186399   2.057   2.693   2.472
28719WAT     H286400   2.144   2.565   2.525
28720WAT      O86401   3.678   4.780   1.737
28720WAT     H186402   3.745   4.831   1.791
28720WAT     H286403   3.613   4.844   1.695
28721WAT      O86404   7.485   4.807   5.794
28721WAT     H186405   7.528   4.717   5.796
28721WAT     H286406   7.490   4.845   5.702
28722WAT      O86407   8.342   7.342   1.886
28722WAT     H186408   8.355   7.309   1.792
28722WAT     H286409   8.392   7.283   1.949
28723WAT      O86410   9.063   4.761   2.347
28723WAT     H186411   9.155   4.767   2.308
28723WAT     H286412   8.999   4.733   2.276
28724WAT      O86413   1.167   6.389   2.648
28724WAT     H186414   1.116   6.353   2.570
28724WAT     H286415   1.129   6.352   2.733
28725WAT      O86416   1.771   1.011   2.526
28725WAT     H186417   1.865   1.006   2.492
28725WAT     H286418   1.720   1.076   2.470
28726WAT      O86419   4.202   7.305   6.227
28726WAT     H186420   4.134   7.361   6.180
28726WAT     H286421   4.180   7.301   6.325
28727WAT      O86422   0.894   6.936   3.926
28727WAT     H186423   0.865   6.904   3.835
28727WAT     H286424   0.988   6.906   3.942
28728WAT      O86425   4.375   0.065   4.121
28728WAT     H186426   4.345   0.093   4.212
28728WAT     H286427   4.445   0.129   4.088
28729WAT      O86428   3.188   5.362   1.747
28729WAT     H186429   3.148   5.312   1.825
28729WAT     H286430   3.288   5.352   1.750
28730WAT      O86431   6.217   6.862   0.762
28730WAT     H186432   6.159   6.875   0.843
28730WAT     H286433   6.290   6.797   0.784
28731WAT      O86434   4.003   1.995   2.648
28731WAT     H186435   3.938   1.925   2.676
28731WAT     H286436   3.996   2.074   2.708
28732WAT      O86437   8.886   1.442   0.335
28732WAT     H186438   8.872   1.357   0.385
28732WAT     H286439   8.798   1.482   0.311
28733WAT      O86440   5.333   1.155   9.422
28733WAT     H186441   5.370   1.125   9.334
28733WAT     H286442   5.351   1.253   9.435
28734WAT      O86443   9.435   3.479   0.076
28734WAT     H186444   9.447   3.390   0.118
28734WAT     H286445   9.338   3.503   0.076
28735WAT      O86446   5.476   7.437   3.042
28735WAT     H186447   5.495   7.534   3.027
28735WAT     H286448   5.377   7.422   3.036
28736WAT      O86449   7.617   0.448   5.036
28736WAT     H186450   7.531   0.476   5.078
28736WAT     H286451   7.604   0.363   4.985
28737WAT      O86452   7.375   3.347   7.910
28737WAT     H186453   7.391   3.256   7.948
28737WAT     H286454   7.316   3.399   7.972
28738WAT      O86455   6.248   4.752   3.135
28738WAT     H186456   6.305   4.811   3.192
28738WAT     H286457   6.208   4.806   3.061
28739WAT      O86458   6.973   8.082   5.216
28739WAT     H186459   7.059   8.091   5.266
28739WAT     H286460   6.903   8.137   5.262
28740WAT      O86461   1.936   8.504   3.107
28740WAT     H186462   1.847   8.486   3.150
28740WAT     H286463   1.922   8.533   3.013
28741WAT      O86464   1.970   7.351   5.865
28741WAT     H186465   1.916   7.433   5.848
28741WAT     H286466   1.909   7.273   5.880
28742WAT      O86467   7.502   3.453   5.644
28742WAT     H186468   7.469   3.523   5.708
28742WAT     H286469   7.537   3.497   5.562
28743WAT      O86470   8.393   2.591   0.712
28743WAT     H186471   8.300   2.595   0.747
28743WAT     H286472   8.458   2.608   0.786
28744WAT      O86473   6.025   5.924   0.978
28744WAT     H186474   5.945   5.865   0.988
28744WAT     H286475   6.102   5.883   1.026
28745WAT      O86476   0.618   4.425   4.162
28745WAT     H186477   0.695   4.484   4.186
28745WAT     H286478   0.568   4.400   4.246
28746WAT      O86479   8.235   1.510   3.345
28746WAT     H186480   8.136   1.501   3.353
28746WAT     H286481   8.262   1.603   3.369
28747WAT      O86482   6.795   1.346   7.812
28747WAT     H186483   6.854   1.274   7.775
28747WAT     H286484   6.850   1.426   7.832
28748WAT      O86485   2.064   5.587   0.088
28748WAT     H186486   2.070   5.677   0.130
28748WAT     H286487   2.122   5.584   0.007
28749WAT      O86488   8.780   0.205   6.158
28749WAT     H186489   8.797   0.195   6.256
28749WAT     H286490   8.686   0.178   6.138
28750WAT      O86491   7.269   6.234   7.101
28750WAT     H186492   7.213   6.154   7.124
28750WAT     H286493   7.213   6.301   7.052
28751WAT      O86494   0.324   2.223   4.010
28751WAT     H186495   0.245   2.224   3.949
28751WAT     H286496   0.366   2.314   4.011
28752WAT      O86497   7.745   1.609   9.362
28752WAT     H186498   7.797   1.547   9.303
28752WAT     H286499   7.674   1.558   9.410
28753WAT      O86500   9.520   9.308   7.156
28753WAT     H186501   9.545   9.259   7.072
28753WAT     H286502   9.595   9.302   7.222
28754WAT      O86503   0.370   7.424   5.214
28754WAT     H186504   0.342   7.345   5.160
28754WAT     H286505   0.386   7.396   5.309
28755WAT      O86506   5.657   2.141   7.186
28755WAT     H186507   5.650   2.203   7.107
28755WAT     H286508   5.753   2.134   7.213
28756WAT      O86509   0.265   6.211   8.423
28756WAT     H186510   0.267   6.112   8.406
28756WAT     H286511   0.170   6.243   8.423
28757WAT      O86512   4.039   5.166   7.045
28757WAT     H186513   3.984   5.232   6.993
28757WAT     H286514   4.126   5.152   6.998
28758WAT      O86515   8.527   1.806   0.181
28758WAT     H186516   8.555   1.787   0.275
28758WAT     H286517   8.436   1.767   0.165
28759WAT      O86518   8.613   7.954   4.485
28759WAT     H186519   8.545   7.952   4.411
28759WAT     H286520   8.599   8.037   4.540
28760WAT      O86521   6.162   9.759   9.042
28760WAT     H186522   6.206   9.770   8.953
28760WAT     H286523   6.232   9.759   9.114
28761WAT      O86524   2.801   8.099   6.627
28761WAT     H186525   2.796   8.194   6.596
28761WAT     H286526   2.710   8.066   6.650
28762WAT      O86527   0.089   9.462   5.663
28762WAT     H186528   0.124   9.544   5.709
28762WAT     H286529   0.018   9.420   5.719
28763WAT      O86530   8.165   6.975   7.543
28763WAT     H186531   8.171   6.898   7.479
28763WAT     H286532   8.162   7.060   7.491
28764WAT      O86533   5.049   1.106   3.037
28764WAT     H186534   5.093   1.074   3.121
28764WAT     H286535   4.983   1.178   3.060
28765WAT      O86536   9.158   4.155   8.881
28765WAT     H186537   9.124   4.122   8.793
28765WAT     H286538   9.152   4.082   8.949
28766WAT      O86539   4.536   0.677   6.565
28766WAT     H186540   4.444   0.643   6.584
28766WAT     H286541   4.555   0.756   6.624
28767WAT      O86542   7.399   6.448   0.324
28767WAT     H186543   7.425   6.467   0.418
28767WAT     H286544   7.323   6.506   0.297
28768WAT      O86545   8.744   9.762   9.360
28768WAT     H186546   8.804   9.807   9.294
28768WAT     H286547   8.675   9.708   9.311
28769WAT      O86548   5.818   0.518   8.868
28769WAT     H186549   5.857   0.605   8.837
28769WAT     H286550   5.884   0.471   8.926
28770WAT      O86551   2.793   6.682   0.814
28770WAT     H186552   2.866   6.652   0.752
28770WAT     H286553   2.722   6.611   0.819
28771WAT      O86554   4.170   8.449   7.955
28771WAT     H186555   4.175   8.362   7.905
28771WAT     H286556   4.244   8.509   7.924
28772WAT      O86557   1.845   4.024   4.226
28772WAT     H186558   1.848   3.931   4.192
28772WAT     H286559   1.836   4.023   4.326
28773WAT      O86560   9.271   4.878   1.352
28773WAT     H186561   9.238   4.902   1.443
28773WAT     H286562   9.371   4.882   1.350
28774WAT      O86563   6.832   8.769   9.597
28774WAT     H186564   6.831   8.777   9.498
28774WAT     H286565   6.886   8.689   9.624
28775WAT      O86566   4.571   0.109   4.781
28775WAT     H186567   4.565   0.025   4.727
28775WAT     H286568   4.653   0.106   4.839
28776WAT      O86569   8.211   5.596   3.029
28776WAT     H186570   8.145   5.523   3.012
28776WAT     H286571   8.303   5.563   3.010
28777WAT      O86572   5.549   5.099   2.595
28777WAT     H186573   5.642   5.133   2.582
28777WAT     H286574   5.489   5.175   2.620
28778WAT      O86575   4.757   7.459   7.915
28778WAT     H186576   4.847   7.449   7.874
28778WAT     H286577   4.753   7.407   8.000
28779WAT      O86578   1.480   3.725   8.371
28779WAT     H186579   1.398   3.703   8.423
28779WAT     H286580   1.459   3.728   8.274
28780WAT      O86581   0.753   2.522   4.055
28780WAT     H186582   0.703   2.556   4.135
28780WAT     H286583   0.798   2.598   4.009
28781WAT      O86584   4.018   0.726   5.583
28781WAT     H186585   3.967   0.661   5.640
28781WAT     H286586   4.116   0.716   5.601
28782WAT      O86587   2.760   7.677   2.162
28782WAT     H186588   2.857   7.665   2.183
28782WAT     H286589   2.717   7.730   2.235
28783WAT      O86590   0.853   4.580   4.228
28783WAT     H186591   0.938   4.528   4.228
28783WAT     H286592   0.837   4.618   4.137
28784WAT      O86593   5.708   1.245   6.462
28784WAT     H186594   5.801   1.269   6.431
28784WAT     H286595   5.704   1.146   6.480
28785WAT      O86596   1.652   2.374   8.700
28785WAT     H186597   1.569   2.323   8.723
28785WAT     H286598   1.728   2.338   8.754
28786WAT      O86599   6.682   9.494   5.883
28786WAT     H186600   6.656   9.432   5.809
28786WAT     H286601   6.779   9.480   5.905
28787WAT      O86602   1.446   1.680   5.187
28787WAT     H186603   1.351   1.695   5.215
28787WAT     H286604   1.506   1.695   5.265
28788WAT      O86605   3.676   7.358   1.508
28788WAT     H186606   3.591   7.407   1.492
28788WAT     H286607   3.705   7.311   1.425
28789WAT      O86608   1.138   7.255   5.610
28789WAT     H186609   1.134   7.159   5.637
28789WAT     H286610   1.102   7.265   5.517
28790WAT      O86611   4.446   7.099   7.135
28790WAT     H186612   4.537   7.057   7.130
28790WAT     H286613   4.419   7.129   7.044
28791WAT      O86614   1.795   8.019   5.317
28791WAT     H186615   1.731   7.942   5.321
28791WAT     H286616   1.765   8.090   5.381
28792WAT      O86617   9.608   2.148   9.789
28792WAT     H186618   9.677   2.215   9.816
28792WAT     H286619   9.579   2.166   9.695
28793WAT      O86620   4.604   0.152   7.148
28793WAT     H186621   4.640   0.059   7.146
28793WAT     H286622   4.505   0.150   7.154
28794WAT      O86623   4.675   0.572   8.956
28794WAT     H186624   4.740   0.496   8.955
28794WAT     H286625   4.653   0.595   9.051
28795WAT      O86626   2.383   4.690   2.307
28795WAT     H186627   2.398   4.699   2.406
28795WAT     H286628   2.319   4.761   2.277
28796WAT      O86629   3.556   8.861   3.542
28796WAT     H186630   3.625   8.871   3.613
28796WAT     H286631   3.554   8.943   3.485
28797WAT      O86632   2.910   0.393   9.232
28797WAT     H186633   2.814   0.390   9.205
28797WAT     H286634   2.933   0.309   9.282
28798WAT      O86635   5.432   6.035   7.529
28798WAT     H186636   5.348   6.001   7.571
28798WAT     H286637   5.410   6.106   7.463
28799WAT      O86638   8.930   3.630   0.028
28799WAT     H186639   8.878   3.615   0.112
28799WAT     H286640   8.903   3.718  -0.012
28800WAT      O86641   5.619   5.494   2.743
28800WAT     H186642   5.624   5.575   2.802
28800WAT     H286643   5.527   5.455   2.747
28801WAT      O86644   8.299   6.982   8.953
28801WAT     H186645   8.379   7.033   8.922
28801WAT     H286646   8.311   6.885   8.932
28802WAT      O86647   6.657   0.008   4.143
28802WAT     H186648   6.679   0.002   4.046
28802WAT     H286649   6.558   0.017   4.154
28803WAT      O86650   7.251   0.349   2.194
28803WAT     H186651   7.233   0.439   2.233
28803WAT     H286652   7.174   0.288   2.213
28804WAT      O86653   0.856   1.595   2.313
28804WAT     H186654   0.816   1.632   2.229
28804WAT     H286655   0.842   1.496   2.314
28805WAT      O86656   3.878   4.894   3.358
28805WAT     H186657   3.833   4.959   3.297
28805WAT     H286658   3.822   4.812   3.367
28806WAT      O86659   0.376   8.806   9.629
28806WAT     H186660   0.341   8.722   9.671
28806WAT     H286661   0.441   8.849   9.692
28807WAT      O86662   6.641   0.125   0.056
28807WAT     H186663   6.722   0.139   0.112
28807WAT     H286664   6.559   0.133   0.113
28808WAT      O86665   7.160   4.961   9.278
28808WAT     H186666   7.073   4.965   9.328
28808WAT     H286667   7.190   5.053   9.255
28809WAT      O86668   5.696   7.474   1.994
28809WAT     H186669   5.660   7.386   1.963
28809WAT     H286670   5.682   7.543   1.923
28810WAT      O86671   1.237   8.166   6.017
28810WAT     H186672   1.237   8.076   6.060
28810WAT     H286673   1.276   8.233   6.080
28811WAT      O86674   1.609   6.831   2.797
28811WAT     H186675   1.589   6.818   2.700
28811WAT     H286676   1.526   6.860   2.845
28812WAT      O86677   2.302   1.296   8.169
28812WAT     H186678   2.240   1.332   8.098
28812WAT     H286679   2.278   1.336   8.257
28813WAT      O86680   2.128   3.102   8.223
28813WAT     H186681   2.146   3.196   8.252
28813WAT     H286682   2.151   3.039   8.297
28814WAT      O86683   3.789   5.742   7.989
28814WAT     H186684   3.690   5.735   8.007
28814WAT     H286685   3.803   5.792   7.904
28815WAT      O86686   6.786   3.977   0.192
28815WAT     H186687   6.739   4.051   0.239
28815WAT     H286688   6.816   3.909   0.259
28816WAT      O86689   6.934   6.409   3.207
28816WAT     H186690   6.926   6.449   3.298
28816WAT     H286691   7.025   6.367   3.197
28817WAT      O86692   7.849   8.946   9.053
28817WAT     H186693   7.939   8.988   9.066
28817WAT     H286694   7.860   8.859   9.004
28818WAT      O86695   1.576   7.905   2.134
28818WAT     H186696   1.481   7.924   2.110
28818WAT     H286697   1.580   7.863   2.225
28819WAT      O86698   5.029   5.268   7.253
28819WAT     H186699   4.972   5.292   7.175
28819WAT     H286700   5.096   5.199   7.226
28820WAT      O86701   3.585   2.200   2.168
28820WAT     H186702   3.593   2.182   2.069
28820WAT     H286703   3.665   2.161   2.214
28821WAT      O86704   1.763   6.182   8.619
28821WAT     H186705   1.814   6.255   8.664
28821WAT     H286706   1.714   6.129   8.688
28822WAT      O86707   2.044   3.047   3.416
28822WAT     H186708   2.087   3.133   3.389
28822WAT     H286709   2.076   2.973   3.357
28823WAT      O86710   2.514   4.612   7.630
28823WAT     H186711   2.588   4.589   7.693
28823WAT     H286712   2.500   4.711   7.631
28824WAT      O86713   1.888   8.102   3.308
28824WAT     H186714   1.921   8.077   3.400
28824WAT     H286715   1.957   8.158   3.263
28825WAT      O86716   4.385   4.578   6.534
28825WAT     H186717   4.469   4.525   6.540
28825WAT     H286718   4.398   4.667   6.578
28826WAT      O86719   4.771   6.091   2.434
28826WAT     H186720   4.707   6.090   2.357
28826WAT     H286721   4.864   6.079   2.399
28827WAT      O86722   9.070   1.474   8.915
28827WAT     H186723   9.152   1.475   8.858
28827WAT     H286724   9.096   1.478   9.012
28828WAT      O86725   7.414   6.560   1.645
28828WAT     H186726   7.347   6.524   1.711
28828WAT     H286727   7.504   6.520   1.664
28829WAT      O86728   8.319   3.765   3.789
28829WAT     H186729   8.225   3.752   3.755
28829WAT     H286730   8.349   3.681   3.834
28830WAT      O86731   4.626   7.921   6.781
28830WAT     H186732   4.703   7.893   6.839
28830WAT     H286733   4.546   7.936   6.838
28831WAT      O86734   9.029   1.795   1.141
28831WAT     H186735   9.024   1.695   1.151
28831WAT     H286736   9.056   1.836   1.228
28832WAT      O86737   3.901   6.776   1.009
28832WAT     H186738   3.961   6.850   1.037
28832WAT     H286739   3.845   6.746   1.087
28833WAT      O86740   3.204   4.398   9.202
28833WAT     H186741   3.116   4.418   9.244
28833WAT     H286742   3.193   4.391   9.103
28834WAT      O86743   2.150   1.324   1.838
28834WAT     H186744   2.127   1.258   1.910
28834WAT     H286745   2.090   1.404   1.846
28835WAT      O86746   6.860   0.213   3.844
28835WAT     H186747   6.915   0.167   3.774
28835WAT     H286748   6.862   0.311   3.829
28836WAT      O86749   8.525   4.180   6.329
28836WAT     H186750   8.548   4.123   6.408
28836WAT     H286751   8.610   4.210   6.285
28837WAT      O86752   2.547   8.918   7.908
28837WAT     H186753   2.457   8.940   7.947
28837WAT     H286754   2.546   8.936   7.810
28838WAT      O86755   0.417   6.387   8.246
28838WAT     H186756   0.345   6.326   8.280
28838WAT     H286757   0.483   6.404   8.319
28839WAT      O86758   2.348   2.043   5.995
28839WAT     H186759   2.370   1.992   6.078
28839WAT     H286760   2.408   2.123   5.988
28840WAT      O86761   1.488   2.641   0.618
28840WAT     H186762   1.473   2.549   0.653
28840WAT     H286763   1.415   2.666   0.554
28841WAT      O86764   3.013   0.048   5.476
28841WAT     H186765   2.918   0.018   5.485
28841WAT     H286766   3.020   0.143   5.506
28842WAT      O86767   0.089   5.847   0.229
28842WAT     H186768   0.061   5.770   0.286
28842WAT     H286769   0.187   5.840   0.210
28843WAT      O86770   2.057   0.915   7.260
28843WAT     H186771   2.156   0.903   7.262
28843WAT     H286772   2.014   0.831   7.229
28844WAT      O86773   5.477   6.681   9.596
28844WAT     H186774   5.526   6.715   9.676
28844WAT     H286775   5.439   6.759   9.546
28845WAT      O86776   8.809   8.871   4.660
28845WAT     H186777   8.843   8.807   4.730
28845WAT     H286778   8.836   8.838   4.570
28846WAT      O86779   9.002   2.970   3.077
28846WAT     H186780   9.037   2.923   3.158
28846WAT     H286781   8.949   2.906   3.021
28847WAT      O86782   4.816   3.560   0.242
28847WAT     H186783   4.729   3.545   0.289
28847WAT     H286784   4.868   3.475   0.242
28848WAT      O86785   9.513   8.417   1.006
28848WAT     H186786   9.455   8.398   1.085
28848WAT     H286787   9.559   8.505   1.019
28849WAT      O86788   6.922   0.796   0.174
28849WAT     H186789   6.940   0.741   0.093
28849WAT     H286790   6.920   0.738   0.255
28850WAT      O86791   5.850   8.762   9.343
28850WAT     H186792   5.844   8.812   9.430
28850WAT     H286793   5.784   8.800   9.278
28851WAT      O86794   4.238   6.935   2.889
28851WAT     H186795   4.219   6.838   2.880
28851WAT     H286796   4.325   6.948   2.938
28852WAT      O86797   7.526   4.959   5.570
28852WAT     H186798   7.586   5.039   5.570
28852WAT     H286799   7.543   4.905   5.487
28853WAT      O86800   8.470   7.430   1.141
28853WAT     H186801   8.556   7.436   1.192
28853WAT     H286802   8.403   7.491   1.184
28854WAT      O86803   3.561   3.241   2.895
28854WAT     H186804   3.539   3.186   2.976
28854WAT     H286805   3.582   3.180   2.819
28855WAT      O86806   6.385   3.283   6.835
28855WAT     H186807   6.396   3.332   6.921
28855WAT     H286808   6.343   3.343   6.767
28856WAT      O86809   7.377   0.638   7.610
28856WAT     H186810   7.330   0.710   7.660
28856WAT     H286811   7.311   0.571   7.577
28857WAT      O86812   4.480   9.262   3.444
28857WAT     H186813   4.543   9.184   3.442
28857WAT     H286814   4.420   9.260   3.364
28858WAT      O86815   9.825   3.778   3.749
28858WAT     H186816   9.820   3.873   3.720
28858WAT     H286817   9.882   3.726   3.684
28859WAT      O86818   2.823   9.773   3.183
28859WAT     H186819   2.892   9.706   3.156
28859WAT     H286820   2.866   9.845   3.237
28860WAT      O86821   2.145   6.880   7.963
28860WAT     H186822   2.149   6.834   7.874
28860WAT     H286823   2.203   6.831   8.028
28861WAT      O86824   3.081   5.925   5.721
28861WAT     H186825   2.988   5.943   5.690
28861WAT     H286826   3.139   5.904   5.642
28862WAT      O86827   2.587   3.576   5.811
28862WAT     H186828   2.503   3.526   5.832
28862WAT     H286829   2.571   3.674   5.823
28863WAT      O86830   8.918   2.025   6.658
28863WAT     H186831   8.878   1.934   6.646
28863WAT     H286832   8.986   2.041   6.586
28864WAT      O86833   3.037   8.660   6.394
28864WAT     H186834   3.035   8.672   6.493
28864WAT     H286835   2.945   8.675   6.357
28865WAT      O86836   2.809   6.652   9.666
28865WAT     H186837   2.901   6.636   9.700
28865WAT     H286838   2.802   6.618   9.572
28866WAT      O86839   5.010   2.274   8.935
28866WAT     H186840   4.945   2.307   8.867
28866WAT     H286841   5.049   2.187   8.905
28867WAT      O86842   5.450   0.376   2.060
28867WAT     H186843   5.519   0.364   2.132
28867WAT     H286844   5.433   0.474   2.047
28868WAT      O86845   6.631   2.441   6.833
28868WAT     H186846   6.543   2.394   6.834
28868WAT     H286847   6.620   2.534   6.869
28869WAT      O86848   1.044   4.246   7.670
28869WAT     H186849   1.007   4.156   7.693
28869WAT     H286850   1.049   4.255   7.570
28870WAT      O86851   0.156   1.737   2.808
28870WAT     H186852   0.243   1.762   2.765
28870WAT     H286853   0.127   1.647   2.774
28871WAT      O86854   3.035   4.671   5.722
28871WAT     H186855   3.071   4.710   5.807
28871WAT     H286856   2.954   4.616   5.743
28872WAT      O86857   8.437   3.616   2.323
28872WAT     H186858   8.467   3.652   2.235
28872WAT     H286859   8.410   3.691   2.382
28873WAT      O86860   8.732   5.773   7.781
28873WAT     H186861   8.810   5.713   7.796
28873WAT     H286862   8.687   5.749   7.695
28874WAT      O86863   4.194   3.940   8.826
28874WAT     H186864   4.105   3.904   8.799
28874WAT     H286865   4.186   4.037   8.847
28875WAT      O86866   9.444   8.325   5.794
28875WAT     H186867   9.497   8.250   5.833
28875WAT     H286868   9.347   8.306   5.806
28876WAT      O86869   9.414   5.998   7.540
28876WAT     H186870   9.360   6.052   7.477
28876WAT     H286871   9.463   6.059   7.603
28877WAT      O86872   0.039   7.072   0.182
28877WAT     H186873   0.002   6.980   0.163
28877WAT     H286874  -0.006   7.110   0.263
28878WAT      O86875   1.595   5.300   8.618
28878WAT     H186876   1.502   5.336   8.609
28878WAT     H286877   1.661   5.375   8.617
28879WAT      O86878   7.221   4.972   5.239
28879WAT     H186879   7.259   5.060   5.211
28879WAT     H286880   7.175   4.929   5.160
28880WAT      O86881   1.038   3.213   7.771
28880WAT     H186882   1.029   3.256   7.861
28880WAT     H286883   1.113   3.257   7.720
28881WAT      O86884   6.939   5.602   8.454
28881WAT     H186885   6.945   5.507   8.484
28881WAT     H286886   6.926   5.661   8.534
28882WAT      O86887   7.364   0.765   2.637
28882WAT     H186888   7.280   0.814   2.618
28882WAT     H286889   7.380   0.761   2.735
28883WAT      O86890   2.312   9.624   4.751
28883WAT     H186891   2.371   9.665   4.680
28883WAT     H286892   2.255   9.696   4.791
28884WAT      O86893   8.882   3.166   9.349
28884WAT     H186894   8.792   3.132   9.322
28884WAT     H286895   8.945   3.090   9.358
28885WAT      O86896   9.601   5.948   1.622
28885WAT     H186897   9.593   6.026   1.684
28885WAT     H286898   9.605   5.863   1.676
28886WAT      O86899   6.951   2.916   3.691
28886WAT     H186900   6.876   2.938   3.752
28886WAT     H286901   6.934   2.829   3.646
28887WAT      O86902   1.634   3.101   3.299
28887WAT     H186903   1.554   3.048   3.270
28887WAT     H286904   1.681   3.052   3.372
28888WAT      O86905   9.361   7.291   8.162
28888WAT     H186906   9.438   7.296   8.225
28888WAT     H286907   9.372   7.214   8.100
28889WAT      O86908   7.723   3.338   4.770
28889WAT     H186909   7.647   3.300   4.823
28889WAT     H286910   7.776   3.400   4.827
28890WAT      O86911   1.580   5.000   7.236
28890WAT     H186912   1.608   5.006   7.141
28890WAT     H286913   1.570   4.903   7.262
28891WAT      O86914   3.577   8.617   6.678
28891WAT     H186915   3.655   8.667   6.641
28891WAT     H286916   3.516   8.680   6.726
28892WAT      O86917   8.970   8.131   7.043
28892WAT     H186918   8.973   8.223   7.003
28892WAT     H286919   8.930   8.137   7.135
28893WAT      O86920   3.527   5.770   9.463
28893WAT     H186921   3.446   5.769   9.404
28893WAT     H286922   3.542   5.863   9.497
28894WAT      O86923   9.117   9.710   2.623
28894WAT     H186924   9.133   9.653   2.704
28894WAT     H286925   9.023   9.745   2.625
28895WAT      O86926   2.919   7.679   4.890
28895WAT     H186927   2.995   7.687   4.955
28895WAT     H286928   2.861   7.760   4.896
28896WAT      O86929   0.161   2.939   9.643
28896WAT     H186930   0.182   2.916   9.738
28896WAT     H286931   0.126   3.032   9.638
28897WAT      O86932   6.059   3.370   5.303
28897WAT     H186933   6.024   3.314   5.228
28897WAT     H286934   6.069   3.465   5.271
28898WAT      O86935   5.888   4.215   7.114
28898WAT     H186936   5.922   4.298   7.070
28898WAT     H286937   5.963   4.151   7.128
28899WAT      O86938   2.572   6.389   2.627
28899WAT     H186939   2.656   6.442   2.613
28899WAT     H286940   2.586   6.295   2.595
28900WAT      O86941   7.520   9.207   9.139
28900WAT     H186942   7.500   9.203   9.041
28900WAT     H286943   7.591   9.141   9.162
28901WAT      O86944   8.266   3.831   8.383
28901WAT     H186945   8.338   3.848   8.316
28901WAT     H286946   8.280   3.741   8.425
28902WAT      O86947   3.851   8.859   4.754
28902WAT     H186948   3.831   8.842   4.657
28902WAT     H286949   3.800   8.939   4.785
28903WAT      O86950   3.940   7.761   9.744
28903WAT     H186951   3.861   7.755   9.806
28903WAT     H286952   3.923   7.706   9.663
28904WAT      O86953   5.888   3.313   5.032
28904WAT     H186954   5.974   3.302   4.982
28904WAT     H286955   5.830   3.234   5.015
28905WAT      O86956   6.402   8.237   1.149
28905WAT     H186957   6.346   8.172   1.097
28905WAT     H286958   6.490   8.195   1.170
28906WAT      O86959   5.755   8.213   1.262
28906WAT     H186960   5.743   8.145   1.334
28906WAT     H286961   5.671   8.219   1.207
28907WAT      O86962   2.543   2.305   3.966
28907WAT     H186963   2.574   2.274   3.876
28907WAT     H286964   2.597   2.385   3.995
28908WAT      O86965   2.322   9.094   9.151
28908WAT     H186966   2.333   9.163   9.080
28908WAT     H286967   2.395   9.025   9.142
28909WAT      O86968   0.627   1.146   4.752
28909WAT     H186969   0.648   1.151   4.850
28909WAT     H286970   0.582   1.059   4.732
28910WAT      O86971   1.969   0.162   8.055
28910WAT     H186972   2.001   0.199   8.143
28910WAT     H286973   2.045   0.157   7.991
28911WAT      O86974   1.971   9.319   1.895
28911WAT     H186975   2.068   9.339   1.910
28911WAT     H286976   1.956   9.220   1.900
28912WAT      O86977   9.496   1.162   0.189
28912WAT     H186978   9.496   1.255   0.227
28912WAT     H286979   9.590   1.129   0.183
28913WAT      O86980   9.512   3.995   3.202
28913WAT     H186981   9.505   4.027   3.296
28913WAT     H286982   9.525   3.896   3.201
28914WAT      O86983   2.336   6.772   8.759
28914WAT     H186984   2.266   6.822   8.810
28914WAT     H286985   2.413   6.752   8.819
28915WAT      O86986   4.401   0.603   8.967
28915WAT     H186987   4.496   0.576   8.950
28915WAT     H286988   4.340   0.547   8.912
28916WAT      O86989   5.285   0.091   8.592
28916WAT     H186990   5.310   0.052   8.503
28916WAT     H286991   5.297   0.191   8.589
28917WAT      O86992   5.829   0.336   2.596
28917WAT     H186993   5.913   0.386   2.615
28917WAT     H286994   5.753   0.378   2.647
28918WAT      O86995   9.049   4.092   6.243
28918WAT     H186996   9.081   4.011   6.193
28918WAT     H286997   9.042   4.170   6.180
28919WAT      O86998   8.588   6.604   6.570
28919WAT     H186999   8.684   6.575   6.579
28919WAT     H287000   8.538   6.537   6.516
28920WAT      O87001   0.352   4.969   9.053
28920WAT     H187002   0.254   4.951   9.047
28920WAT     H287003   0.402   4.900   9.000
28921WAT      O87004   6.803   0.077   6.348
28921WAT     H187005   6.774   0.049   6.256
28921WAT     H287006   6.768   0.169   6.367
28922WAT      O87007   6.958   4.727   4.263
28922WAT     H187008   6.868   4.689   4.282
28922WAT     H287009   7.006   4.669   4.198
28923WAT      O87010   5.949   5.734   0.699
28923WAT     H187011   5.898   5.749   0.784
28923WAT     H287012   5.932   5.809   0.635
28924WAT      O87013   1.613   3.500   3.907
28924WAT     H187014   1.550   3.427   3.932
28924WAT     H287015   1.564   3.587   3.904
28925WAT      O87016   0.901   3.915   3.035
28925WAT     H187017   0.991   3.893   2.997
28925WAT     H287018   0.864   3.995   2.987
28926WAT      O87019   4.392   0.754   1.178
28926WAT     H187020   4.432   0.827   1.233
28926WAT     H287021   4.453   0.675   1.178
28927WAT      O87022   2.749   3.127   9.213
28927WAT     H187023   2.657   3.139   9.174
28927WAT     H287024   2.786   3.039   9.184
28928WAT      O87025   8.001   2.539   5.784
28928WAT     H187026   8.032   2.576   5.872
28928WAT     H287027   7.911   2.498   5.795
28929WAT      O87028   1.657   5.066   0.068
28929WAT     H187029   1.696   5.153   0.040
28929WAT     H287030   1.623   5.017  -0.013
28930WAT      O87031   2.280   9.530   0.815
28930WAT     H187032   2.351   9.542   0.747
28930WAT     H287033   2.290   9.440   0.858
28931WAT      O87034   1.304   1.374   6.747
28931WAT     H187035   1.317   1.304   6.676
28931WAT     H287036   1.311   1.331   6.837
28932WAT      O87037   5.999   8.827   1.895
28932WAT     H187038   6.054   8.821   1.979
28932WAT     H287039   6.023   8.911   1.846
28933WAT      O87040   3.677   1.073   0.473
28933WAT     H187041   3.721   1.161   0.458
28933WAT     H287042   3.679   1.050   0.571
28934WAT      O87043   1.530   1.345   6.122
28934WAT     H187044   1.436   1.312   6.128
28934WAT     H287045   1.535   1.437   6.160
28935WAT      O87046   6.637   2.313   4.140
28935WAT     H187047   6.601   2.392   4.091
28935WAT     H287048   6.633   2.233   4.080
28936WAT      O87049   0.555   8.607   1.264
28936WAT     H187050   0.602   8.519   1.265
28936WAT     H287051   0.493   8.613   1.342
28937WAT      O87052   6.579   8.015   8.778
28937WAT     H187053   6.572   7.955   8.858
28937WAT     H287054   6.507   7.992   8.712
28938WAT      O87055   6.139   7.890   4.144
28938WAT     H187056   6.077   7.945   4.089
28938WAT     H287057   6.096   7.869   4.232
28939WAT      O87058   6.093   2.307   1.604
28939WAT     H187059   6.151   2.267   1.532
28939WAT     H287060   6.074   2.403   1.582
28940WAT      O87061   1.208   5.958   6.965
28940WAT     H187062   1.146   5.969   6.888
28940WAT     H287063   1.164   5.990   7.049
28941WAT      O87064   8.000   2.677   1.738
28941WAT     H187065   8.074   2.743   1.751
28941WAT     H287066   7.915   2.726   1.718
28942WAT      O87067   4.340   4.154   5.750
28942WAT     H187068   4.424   4.100   5.755
28942WAT     H287069   4.269   4.111   5.807
28943WAT      O87070   9.446   8.267   4.804
28943WAT     H187071   9.464   8.365   4.797
28943WAT     H287072   9.353   8.247   4.773
28944WAT      O87073   3.148   6.814   8.534
28944WAT     H187074   3.213   6.747   8.496
28944WAT     H287075   3.143   6.803   8.633
28945WAT      O87076   8.671   1.461   6.272
28945WAT     H187077   8.677   1.553   6.310
28945WAT     H287078   8.762   1.429   6.249
28946WAT      O87079   3.341   9.771   3.355
28946WAT     H187080   3.326   9.747   3.451
28946WAT     H287081   3.279   9.845   3.329
28947WAT      O87082   1.406   4.249   9.123
28947WAT     H187083   1.400   4.229   9.221
28947WAT     H287084   1.314   4.249   9.083
28948WAT      O87085   6.687   3.522   3.029
28948WAT     H187086   6.595   3.491   3.050
28948WAT     H287087   6.751   3.487   3.097
28949WAT      O87088   8.776   2.127   2.323
28949WAT     H187089   8.783   2.031   2.297
28949WAT     H287090   8.827   2.183   2.257
28950WAT      O87091   1.747   7.619   9.542
28950WAT     H187092   1.783   7.699   9.590
28950WAT     H287093   1.713   7.648   9.452
28951WAT      O87094   6.920   3.899   1.720
28951WAT     H187095   6.959   3.932   1.805
28951WAT     H287096   6.821   3.887   1.732
28952WAT      O87097   9.048   6.387   2.842
28952WAT     H187098   9.126   6.449   2.831
28952WAT     H287099   9.080   6.300   2.881
28953WAT      O87100   0.643   1.847   5.969
28953WAT     H187101   0.703   1.767   5.962
28953WAT     H287102   0.558   1.830   5.919
28954WAT      O87103   2.697   3.615   7.942
28954WAT     H187104   2.787   3.606   7.985
28954WAT     H287105   2.707   3.614   7.843
28955WAT      O87106   4.980   4.313   1.107
28955WAT     H187107   4.953   4.220   1.085
28955WAT     H287108   5.079   4.319   1.112
28956WAT      O87109   4.226   6.433   5.973
28956WAT     H187110   4.191   6.458   6.064
28956WAT     H287111   4.149   6.412   5.913
28957WAT      O87112   8.541   6.899   6.557
28957WAT     H187113   8.613   6.921   6.623
28957WAT     H287114   8.552   6.804   6.526
28958WAT      O87115   3.535   1.350   9.496
28958WAT     H187116   3.490   1.269   9.532
28958WAT     H287117   3.593   1.325   9.418
28959WAT      O87118   6.692   3.858   1.123
28959WAT     H187119   6.687   3.890   1.029
28959WAT     H287120   6.757   3.913   1.174
28960WAT      O87121   1.641   6.925   0.349
28960WAT     H187122   1.695   6.972   0.419
28960WAT     H287123   1.686   6.840   0.324
28961WAT      O87124   0.788   0.596   7.587
28961WAT     H187125   0.688   0.593   7.584
28961WAT     H287126   0.823   0.503   7.596
28962WAT      O87127   6.125   4.807   0.207
28962WAT     H187128   6.050   4.760   0.254
28962WAT     H287129   6.212   4.784   0.251
28963WAT      O87130   8.248   3.102   1.289
28963WAT     H187131   8.301   3.159   1.227
28963WAT     H287132   8.152   3.103   1.262
28964WAT      O87133   6.553   7.416   0.650
28964WAT     H187134   6.473   7.376   0.605
28964WAT     H287135   6.590   7.351   0.715
28965WAT      O87136   8.444   6.069   0.435
28965WAT     H187137   8.543   6.053   0.438
28965WAT     H287138   8.426   6.160   0.399
28966WAT      O87139   7.166   2.598   4.391
28966WAT     H187140   7.099   2.659   4.346
28966WAT     H287141   7.135   2.504   4.383
28967WAT      O87142   5.714   9.262   8.511
28967WAT     H187143   5.802   9.218   8.532
28967WAT     H287144   5.682   9.312   8.592
28968WAT      O87145   2.240   0.655   7.723
28968WAT     H187146   2.286   0.717   7.659
28968WAT     H287147   2.177   0.596   7.672
28969WAT      O87148   7.331   4.504   1.595
28969WAT     H187149   7.413   4.469   1.551
28969WAT     H287150   7.256   4.507   1.529
28970WAT      O87151   8.744   0.466   3.541
28970WAT     H187152   8.811   0.536   3.566
28970WAT     H287153   8.753   0.388   3.603
28971WAT      O87154   6.945   8.371   6.128
28971WAT     H187155   6.971   8.306   6.057
28971WAT     H287156   6.996   8.456   6.117
28972WAT      O87157   8.376   7.950   4.366
28972WAT     H187158   8.341   8.040   4.339
28972WAT     H287159   8.306   7.901   4.417
28973WAT      O87160   2.943   2.479   6.636
28973WAT     H187161   2.872   2.452   6.701
28973WAT     H287162   2.968   2.400   6.580
28974WAT      O87163   0.092   1.692   5.677
28974WAT     H187164   0.037   1.669   5.598
28974WAT     H287165   0.189   1.683   5.654
28975WAT      O87166   5.001   2.131   1.447
28975WAT     H187167   5.070   2.191   1.487
28975WAT     H287168   5.008   2.041   1.489
28976WAT      O87169   5.644   9.370   2.723
28976WAT     H187170   5.724   9.430   2.723
28976WAT     H287171   5.656   9.299   2.792
28977WAT      O87172   9.087   8.918   2.564
28977WAT     H187173   9.139   8.931   2.479
28977WAT     H287174   9.083   9.004   2.614
28978WAT      O87175   5.255   5.607   5.488
28978WAT     H187176   5.155   5.616   5.494
28978WAT     H287177   5.291   5.681   5.431
28979WAT      O87178   3.632   3.524   0.075
28979WAT     H187179   3.702   3.457   0.102
28979WAT     H287180   3.675   3.612   0.056
28980WAT      O87181   3.738   5.686   6.133
28980WAT     H187182   3.763   5.595   6.166
28980WAT     H287183   3.638   5.691   6.122
28981WAT      O87184   9.425   1.562   8.214
28981WAT     H187185   9.474   1.607   8.140
28981WAT     H287186   9.490   1.523   8.279
28982WAT      O87187   6.039   5.801   2.759
28982WAT     H187188   5.977   5.727   2.782
28982WAT     H287189   6.047   5.864   2.837
28983WAT      O87190   2.229   6.706   0.829
28983WAT     H187191   2.145   6.666   0.793
28983WAT     H287192   2.279   6.636   0.881
28984WAT      O87193   0.429   0.438   3.542
28984WAT     H187194   0.408   0.529   3.505
28984WAT     H287195   0.392   0.430   3.634
28985WAT      O87196   3.952   2.608   3.335
28985WAT     H187197   4.038   2.572   3.300
28985WAT     H287198   3.966   2.700   3.372
28986WAT      O87199   5.721   9.678   6.726
28986WAT     H187200   5.674   9.607   6.779
28986WAT     H287201   5.654   9.737   6.682
28987WAT      O87202   2.043   7.534   6.521
28987WAT     H187203   2.119   7.472   6.544
28987WAT     H287204   1.991   7.554   6.603
28988WAT      O87205   1.695   9.364   2.607
28988WAT     H187206   1.756   9.399   2.536
28988WAT     H287207   1.686   9.265   2.599
28989WAT      O87208   0.168   7.214   1.435
28989WAT     H187209   0.201   7.128   1.397
28989WAT     H287210   0.153   7.205   1.533
28990WAT      O87211   8.717   6.378   5.733
28990WAT     H187212   8.658   6.353   5.656
28990WAT     H287213   8.675   6.348   5.819
28991WAT      O87214   5.286   8.927   2.554
28991WAT     H187215   5.372   8.939   2.604
28991WAT     H287216   5.220   8.881   2.614
28992WAT      O87217   5.499   3.117   8.959
28992WAT     H187218   5.457   3.099   8.871
28992WAT     H287219   5.504   3.031   9.012
28993WAT      O87220   6.982   5.531   4.149
28993WAT     H187221   6.980   5.631   4.143
28993WAT     H287222   6.997   5.503   4.244
28994WAT      O87223   9.516   1.330   9.253
28994WAT     H187224   9.541   1.272   9.331
28994WAT     H287225   9.426   1.304   9.219
28995WAT      O87226   0.407   8.930   0.842
28995WAT     H187227   0.379   8.912   0.747
28995WAT     H287228   0.494   8.884   0.860
28996WAT      O87229   5.001   8.534   2.040
28996WAT     H187230   5.060   8.614   2.048
28996WAT     H287231   4.905   8.563   2.044
28997WAT      O87232   2.587   8.009   0.226
28997WAT     H187233   2.493   7.999   0.193
28997WAT     H287234   2.611   8.107   0.227
28998WAT      O87235   3.012   3.241   1.304
28998WAT     H187236   3.096   3.189   1.292
28998WAT     H287237   2.936   3.179   1.323
28999WAT      O87238   7.751   3.383   6.042
28999WAT     H187239   7.719   3.450   5.976
28999WAT     H287240   7.792   3.429   6.121
29000WAT      O87241   2.170   5.828   0.162
29000WAT     H187242   2.254   5.785   0.128
29000WAT     H287243   2.179   5.843   0.260
29001WAT      O87244   8.734   8.887   0.866
29001WAT     H187245   8.682   8.816   0.818
29001WAT     H287246   8.676   8.931   0.934
29002WAT      O87247   1.836   5.299   6.402
29002WAT     H187248   1.907   5.366   6.421
29002WAT     H287249   1.876   5.218   6.360
29003WAT      O87250   3.284   3.385   9.326
29003WAT     H187251   3.191   3.358   9.302
29003WAT     H287252   3.294   3.484   9.314
29004WAT      O87253   5.715   0.029   4.738
29004WAT     H187254   5.720  -0.067   4.766
29004WAT     H287255   5.806   0.069   4.742
29005WAT      O87256   0.149   5.868   1.657
29005WAT     H187257   0.206   5.946   1.633
29005WAT     H287258   0.078   5.856   1.588
29006WAT      O87259   6.074   6.830   7.775
29006WAT     H187260   6.090   6.897   7.847
29006WAT     H287261   6.083   6.874   7.686
29007WAT      O87262   2.699   3.594   2.053
29007WAT     H187263   2.772   3.538   2.091
29007WAT     H287264   2.611   3.562   2.088
29008WAT      O87265   5.666   0.908   4.881
29008WAT     H187266   5.572   0.881   4.859
29008WAT     H287267   5.723   0.899   4.799
29009WAT      O87268   1.840   6.398   7.745
29009WAT     H187269   1.854   6.319   7.685
29009WAT     H287270   1.899   6.473   7.716
29010WAT      O87271   5.996   1.416   7.298
29010WAT     H187272   6.081   1.468   7.310
29010WAT     H287273   6.017   1.325   7.263
29011WAT      O87274   5.795   6.895   0.294
29011WAT     H187275   5.764   6.814   0.245
29011WAT     H287276   5.868   6.940   0.242
29012WAT      O87277   2.823   9.793   2.736
29012WAT     H187278   2.753   9.734   2.695
29012WAT     H287279   2.793   9.823   2.827
29013WAT      O87280   3.612   4.580   8.985
29013WAT     H187281   3.538   4.631   9.029
29013WAT     H287282   3.699   4.601   9.029
29014WAT      O87283   7.941   4.373   0.184
29014WAT     H187284   7.884   4.450   0.155
29014WAT     H287285   7.972   4.323   0.103
29015WAT      O87286   9.771   0.342   5.929
29015WAT     H187287   9.728   0.264   5.974
29015WAT     H287288   9.846   0.311   5.872
29016WAT      O87289   2.259   8.651   5.678
29016WAT     H187290   2.260   8.737   5.627
29016WAT     H287291   2.295   8.666   5.770
29017WAT      O87292   7.705   2.704   3.589
29017WAT     H187293   7.640   2.678   3.517
29017WAT     H287294   7.789   2.650   3.578
29018WAT      O87295   1.453   5.593   2.403
29018WAT     H187296   1.383   5.663   2.414
29018WAT     H287297   1.543   5.636   2.395
29019WAT      O87298   9.283   3.020   2.611
29019WAT     H187299   9.262   2.952   2.541
29019WAT     H287300   9.268   2.980   2.702
29020WAT      O87301   5.550   8.391   0.641
29020WAT     H187302   5.533   8.297   0.613
29020WAT     H287303   5.601   8.438   0.568
29021WAT      O87304   0.146   5.438   7.742
29021WAT     H187305   0.169   5.521   7.690
29021WAT     H287306   0.091   5.378   7.685
29022WAT      O87307   5.644   8.709   2.835
29022WAT     H187308   5.662   8.749   2.925
29022WAT     H287309   5.667   8.775   2.764
29023WAT      O87310   4.456   8.762   9.277
29023WAT     H187311   4.477   8.666   9.300
29023WAT     H287312   4.541   8.813   9.265
29024WAT      O87313   1.784   9.161   8.179
29024WAT     H187314   1.700   9.215   8.189
29024WAT     H287315   1.761   9.070   8.146
29025WAT      O87316   2.920   5.440   3.116
29025WAT     H187317   2.839   5.396   3.154
29025WAT     H287318   2.930   5.531   3.155
29026WAT      O87319   1.906   5.276   5.146
29026WAT     H187320   1.852   5.350   5.185
29026WAT     H287321   1.933   5.300   5.052
29027WAT      O87322   8.951   4.743   8.479
29027WAT     H187323   8.891   4.797   8.420
29027WAT     H287324   8.980   4.660   8.431
29028WAT      O87325   0.525   6.605   6.136
29028WAT     H187326   0.438   6.584   6.180
29028WAT     H287327   0.512   6.678   6.069
29029WAT      O87328   6.591   0.801   6.065
29029WAT     H187329   6.689   0.819   6.053
29029WAT     H287330   6.570   0.710   6.031
29030WAT      O87331   4.751   0.440   1.899
29030WAT     H187332   4.693   0.410   1.823
29030WAT     H287333   4.693   0.463   1.977
29031WAT      O87334   4.135   9.717   8.429
29031WAT     H187335   4.052   9.738   8.377
29031WAT     H287336   4.161   9.797   8.484
29032WAT      O87337   5.878   1.050   9.071
29032WAT     H187338   5.809   0.978   9.072
29032WAT     H287339   5.847   1.125   9.013
29033WAT      O87340   0.737   8.368   0.730
29033WAT     H187341   0.700   8.439   0.790
29033WAT     H287342   0.713   8.388   0.635
29034WAT      O87343   8.526   2.499   7.364
29034WAT     H187344   8.623   2.522   7.357
29034WAT     H287345   8.516   2.400   7.369
29035WAT      O87346   6.102   9.381   7.328
29035WAT     H187347   6.167   9.452   7.354
29035WAT     H287348   6.146   9.291   7.335
29036WAT      O87349   0.276   5.873   2.405
29036WAT     H187350   0.180   5.900   2.413
29036WAT     H287351   0.324   5.937   2.346
29037WAT      O87352   7.361   2.347   4.246
29037WAT     H187353   7.409   2.432   4.226
29037WAT     H287354   7.327   2.349   4.340
29038WAT      O87355   7.738   1.097   4.562
29038WAT     H187356   7.780   1.176   4.606
29038WAT     H287357   7.808   1.044   4.514
29039WAT      O87358   7.621   0.104   2.939
29039WAT     H187359   7.555   0.152   2.882
29039WAT     H287360   7.630   0.009   2.909
29040WAT      O87361   1.435   4.662   2.915
29040WAT     H187362   1.432   4.665   2.815
29040WAT     H287363   1.501   4.593   2.944
29041WAT      O87364   8.075   6.147   8.069
29041WAT     H187365   8.023   6.134   8.154
29041WAT     H287366   8.170   6.166   8.091
29042WAT      O87367   8.240   0.167   0.537
29042WAT     H187368   8.189   0.142   0.455
29042WAT     H287369   8.326   0.211   0.509
29043WAT      O87370   8.817   9.593   2.632
29043WAT     H187371   8.829   9.549   2.543
29043WAT     H287372   8.720   9.588   2.658
29044WAT      O87373   3.209   9.479   8.556
29044WAT     H187374   3.275   9.419   8.601
29044WAT     H287375   3.154   9.525   8.626
29045WAT      O87376   4.543   4.971   8.765
29045WAT     H187377   4.605   4.908   8.812
29045WAT     H287378   4.478   4.918   8.709
29046WAT      O87379   3.769   6.357   5.643
29046WAT     H187380   3.795   6.372   5.547
29046WAT     H287381   3.672   6.375   5.654
29047WAT      O87382   2.726   3.528   3.416
29047WAT     H187383   2.726   3.612   3.362
29047WAT     H287384   2.737   3.551   3.513
29048WAT      O87385   5.503   7.238   6.732
29048WAT     H187386   5.471   7.148   6.762
29048WAT     H287387   5.599   7.231   6.705
29049WAT      O87388   4.337   5.160   3.768
29049WAT     H187389   4.426   5.151   3.725
29049WAT     H287390   4.266   5.162   3.697
29050WAT      O87391   2.473   5.596   8.864
29050WAT     H187392   2.427   5.550   8.788
29050WAT     H287393   2.567   5.619   8.837
29051WAT      O87394   9.383   6.533   1.332
29051WAT     H187395   9.367   6.628   1.308
29051WAT     H287396   9.465   6.500   1.286
29052WAT      O87397   0.154   2.276   0.058
29052WAT     H187398   0.159   2.375   0.065
29052WAT     H287399   0.245   2.236   0.071
29053WAT      O87400   7.526   2.148   6.984
29053WAT     H187401   7.459   2.140   6.910
29053WAT     H287402   7.608   2.192   6.949
29054WAT      O87403   1.031   4.356   5.755
29054WAT     H187404   1.056   4.414   5.678
29054WAT     H287405   1.059   4.399   5.840
29055WAT      O87406   0.837   8.573   6.422
29055WAT     H187407   0.886   8.514   6.359
29055WAT     H287408   0.854   8.543   6.516
29056WAT      O87409   9.813   8.215   7.126
29056WAT     H187410   9.812   8.266   7.211
29056WAT     H287411   9.803   8.117   7.145
29057WAT      O87412   0.815   1.888   7.130
29057WAT     H187413   0.837   1.817   7.064
29057WAT     H287414   0.725   1.927   7.109
29058WAT      O87415   7.472   5.083   5.950
29058WAT     H187416   7.497   5.000   5.901
29058WAT     H287417   7.545   5.151   5.940
29059WAT      O87418   1.748   4.935   0.284
29059WAT     H187419   1.712   4.980   0.202
29059WAT     H287420   1.775   4.841   0.261
29060WAT      O87421   0.328   2.516   8.403
29060WAT     H187422   0.381   2.589   8.360
29060WAT     H287423   0.247   2.496   8.348
29061WAT      O87424   7.242   6.609   7.509
29061WAT     H187425   7.144   6.620   7.489
29061WAT     H287426   7.287   6.567   7.430
29062WAT      O87427   8.679   8.887   7.716
29062WAT     H187428   8.663   8.876   7.618
29062WAT     H287429   8.599   8.930   7.758
29063WAT      O87430   1.740   1.406   9.441
29063WAT     H187431   1.738   1.481   9.508
29063WAT     H287432   1.704   1.440   9.354
29064WAT      O87433   2.288   9.740   0.431
29064WAT     H187434   2.330   9.667   0.485
29064WAT     H287435   2.355   9.778   0.368
29065WAT      O87436   1.562   8.871   7.076
29065WAT     H187437   1.546   8.778   7.044
29065WAT     H287438   1.659   8.882   7.100
29066WAT      O87439   5.669   2.125   9.404
29066WAT     H187440   5.608   2.200   9.433
29066WAT     H287441   5.759   2.162   9.384
29067WAT      O87442   4.159   1.103   4.839
29067WAT     H187443   4.231   1.114   4.908
29067WAT     H287444   4.081   1.056   4.879
29068WAT      O87445   1.319   3.812   2.557
29068WAT     H187446   1.332   3.740   2.489
29068WAT     H287447   1.238   3.866   2.534
29069WAT      O87448   3.600   3.477   1.913
29069WAT     H187449   3.561   3.407   1.853
29069WAT     H287450   3.528   3.512   1.973
29070WAT      O87451   5.627   2.057   4.575
29070WAT     H187452   5.564   2.069   4.651
29070WAT     H287453   5.661   2.146   4.545
29071WAT      O87454   8.993   9.188   1.796
29071WAT     H187455   8.940   9.201   1.879
29071WAT     H287456   9.048   9.105   1.804
29072WAT      O87457   3.282   1.738   2.588
29072WAT     H187458   3.222   1.816   2.570
29072WAT     H287459   3.302   1.690   2.503
29073WAT      O87460   8.570   6.637   1.388
29073WAT     H187461   8.512   6.668   1.312
29073WAT     H287462   8.527   6.661   1.475
29074WAT      O87463   4.511   6.504   8.730
29074WAT     H187464   4.422   6.522   8.771
29074WAT     H287465   4.502   6.432   8.661
29075WAT      O87466   5.908   7.805   9.443
29075WAT     H187467   5.857   7.845   9.519
29075WAT     H287468   5.882   7.709   9.432
29076WAT      O87469   9.155   6.288   3.549
29076WAT     H187470   9.103   6.208   3.579
29076WAT     H287471   9.218   6.316   3.622
29077WAT      O87472   9.052   9.544   5.149
29077WAT     H187473   9.061   9.636   5.110
29077WAT     H287474   9.034   9.551   5.247
29078WAT      O87475   2.165   1.259   0.093
29078WAT     H187476   2.163   1.343   0.039
29078WAT     H287477   2.213   1.187   0.042
29079WAT      O87478   5.416   2.266   2.064
29079WAT     H187479   5.368   2.337   2.115
29079WAT     H287480   5.457   2.201   2.128
29080WAT      O87481   8.969   6.789   4.833
29080WAT     H187482   8.961   6.708   4.890
29080WAT     H287483   8.878   6.818   4.803
29081WAT      O87484   4.181   8.137   2.023
29081WAT     H187485   4.243   8.212   2.046
29081WAT     H287486   4.230   8.069   1.968
29082WAT      O87487   6.090   2.502   4.416
29082WAT     H187488   6.110   2.455   4.502
29082WAT     H287489   6.005   2.554   4.424
29083WAT      O87490   6.587   2.071   0.233
29083WAT     H187491   6.554   2.052   0.325
29083WAT     H287492   6.675   2.118   0.238
29084WAT      O87493   0.438   4.005   5.672
29084WAT     H187494   0.507   4.015   5.600
29084WAT     H287495   0.448   3.915   5.715
29085WAT      O87496   4.919   6.897   1.865
29085WAT     H187497   4.947   6.980   1.815
29085WAT     H287498   4.990   6.827   1.854
29086WAT      O87499   9.879   1.261   5.075
29086WAT     H187500   9.848   1.336   5.133
29086WAT     H287501   9.912   1.186   5.131
29087WAT      O87502   8.616   1.653   8.705
29087WAT     H187503   8.548   1.703   8.759
29087WAT     H287504   8.699   1.642   8.758
29088WAT      O87505   4.029   5.524   6.715
29088WAT     H187506   4.105   5.529   6.650
29088WAT     H287507   4.065   5.501   6.806
29089WAT      O87508   4.880   4.342   0.065
29089WAT     H187509   4.843   4.264   0.014
29089WAT     H287510   4.925   4.310   0.148
29090WAT      O87511   6.081   4.553   0.962
29090WAT     H187512   6.051   4.645   0.940
29090WAT     H287513   6.001   4.493   0.970
29091WAT      O87514   6.511   8.682   8.072
29091WAT     H187515   6.501   8.584   8.053
29091WAT     H287516   6.423   8.720   8.098
29092WAT      O87517   0.229   7.487   3.438
29092WAT     H187518   0.277   7.423   3.378
29092WAT     H287519   0.134   7.457   3.449
29093WAT      O87520   6.864   8.097   0.280
29093WAT     H187521   6.765   8.093   0.265
29093WAT     H287522   6.883   8.093   0.378
29094WAT      O87523   2.427   5.670   7.978
29094WAT     H187524   2.435   5.747   7.916
29094WAT     H287525   2.457   5.586   7.932
29095WAT      O87526   1.988   5.088   0.279
29095WAT     H187527   1.936   5.064   0.360
29095WAT     H287528   1.937   5.062   0.197
29096WAT      O87529   7.565   6.500   7.539
29096WAT     H187530   7.584   6.445   7.621
29096WAT     H287531   7.474   6.479   7.505
29097WAT      O87532   3.750   3.676   5.790
29097WAT     H187533   3.755   3.776   5.800
29097WAT     H287534   3.701   3.638   5.869
29098WAT      O87535   3.154   2.294   5.701
29098WAT     H187536   3.138   2.338   5.613
29098WAT     H287537   3.243   2.323   5.737
29099WAT      O87538   7.175   9.516   0.969
29099WAT     H187539   7.245   9.528   1.040
29099WAT     H287540   7.219   9.491   0.883
29100WAT      O87541   3.376   9.351   4.599
29100WAT     H187542   3.424   9.386   4.518
29100WAT     H287543   3.409   9.259   4.620
29101WAT      O87544   2.494   5.003   1.770
29101WAT     H187545   2.583   4.965   1.747
29101WAT     H287546   2.479   4.995   1.869
29102WAT      O87547   5.055   3.240   6.592
29102WAT     H187548   5.075   3.142   6.592
29102WAT     H287549   4.963   3.255   6.628
29103WAT      O87550   8.859   5.990   8.936
29103WAT     H187551   8.887   5.896   8.955
29103WAT     H287552   8.930   6.053   8.968
29104WAT      O87553   0.326   0.063   9.167
29104WAT     H187554   0.405   0.012   9.201
29104WAT     H287555   0.268   0.090   9.244
29105WAT      O87556   1.241   0.440   2.767
29105WAT     H187557   1.341   0.434   2.767
29105WAT     H287558   1.204   0.383   2.693
29106WAT      O87559   2.561   7.882   7.873
29106WAT     H187560   2.616   7.941   7.815
29106WAT     H287561   2.528   7.804   7.819
29107WAT      O87562   3.913   2.706   9.342
29107WAT     H187563   3.892   2.620   9.388
29107WAT     H287564   3.903   2.695   9.243
29108WAT      O87565   9.280   6.314   2.204
29108WAT     H187566   9.278   6.228   2.154
29108WAT     H287567   9.190   6.358   2.200
29109WAT      O87568   7.593   4.062   9.498
29109WAT     H187569   7.679   4.099   9.463
29109WAT     H287570   7.517   4.108   9.451
29110WAT      O87571   7.767   7.627   9.129
29110WAT     H187572   7.671   7.629   9.157
29110WAT     H287573   7.824   7.657   9.206
29111WAT      O87574   3.538   1.973   4.126
29111WAT     H187575   3.442   1.951   4.110
29111WAT     H287576   3.550   2.072   4.128
29112WAT      O87577   4.348   1.249   5.379
29112WAT     H187578   4.397   1.265   5.465
29112WAT     H287579   4.275   1.317   5.370
29113WAT      O87580   5.963   9.089   9.606
29113WAT     H187581   5.870   9.125   9.615
29113WAT     H287582   5.998   9.064   9.697
29114WAT      O87583   0.160   7.385   0.164
29114WAT     H187584   0.077   7.366   0.112
29114WAT     H287585   0.240   7.379   0.104
29115WAT      O87586   1.386   2.114   4.853
29115WAT     H187587   1.469   2.163   4.878
29115WAT     H287588   1.410   2.032   4.800
29116WAT      O87589   1.436   4.540   7.676
29116WAT     H187590   1.482   4.610   7.620
29116WAT     H287591   1.489   4.523   7.758
29117WAT      O87592   1.319   9.630   0.088
29117WAT     H187593   1.219   9.624   0.088
29117WAT     H287594   1.354   9.603   0.178
29118WAT      O87595   9.473   2.556   1.721
29118WAT     H187596   9.453   2.654   1.714
29118WAT     H287597   9.561   2.544   1.767
29119WAT      O87598   6.035   4.910   3.944
29119WAT     H187599   6.047   4.965   4.027
29119WAT     H287600   5.984   4.963   3.877
29120WAT      O87601   9.702   7.585   3.941
29120WAT     H187602   9.622   7.643   3.923
29120WAT     H287603   9.672   7.501   3.986
29121WAT      O87604   8.191   9.582   3.742
29121WAT     H187605   8.269   9.565   3.682
29121WAT     H287606   8.145   9.496   3.763
29122WAT      O87607   8.752   2.684   3.810
29122WAT     H187608   8.678   2.694   3.877
29122WAT     H287609   8.813   2.610   3.838
29123WAT      O87610   2.027   1.129   3.087
29123WAT     H187611   2.087   1.193   3.135
29123WAT     H287612   1.967   1.180   3.025
29124WAT      O87613   6.321   7.689   4.969
29124WAT     H187614   6.349   7.783   4.990
29124WAT     H287615   6.354   7.628   5.041
29125WAT      O87616   8.868   2.004   5.287
29125WAT     H187617   8.771   2.002   5.312
29125WAT     H287618   8.878   1.992   5.188
29126WAT      O87619   7.839   7.834   1.613
29126WAT     H187620   7.748   7.815   1.649
29126WAT     H287621   7.832   7.876   1.523
29127WAT      O87622   5.242   0.533   9.480
29127WAT     H187623   5.293   0.557   9.563
29127WAT     H287624   5.254   0.604   9.411
29128WAT      O87625   3.373   7.288   2.066
29128WAT     H187626   3.361   7.189   2.067
29128WAT     H287627   3.323   7.329   2.142
29129WAT      O87628   5.382   6.888   2.966
29129WAT     H187629   5.421   6.936   3.044
29129WAT     H287630   5.283   6.900   2.965
29130WAT      O87631   4.154   3.929   6.604
29130WAT     H187632   4.173   3.989   6.681
29130WAT     H287633   4.056   3.927   6.586
29131WAT      O87634   5.901   4.605   4.190
29131WAT     H187635   5.967   4.533   4.211
29131WAT     H287636   5.886   4.610   4.091
29132WAT      O87637   8.225   6.045   7.401
29132WAT     H187638   8.254   6.140   7.401
29132WAT     H287639   8.129   6.039   7.374
29133WAT      O87640   3.748   3.351   6.697
29133WAT     H187641   3.732   3.259   6.660
29133WAT     H287642   3.684   3.415   6.654
29134WAT      O87643   9.059   1.509   2.273
29134WAT     H187644   9.052   1.472   2.366
29134WAT     H287645   9.150   1.548   2.258
29135WAT      O87646   4.601   7.981   4.305
29135WAT     H187647   4.624   8.056   4.367
29135WAT     H287648   4.674   7.912   4.306
29136WAT      O87649   2.061   1.625   0.611
29136WAT     H187650   2.129   1.557   0.584
29136WAT     H287651   1.969   1.590   0.593
29137WAT      O87652   0.526   7.558   3.589
29137WAT     H187653   0.491   7.470   3.622
29137WAT     H287654   0.453   7.626   3.592
29138WAT      O87655   9.484   8.848   1.097
29138WAT     H187656   9.455   8.924   1.038
29138WAT     H287657   9.522   8.885   1.182
29139WAT      O87658   9.313   9.063   8.023
29139WAT     H187659   9.327   9.079   7.925
29139WAT     H287660   9.333   9.147   8.073
29140WAT      O87661   7.761   9.626   1.777
29140WAT     H187662   7.665   9.652   1.780
29140WAT     H287663   7.816   9.694   1.826
29141WAT      O87664   4.208   7.175   0.510
29141WAT     H187665   4.227   7.207   0.603
29141WAT     H287666   4.151   7.243   0.463
29142WAT      O87667   2.909   1.211   8.809
29142WAT     H187668   2.974   1.151   8.856
29142WAT     H287669   2.869   1.275   8.876
29143WAT      O87670   5.470   4.486   6.181
29143WAT     H187671   5.470   4.544   6.100
29143WAT     H287672   5.383   4.437   6.187
29144WAT      O87673   4.075   1.906   1.661
29144WAT     H187674   4.096   1.957   1.745
29144WAT     H287675   3.976   1.900   1.650
29145WAT      O87676   6.060   9.713   7.804
29145WAT     H187677   6.076   9.770   7.724
29145WAT     H287678   5.987   9.754   7.859
29146WAT      O87679   1.002   8.162   9.180
29146WAT     H187680   1.000   8.154   9.080
29146WAT     H287681   0.949   8.242   9.208
29147WAT      O87682   7.682   1.172   0.068
29147WAT     H187683   7.635   1.181  -0.019
29147WAT     H287684   7.660   1.250   0.127
29148WAT      O87685   2.480   7.074   0.027
29148WAT     H187686   2.390   7.112   0.046
29148WAT     H287687   2.548   7.147   0.025
29149WAT      O87688   0.855   7.361   8.015
29149WAT     H187689   0.857   7.428   7.940
29149WAT     H287690   0.793   7.394   8.087
29150WAT      O87691   8.249   1.362   0.628
29150WAT     H187692   8.312   1.380   0.704
29150WAT     H287693   8.292   1.299   0.564
29151WAT      O87694   2.411   6.632   5.116
29151WAT     H187695   2.488   6.684   5.152
29151WAT     H287696   2.423   6.535   5.137
29152WAT      O87697   6.261   0.879   1.282
29152WAT     H187698   6.338   0.881   1.346
29152WAT     H287699   6.192   0.946   1.309
29153WAT      O87700   7.324   3.923   4.047
29153WAT     H187701   7.346   3.982   3.970
29153WAT     H287702   7.270   3.845   4.015
29154WAT      O87703   5.190   4.771   3.394
29154WAT     H187704   5.195   4.701   3.323
29154WAT     H287705   5.094   4.793   3.413
29155WAT      O87706   1.433   5.844   5.087
29155WAT     H187707   1.516   5.898   5.077
29155WAT     H287708   1.361   5.900   5.127
29156WAT      O87709   1.248   0.619   2.164
29156WAT     H187710   1.184   0.542   2.161
29156WAT     H287711   1.197   0.704   2.176
29157WAT      O87712   9.343   1.108   9.854
29157WAT     H187713   9.396   1.176   9.803
29157WAT     H287714   9.367   1.115   9.951
29158WAT      O87715   6.575   8.637   3.188
29158WAT     H187716   6.610   8.721   3.149
29158WAT     H287717   6.543   8.654   3.281
29159WAT      O87718   2.954   2.222   6.212
29159WAT     H187719   2.947   2.238   6.310
29159WAT     H287720   3.008   2.295   6.170
29160WAT      O87721   8.885   1.975   1.000
29160WAT     H187722   8.838   1.901   0.951
29160WAT     H287723   8.958   1.936   1.056
29161WAT      O87724   7.150   0.455   1.248
29161WAT     H187725   7.051   0.453   1.254
29161WAT     H287726   7.182   0.550   1.249
29162WAT      O87727   7.214   2.026   0.784
29162WAT     H187728   7.275   2.086   0.732
29162WAT     H287729   7.120   2.042   0.754
29163WAT      O87730   3.590   1.392   7.547
29163WAT     H187731   3.661   1.461   7.537
29163WAT     H287732   3.587   1.360   7.641
29164WAT      O87733   1.121   0.636   9.436
29164WAT     H187734   1.064   0.582   9.373
29164WAT     H287735   1.071   0.720   9.461
29165WAT      O87736   3.191   4.287   1.050
29165WAT     H187737   3.276   4.282   0.998
29165WAT     H287738   3.113   4.272   0.988
29166WAT      O87739   3.139   0.537   6.330
29166WAT     H187740   3.208   0.466   6.348
29166WAT     H287741   3.048   0.496   6.328
29167WAT      O87742   8.270   1.443   8.173
29167WAT     H187743   8.353   1.397   8.141
29167WAT     H287744   8.294   1.514   8.239
29168WAT      O87745   7.101   9.125   7.726
29168WAT     H187746   7.119   9.041   7.777
29168WAT     H287747   7.053   9.103   7.641
29169WAT      O87748   3.136   5.735   4.309
29169WAT     H187749   3.144   5.635   4.308
29169WAT     H287750   3.080   5.765   4.232
29170WAT      O87751   9.819   3.158   4.266
29170WAT     H187752   9.866   3.200   4.344
29170WAT     H287753   9.884   3.145   4.191
29171WAT      O87754   8.370   7.370   2.325
29171WAT     H187755   8.285   7.356   2.274
29171WAT     H287756   8.350   7.408   2.415
29172WAT      O87757   8.123   1.323   2.609
29172WAT     H187758   8.211   1.346   2.651
29172WAT     H287759   8.127   1.230   2.573
29173WAT      O87760   2.576   7.182   1.390
29173WAT     H187761   2.611   7.128   1.314
29173WAT     H287762   2.541   7.269   1.357
29174WAT      O87763   2.855   4.441   2.499
29174WAT     H187764   2.907   4.526   2.500
29174WAT     H287765   2.902   4.373   2.443
29175WAT      O87766   1.526   9.368   2.820
29175WAT     H187767   1.575   9.385   2.735
29175WAT     H287768   1.591   9.350   2.894
29176WAT      O87769   3.660   3.979   8.380
29176WAT     H187770   3.622   4.019   8.297
29176WAT     H287771   3.740   3.923   8.357
29177WAT      O87772   8.282   6.065   9.406
29177WAT     H187773   8.272   6.074   9.505
29177WAT     H287774   8.313   5.973   9.383
29178WAT      O87775   2.483   4.639   2.588
29178WAT     H187776   2.429   4.589   2.655
29178WAT     H287777   2.580   4.632   2.611
29179WAT      O87778   9.115   5.630   5.241
29179WAT     H187779   9.212   5.626   5.216
29179WAT     H287780   9.092   5.723   5.270
29180WAT      O87781   6.650   9.235   1.835
29180WAT     H187782   6.655   9.137   1.851
29180WAT     H287783   6.666   9.284   1.921
29181WAT      O87784   0.117   6.721   6.909
29181WAT     H187785   0.177   6.646   6.880
29181WAT     H287786   0.118   6.794   6.840
29182WAT      O87787   5.244   1.529   7.763
29182WAT     H187788   5.315   1.598   7.746
29182WAT     H287789   5.287   1.440   7.776
29183WAT      O87790   0.345   6.797   2.377
29183WAT     H187791   0.351   6.860   2.455
29183WAT     H287792   0.411   6.824   2.307
29184WAT      O87793   5.845   5.991   7.707
29184WAT     H187794   5.915   5.991   7.778
29184WAT     H287795   5.869   5.925   7.636
29185WAT      O87796   3.398   1.432   4.324
29185WAT     H187797   3.391   1.452   4.422
29185WAT     H287798   3.489   1.396   4.304
29186WAT      O87799   4.957   5.236   8.851
29186WAT     H187800   4.881   5.235   8.916
29186WAT     H287801   5.027   5.301   8.881
29187WAT      O87802   8.840   4.723   9.475
29187WAT     H187803   8.772   4.650   9.486
29187WAT     H287804   8.794   4.809   9.454
29188WAT      O87805   8.046   2.161   7.386
29188WAT     H187806   8.123   2.156   7.449
29188WAT     H287807   7.996   2.075   7.387
29189WAT      O87808   5.192   0.898   9.075
29189WAT     H187809   5.253   0.832   9.120
29189WAT     H287810   5.225   0.991   9.091
29190WAT      O87811   4.490   9.305   2.786
29190WAT     H187812   4.421   9.316   2.715
29190WAT     H287813   4.515   9.394   2.823
29191WAT      O87814   6.876   1.937   6.521
29191WAT     H187815   6.831   1.851   6.500
29191WAT     H287816   6.951   1.921   6.585
29192WAT      O87817   0.644   1.833   6.408
29192WAT     H187818   0.608   1.833   6.502
29192WAT     H287819   0.605   1.910   6.357
29193WAT      O87820   7.245   8.028   6.966
29193WAT     H187821   7.273   8.018   7.061
29193WAT     H287822   7.324   8.010   6.906
29194WAT      O87823   1.360   5.340   0.150
29194WAT     H187824   1.261   5.332   0.143
29194WAT     H287825   1.398   5.251   0.175
29195WAT      O87826   2.826   2.856   6.977
29195WAT     H187827   2.775   2.854   7.063
29195WAT     H287828   2.776   2.803   6.907
29196WAT      O87829   2.071   2.957   5.466
29196WAT     H187830   2.059   2.874   5.410
29196WAT     H287831   2.148   2.944   5.529
29197WAT      O87832   5.038   6.578   7.500
29197WAT     H187833   5.046   6.487   7.539
29197WAT     H287834   4.964   6.579   7.432
29198WAT      O87835   6.316   7.887   9.190
29198WAT     H187836   6.306   7.793   9.156
29198WAT     H287837   6.250   7.902   9.264
29199WAT      O87838   7.219   0.597   8.040
29199WAT     H187839   7.122   0.622   8.036
29199WAT     H287840   7.274   0.680   8.034
29200WAT      O87841   5.708   5.015   3.010
29200WAT     H187842   5.750   4.954   2.943
29200WAT     H287843   5.650   4.963   3.072
29201WAT      O87844   4.721   7.802   9.691
29201WAT     H187845   4.798   7.864   9.674
29201WAT     H287846   4.743   7.742   9.768
29202WAT      O87847   8.277   0.655   0.862
29202WAT     H187848   8.232   0.603   0.790
29202WAT     H287849   8.252   0.619   0.951
29203WAT      O87850   4.627   6.695   7.647
29203WAT     H187851   4.664   6.742   7.727
29203WAT     H287852   4.609   6.761   7.574
29204WAT      O87853   2.326   2.468   3.423
29204WAT     H187854   2.338   2.556   3.468
29204WAT     H287855   2.336   2.395   3.490
29205WAT      O87856   3.909   5.372   4.217
29205WAT     H187857   3.855   5.297   4.179
29205WAT     H287858   3.995   5.380   4.165
29206WAT      O87859   2.323   3.639   7.618
29206WAT     H187860   2.396   3.707   7.610
29206WAT     H287861   2.337   3.584   7.701
29207WAT      O87862   8.060   0.369   4.438
29207WAT     H187863   8.078   0.271   4.431
29207WAT     H287864   8.029   0.391   4.531
29208WAT      O87865   4.330   5.983   8.042
29208WAT     H187866   4.367   6.057   7.987
29208WAT     H287867   4.382   5.975   8.127
29209WAT      O87868   7.797   4.303   2.705
29209WAT     H187869   7.774   4.346   2.793
29209WAT     H287870   7.713   4.273   2.660
29210WAT      O87871   0.073   3.620   8.946
29210WAT     H187872  -0.017   3.663   8.951
29210WAT     H287873   0.085   3.558   9.023
29211WAT      O87874   0.235   2.066   8.492
29211WAT     H187875   0.235   2.138   8.562
29211WAT     H287876   0.267   1.980   8.532
29212WAT      O87877   1.222   5.293   2.668
29212WAT     H187878   1.150   5.297   2.598
29212WAT     H287879   1.184   5.322   2.756
29213WAT      O87880   6.206   2.436   6.958
29213WAT     H187881   6.138   2.430   6.885
29213WAT     H287882   6.263   2.516   6.944
29214WAT      O87883   6.875   9.656   6.968
29214WAT     H187884   6.906   9.583   6.908
29214WAT     H287885   6.795   9.701   6.927
29215WAT      O87886   3.393   2.245   8.029
29215WAT     H187887   3.417   2.237   7.932
29215WAT     H287888   3.323   2.177   8.051
29216WAT      O87889   3.736   8.016   9.107
29216WAT     H187890   3.760   8.108   9.079
29216WAT     H287891   3.670   8.020   9.182
29217WAT      O87892   0.783   9.561   7.799
29217WAT     H187893   0.797   9.623   7.721
29217WAT     H287894   0.872   9.531   7.833
29218WAT      O87895   1.698   9.261   0.845
29218WAT     H187896   1.659   9.208   0.770
29218WAT     H287897   1.794   9.281   0.825
29219WAT      O87898   6.776   3.780   1.417
29219WAT     H187899   6.756   3.845   1.490
29219WAT     H287900   6.746   3.818   1.329
29220WAT      O87901   9.472   7.887   4.637
29220WAT     H187902   9.560   7.902   4.592
29220WAT     H287903   9.468   7.938   4.722
29221WAT      O87904   0.833   4.353   0.353
29221WAT     H187905   0.738   4.362   0.382
29221WAT     H287906   0.873   4.443   0.340
29222WAT      O87907   3.286   2.614   8.988
29222WAT     H187908   3.371   2.584   8.944
29222WAT     H287909   3.253   2.542   9.049
29223WAT      O87910   0.729   0.869   1.702
29223WAT     H187911   0.813   0.923   1.714
29223WAT     H287912   0.719   0.843   1.606
29224WAT      O87913   0.691   3.647   0.126
29224WAT     H187914   0.697   3.696   0.213
29224WAT     H287915   0.603   3.600   0.120
29225WAT      O87916   0.422   0.695   4.021
29225WAT     H187917   0.512   0.696   3.978
29225WAT     H287918   0.370   0.617   3.986
29226WAT      O87919   6.616   1.067   8.817
29226WAT     H187920   6.528   1.037   8.855
29226WAT     H287921   6.682   1.081   8.892
29227WAT      O87922   0.969   5.652   4.439
29227WAT     H187923   0.916   5.704   4.506
29227WAT     H287924   0.928   5.562   4.427
29228WAT      O87925   9.324   1.822   2.070
29228WAT     H187926   9.347   1.766   2.149
29228WAT     H287927   9.228   1.807   2.046
29229WAT      O87928   1.244   6.013   3.303
29229WAT     H187929   1.154   6.047   3.330
29229WAT     H287930   1.313   6.045   3.368
29230WAT      O87931   2.228   9.239   1.047
29230WAT     H187932   2.312   9.276   1.087
29230WAT     H287933   2.238   9.233   0.948
29231WAT      O87934   1.798   6.424   1.049
29231WAT     H187935   1.823   6.333   1.081
29231WAT     H287936   1.768   6.419   0.954
29232WAT      O87937   3.580   7.487   6.622
29232WAT     H187938   3.543   7.448   6.537
29232WAT     H287939   3.606   7.582   6.606
29233WAT      O87940   1.401   7.277   8.802
29233WAT     H187941   1.303   7.297   8.812
29233WAT     H287942   1.451   7.363   8.795
29234WAT      O87943   8.342   8.397   4.877
29234WAT     H187944   8.366   8.487   4.838
29234WAT     H287945   8.419   8.363   4.931
29235WAT      O87946   2.986   4.257   0.359
29235WAT     H187947   2.955   4.214   0.444
29235WAT     H287948   3.017   4.350   0.378
29236WAT      O87949   8.211   9.380   5.651
29236WAT     H187950   8.151   9.393   5.572
29236WAT     H287951   8.249   9.288   5.650
29237WAT      O87952   8.315   7.651   5.935
29237WAT     H187953   8.353   7.743   5.927
29237WAT     H287954   8.245   7.650   6.007
29238WAT      O87955   2.875   7.748   6.081
29238WAT     H187956   2.863   7.738   5.982
29238WAT     H287957   2.945   7.684   6.113
29239WAT      O87958   3.629   0.238   4.849
29239WAT     H187959   3.643   0.197   4.939
29239WAT     H287960   3.646   0.170   4.778
29240WAT      O87961   5.081   0.160   6.874
29240WAT     H187962   5.095   0.125   6.967
29240WAT     H287963   5.000   0.117   6.834
29241WAT      O87964   8.447   7.405   8.365
29241WAT     H187965   8.455   7.309   8.338
29241WAT     H287966   8.451   7.462   8.283
29242WAT      O87967   1.635   7.881   8.140
29242WAT     H187968   1.634   7.793   8.091
29242WAT     H287969   1.589   7.950   8.084
29243WAT      O87970   2.981   7.206   6.201
29243WAT     H187971   2.946   7.285   6.150
29243WAT     H287972   3.063   7.171   6.155
29244WAT      O87973   9.710   6.911   7.457
29244WAT     H187974   9.655   6.959   7.525
29244WAT     H287975   9.804   6.902   7.491
29245WAT      O87976   8.707   4.119   0.830
29245WAT     H187977   8.706   4.199   0.890
29245WAT     H287978   8.750   4.042   0.876
29246WAT      O87979   9.267   5.454   8.716
29246WAT     H187980   9.236   5.542   8.752
29246WAT     H287981   9.283   5.463   8.618
29247WAT      O87982   8.844   5.326   5.854
29247WAT     H187983   8.929   5.374   5.875
29247WAT     H287984   8.766   5.384   5.880
29248WAT      O87985   7.662   1.204   5.996
29248WAT     H187986   7.727   1.270   6.035
29248WAT     H287987   7.604   1.250   5.928
29249WAT      O87988   2.072   4.780   4.611
29249WAT     H187989   2.004   4.761   4.540
29249WAT     H287990   2.026   4.818   4.692
29250WAT      O87991   1.631   4.423   2.854
29250WAT     H187992   1.625   4.461   2.761
29250WAT     H287993   1.724   4.389   2.870
29251WAT      O87994   9.758   4.547   8.168
29251WAT     H187995   9.705   4.549   8.253
29251WAT     H287996   9.807   4.461   8.161
29252WAT      O87997   5.448   0.299   4.514
29252WAT     H187998   5.366   0.252   4.481
29252WAT     H287999   5.437   0.320   4.612
29253WAT      O88000   4.184   4.651   3.336
29253WAT     H188001   4.203   4.669   3.240
29253WAT     H288002   4.269   4.655   3.388
29254WAT      O88003   6.105   6.799   5.893
29254WAT     H188004   6.061   6.836   5.811
29254WAT     H288005   6.204   6.803   5.882
29255WAT      O88006   5.924   1.651   1.494
29255WAT     H188007   5.965   1.647   1.402
29255WAT     H288008   5.949   1.738   1.537
29256WAT      O88009   9.201   4.662   1.196
29256WAT     H188010   9.221   4.729   1.267
29256WAT     H288011   9.275   4.661   1.129
29257WAT      O88012   3.682   7.845   3.981
29257WAT     H188013   3.601   7.847   3.921
29257WAT     H288014   3.687   7.931   4.032
29258WAT      O88015   8.208   1.284   7.031
29258WAT     H188016   8.148   1.360   7.005
29258WAT     H288017   8.303   1.309   7.014
29259WAT      O88018   0.459   2.349   9.827
29259WAT     H188019   0.437   2.412   9.902
29259WAT     H288020   0.541   2.382   9.781
29260WAT      O88021   1.220   9.348   5.245
29260WAT     H188022   1.154   9.280   5.212
29260WAT     H288023   1.313   9.315   5.228
29261WAT      O88024   3.926   6.503   2.163
29261WAT     H188025   3.865   6.577   2.134
29261WAT     H288026   4.015   6.514   2.119
29262WAT      O88027   2.081   7.538   8.333
29262WAT     H188028   2.181   7.545   8.323
29262WAT     H288029   2.041   7.506   8.248
29263WAT      O88030   3.468   3.607   5.112
29263WAT     H188031   3.423   3.537   5.167
29263WAT     H288032   3.459   3.696   5.157
29264WAT      O88033   0.108   1.705   7.353
29264WAT     H188034   0.172   1.633   7.327
29264WAT     H288035   0.144   1.793   7.323
29265WAT      O88036   3.979   6.259   6.878
29265WAT     H188037   4.076   6.277   6.861
29265WAT     H288038   3.943   6.330   6.939
29266WAT      O88039   7.696   9.539   8.956
29266WAT     H188040   7.724   9.561   9.049
29266WAT     H288041   7.599   9.558   8.944
29267WAT      O88042   1.568   3.745   6.628
29267WAT     H188043   1.501   3.741   6.555
29267WAT     H288044   1.567   3.660   6.680
29268WAT      O88045   3.463   0.500   9.705
29268WAT     H188046   3.415   0.577   9.664
29268WAT     H288047   3.408   0.417   9.694
29269WAT      O88048   2.591   4.508   5.519
29269WAT     H188049   2.582   4.510   5.420
29269WAT     H288050   2.519   4.564   5.560
29270WAT      O88051   9.126   8.510   1.261
29270WAT     H188052   9.198   8.441   1.272
29270WAT     H288053   9.160   8.585   1.205
29271WAT      O88054   4.157   8.993   4.636
29271WAT     H188055   4.116   9.058   4.699
29271WAT     H288056   4.220   8.933   4.687
29272WAT      O88057   9.069   5.034   8.628
29272WAT     H188058   9.069   5.084   8.541
29272WAT     H288059   9.092   4.938   8.611
29273WAT      O88060   9.271   2.135   3.457
29273WAT     H188061   9.227   2.045   3.451
29273WAT     H288062   9.330   2.138   3.538
29274WAT      O88063   8.127   7.831   9.562
29274WAT     H188064   8.219   7.870   9.561
29274WAT     H288065   8.098   7.812   9.468
29275WAT      O88066   8.747   3.648   1.323
29275WAT     H188067   8.842   3.624   1.306
29275WAT     H288068   8.713   3.708   1.251
29276WAT      O88069   0.047   1.115   1.197
29276WAT     H188070   0.121   1.133   1.131
29276WAT     H288071   0.081   1.057   1.271
29277WAT      O88072   1.528   0.127   6.421
29277WAT     H188073   1.571   0.192   6.359
29277WAT     H288074   1.568   0.136   6.512
29278WAT      O88075   4.340   6.650   7.436
29278WAT     H188076   4.271   6.720   7.454
29278WAT     H288077   4.381   6.621   7.523
29279WAT      O88078   4.382   0.845   9.424
29279WAT     H188079   4.388   0.823   9.327
29279WAT     H288080   4.440   0.783   9.476
29280WAT      O88081   7.523   3.162   4.878
29280WAT     H188082   7.431   3.200   4.881
29280WAT     H288083   7.534   3.098   4.954
29281WAT      O88084   5.196   0.264   4.698
29281WAT     H188085   5.109   0.237   4.738
29281WAT     H288086   5.217   0.204   4.621
29282WAT      O88087   6.909   0.557   6.534
29282WAT     H188088   6.905   0.654   6.556
29282WAT     H288089   6.995   0.538   6.486
29283WAT      O88090   1.638   8.748   9.568
29283WAT     H188091   1.634   8.731   9.667
29283WAT     H288092   1.725   8.791   9.546
29284WAT      O88093   8.144   2.824   8.479
29284WAT     H188094   8.179   2.759   8.411
29284WAT     H288095   8.102   2.902   8.433
29285WAT      O88096   5.636   1.618   5.025
29285WAT     H188097   5.541   1.647   5.038
29285WAT     H288098   5.694   1.664   5.093
29286WAT      O88099   0.579   9.684   4.392
29286WAT     H188100   0.532   9.660   4.307
29286WAT     H288101   0.678   9.678   4.379
29287WAT      O88102   6.603   8.623   6.019
29287WAT     H188103   6.689   8.624   6.069
29287WAT     H288104   6.549   8.543   6.046
29288WAT      O88105   4.816   2.465   0.800
29288WAT     H188106   4.792   2.423   0.888
29288WAT     H288107   4.845   2.559   0.816
29289WAT      O88108   1.252   8.608   3.583
29289WAT     H188109   1.166   8.653   3.558
29289WAT     H288110   1.252   8.588   3.681
29290WAT      O88111   3.756   2.748   8.463
29290WAT     H188112   3.814   2.666   8.458
29290WAT     H288113   3.752   2.780   8.557
29291WAT      O88114   1.966   8.452   4.370
29291WAT     H188115   1.936   8.547   4.382
29291WAT     H288116   1.888   8.391   4.377
29292WAT      O88117   6.264   7.398   4.494
29292WAT     H188118   6.317   7.472   4.535
29292WAT     H288119   6.312   7.363   4.413
29293WAT      O88120   7.420   2.620   8.497
29293WAT     H188121   7.388   2.599   8.589
29293WAT     H288122   7.520   2.621   8.495
29294WAT      O88123   1.611   7.133   8.679
29294WAT     H188124   1.653   7.074   8.748
29294WAT     H288125   1.541   7.190   8.723
29295WAT      O88126   4.132   6.361   9.642
29295WAT     H188127   4.144   6.343   9.739
29295WAT     H288128   4.036   6.381   9.623
29296WAT      O88129   8.758   3.767   7.167
29296WAT     H188130   8.668   3.756   7.124
29296WAT     H288131   8.829   3.736   7.103
29297WAT      O88132   8.723   0.896   9.862
29297WAT     H188133   8.654   0.928   9.927
29297WAT     H288134   8.795   0.847   9.912
29298WAT      O88135   2.070   3.212   5.131
29298WAT     H188136   2.040   3.147   5.061
29298WAT     H288137   1.990   3.258   5.170
29299WAT      O88138   6.700   8.216   7.636
29299WAT     H188139   6.681   8.293   7.697
29299WAT     H288140   6.797   8.215   7.612
29300WAT      O88141   9.429   3.798   5.826
29300WAT     H188142   9.441   3.711   5.779
29300WAT     H288143   9.363   3.854   5.775
29301WAT      O88144   2.566   9.095   8.955
29301WAT     H188145   2.624   9.018   8.930
29301WAT     H288146   2.604   9.141   9.035
29302WAT      O88147   2.555   9.715   1.286
29302WAT     H188148   2.653   9.697   1.285
29302WAT     H288149   2.516   9.694   1.196
29303WAT      O88150   2.119   6.728   2.381
29303WAT     H188151   2.164   6.801   2.432
29303WAT     H288152   2.167   6.641   2.396
29304WAT      O88153   1.469   7.026   1.068
29304WAT     H188154   1.427   7.113   1.091
29304WAT     H288155   1.536   7.002   1.138
29305WAT      O88156   7.887   5.227   3.438
29305WAT     H188157   7.984   5.200   3.434
29305WAT     H288158   7.854   5.248   3.346
29306WAT      O88159   3.944   4.233   2.641
29306WAT     H188160   3.847   4.244   2.664
29306WAT     H288161   3.978   4.147   2.678
29307WAT      O88162   0.773   4.770   1.428
29307WAT     H188163   0.762   4.671   1.427
29307WAT     H288164   0.796   4.801   1.520
29308WAT      O88165   5.468   8.267   2.417
29308WAT     H188166   5.389   8.254   2.477
29308WAT     H288167   5.552   8.266   2.470
29309WAT      O88168   7.769   1.721   0.500
29309WAT     H188169   7.680   1.760   0.474
29309WAT     H288170   7.791   1.645   0.440
29310WAT      O88171   1.582   0.447   6.029
29310WAT     H188172   1.507   0.470   5.967
29310WAT     H288173   1.623   0.360   6.000
29311WAT      O88174   3.011   3.682   8.335
29311WAT     H188175   3.011   3.586   8.364
29311WAT     H288176   3.015   3.740   8.416
29312WAT      O88177   4.607   3.616   2.086
29312WAT     H188178   4.529   3.569   2.044
29312WAT     H288179   4.574   3.697   2.135
29313WAT      O88180   1.301   8.415   9.263
29313WAT     H188181   1.365   8.493   9.256
29313WAT     H288182   1.345   8.341   9.313
29314WAT      O88183   6.621   0.053   8.362
29314WAT     H188184   6.634   0.098   8.451
29314WAT     H288185   6.640  -0.045   8.372
29315WAT      O88186   2.285   4.128   9.561
29315WAT     H188187   2.325   4.205   9.512
29315WAT     H288188   2.333   4.044   9.537
29316WAT      O88189   7.363   0.142   3.864
29316WAT     H188190   7.295   0.202   3.906
29316WAT     H288191   7.384   0.067   3.927
29317WAT      O88192   5.291   4.034   3.748
29317WAT     H188193   5.376   3.987   3.721
29317WAT     H288194   5.296   4.130   3.719
29318WAT      O88195   9.867   8.423   5.295
29318WAT     H188196   9.847   8.518   5.272
29318WAT     H288197   9.955   8.417   5.343
29319WAT      O88198   6.590   1.480   4.045
29319WAT     H188199   6.680   1.437   4.046
29319WAT     H288200   6.600   1.578   4.031
29320WAT      O88201   2.278   0.594   5.448
29320WAT     H188202   2.377   0.605   5.460
29320WAT     H288203   2.231   0.629   5.528
29321WAT      O88204   1.119   9.664   7.663
29321WAT     H188205   1.130   9.735   7.733
29321WAT     H288206   1.158   9.697   7.576
29322WAT      O88207   5.919   6.372   7.243
29322WAT     H188208   5.899   6.346   7.338
29322WAT     H288209   5.985   6.447   7.242
29323WAT      O88210   5.279   9.569   8.378
29323WAT     H188211   5.311   9.518   8.298
29323WAT     H288212   5.337   9.649   8.391
29324WAT      O88213   8.509   1.707   3.802
29324WAT     H188214   8.552   1.652   3.731
29324WAT     H288215   8.535   1.803   3.790
29325WAT      O88216   0.585   5.277   2.078
29325WAT     H188217   0.594   5.355   2.017
29325WAT     H288218   0.667   5.220   2.072
29326WAT      O88219   1.855   1.353   5.775
29326WAT     H188220   1.784   1.381   5.840
29326WAT     H288221   1.892   1.264   5.802
29327WAT      O88222   5.860   5.990   7.189
29327WAT     H188223   5.796   6.033   7.254
29327WAT     H288224   5.914   6.061   7.144
29328WAT      O88225   7.629   3.742   2.928
29328WAT     H188226   7.577   3.668   2.886
29328WAT     H288227   7.726   3.716   2.933
29329WAT      O88228   0.919   7.040   6.067
29329WAT     H188229   1.013   7.007   6.069
29329WAT     H288230   0.858   6.967   6.038
29330WAT      O88231   5.139   2.376   6.995
29330WAT     H188232   5.063   2.427   7.035
29330WAT     H288233   5.104   2.296   6.946
29331WAT      O88234   1.384   1.125   2.004
29331WAT     H188235   1.449   1.187   1.959
29331WAT     H288236   1.353   1.166   2.090
29332WAT      O88237   3.398   8.355   2.150
29332WAT     H188238   3.308   8.335   2.190
29332WAT     H288239   3.461   8.382   2.223
29333WAT      O88240   5.798   4.747   7.726
29333WAT     H188241   5.797   4.677   7.654
29333WAT     H288242   5.715   4.739   7.781
29334WAT      O88243   6.582   6.904   1.052
29334WAT     H188244   6.585   6.805   1.038
29334WAT     H288245   6.495   6.930   1.093
29335WAT      O88246   8.569   8.247   5.225
29335WAT     H188247   8.644   8.181   5.226
29335WAT     H288248   8.563   8.289   5.134
29336WAT      O88249   4.719   7.141   5.138
29336WAT     H188250   4.696   7.236   5.160
29336WAT     H288251   4.770   7.101   5.214
29337WAT      O88252   2.083   5.842   3.299
29337WAT     H188253   2.060   5.745   3.303
29337WAT     H288254   2.170   5.858   3.347
29338WAT      O88255   3.722   9.315   6.504
29338WAT     H188256   3.754   9.318   6.598
29338WAT     H288257   3.650   9.246   6.496
29339WAT      O88258   7.029   9.522   9.113
29339WAT     H188259   6.935   9.552   9.096
29339WAT     H288260   7.091   9.600   9.107
29340WAT      O88261   1.830   1.841   6.348
29340WAT     H188262   1.855   1.775   6.277
29340WAT     H288263   1.741   1.816   6.387
29341WAT      O88264   1.116   9.221   8.791
29341WAT     H188265   1.067   9.149   8.741
29341WAT     H288266   1.187   9.179   8.848
29342WAT      O88267   3.641   3.596   5.558
29342WAT     H188268   3.679   3.631   5.644
29342WAT     H288269   3.575   3.661   5.522
29343WAT      O88270   6.805   4.791   7.549
29343WAT     H188271   6.709   4.790   7.574
29343WAT     H288272   6.861   4.787   7.632
29344WAT      O88273   9.831   3.757   6.000
29344WAT     H188274   9.795   3.776   5.908
29344WAT     H288275   9.916   3.807   6.013
29345WAT      O88276   7.214   8.317   6.876
29345WAT     H188277   7.220   8.229   6.924
29345WAT     H288278   7.300   8.366   6.885
29346WAT      O88279   0.084   3.473   2.171
29346WAT     H188280   0.022   3.452   2.096
29346WAT     H288281   0.042   3.444   2.258
29347WAT      O88282   6.184   4.997   8.018
29347WAT     H188283   6.160   4.903   7.992
29347WAT     H288284   6.189   5.004   8.117
29348WAT      O88285   8.666   8.051   7.626
29348WAT     H188286   8.723   8.130   7.606
29348WAT     H288287   8.634   8.056   7.721
29349WAT      O88288   1.077   4.251   4.237
29349WAT     H188289   1.123   4.335   4.209
29349WAT     H288290   1.014   4.271   4.312
29350WAT      O88291   8.532   2.405   0.022
29350WAT     H188292   8.583   2.476  -0.028
29350WAT     H288293   8.486   2.447   0.100
29351WAT      O88294   9.654   4.218   9.443
29351WAT     H188295   9.595   4.172   9.509
29351WAT     H288296   9.609   4.221   9.354
29352WAT      O88297   5.208   5.304   3.707
29352WAT     H188298   5.198   5.215   3.752
29352WAT     H288299   5.195   5.293   3.609
29353WAT      O88300   0.295   8.572   9.762
29353WAT     H188301   0.361   8.519   9.814
29353WAT     H288302   0.204   8.557   9.799
29354WAT      O88303   4.197   1.133   8.880
29354WAT     H188304   4.179   1.047   8.831
29354WAT     H288305   4.114   1.161   8.929
29355WAT      O88306   8.768   5.833   7.054
29355WAT     H188307   8.788   5.741   7.022
29355WAT     H288308   8.724   5.885   6.980
29356WAT      O88309   5.100   7.781   1.701
29356WAT     H188310   5.046   7.816   1.625
29356WAT     H288311   5.105   7.681   1.696
29357WAT      O88312   7.370   2.505   3.553
29357WAT     H188313   7.350   2.546   3.642
29357WAT     H288314   7.293   2.448   3.525
29358WAT      O88315   2.193   1.819   4.370
29358WAT     H188316   2.186   1.721   4.388
29358WAT     H288317   2.151   1.839   4.281
29359WAT      O88318   3.055   5.303   8.652
29359WAT     H188319   3.099   5.214   8.648
29359WAT     H288320   3.071   5.353   8.567
29360WAT      O88321   3.387   8.705   9.511
29360WAT     H188322   3.386   8.798   9.475
29360WAT     H288323   3.414   8.641   9.439
29361WAT      O88324   6.363   1.106   1.765
29361WAT     H188325   6.441   1.115   1.827
29361WAT     H288326   6.323   1.197   1.748
29362WAT      O88327   3.797   2.874   2.074
29362WAT     H188328   3.758   2.784   2.054
29362WAT     H288329   3.729   2.930   2.120
29363WAT      O88330   8.940   1.647   6.089
29363WAT     H188331   8.926   1.550   6.109
29363WAT     H288332   8.993   1.657   6.005
29364WAT      O88333   2.896   0.043   8.963
29364WAT     H188334   2.891  -0.053   8.990
29364WAT     H288335   2.978   0.085   9.001
29365WAT      O88336   0.382   4.698   3.688
29365WAT     H188337   0.335   4.783   3.712
29365WAT     H288338   0.381   4.636   3.767
29366WAT      O88339   3.491   9.177   0.638
29366WAT     H188340   3.403   9.220   0.619
29366WAT     H288341   3.538   9.158   0.552
29367WAT      O88342   8.453   2.511   3.236
29367WAT     H188343   8.419   2.519   3.143
29367WAT     H288344   8.386   2.462   3.292
29368WAT      O88345   7.289   0.690   1.695
29368WAT     H188346   7.306   0.604   1.646
29368WAT     H288347   7.371   0.747   1.691
29369WAT      O88348   9.401   5.586   3.122
29369WAT     H188349   9.318   5.595   3.067
29369WAT     H288350   9.399   5.652   3.197
29370WAT      O88351   2.256   1.985   8.810
29370WAT     H188352   2.284   2.018   8.720
29370WAT     H288353   2.289   2.048   8.880
29371WAT      O88354   5.461   3.055   2.638
29371WAT     H188355   5.508   3.061   2.726
29371WAT     H288356   5.376   3.108   2.643
29372WAT      O88357   0.205   8.204   6.528
29372WAT     H188358   0.185   8.125   6.470
29372WAT     H288359   0.284   8.252   6.491
29373WAT      O88360   4.906   3.919   4.913
29373WAT     H188361   4.945   3.836   4.873
29373WAT     H288362   4.826   3.947   4.859
29374WAT      O88363   9.822   0.965   5.895
29374WAT     H188364   9.870   1.051   5.884
29374WAT     H288365   9.798   0.928   5.804
29375WAT      O88366   2.798   2.425   0.168
29375WAT     H188367   2.862   2.353   0.141
29375WAT     H288368   2.712   2.384   0.197
29376WAT      O88369   4.221   7.805   7.863
29376WAT     H188370   4.163   7.879   7.896
29376WAT     H288371   4.215   7.728   7.926
29377WAT      O88372   4.409   8.010   1.456
29377WAT     H188373   4.421   7.937   1.388
29377WAT     H288374   4.356   8.085   1.415
29378WAT      O88375   3.732   3.858   0.672
29378WAT     H188376   3.776   3.784   0.723
29378WAT     H288377   3.647   3.824   0.631
29379WAT      O88378   8.647   9.174   5.225
29379WAT     H188379   8.550   9.197   5.219
29379WAT     H288380   8.660   9.103   5.295
29380WAT      O88381   4.416   0.489   0.178
29380WAT     H188382   4.381   0.572   0.222
29380WAT     H288383   4.357   0.466   0.100
29381WAT      O88384   1.955   9.494   7.000
29381WAT     H188385   1.971   9.565   6.931
29381WAT     H288386   1.897   9.530   7.073
29382WAT      O88387   5.075   5.575   9.744
29382WAT     H188388   5.087   5.672   9.722
29382WAT     H288389   5.164   5.529   9.742
29383WAT      O88390   6.121   4.105   8.762
29383WAT     H188391   6.215   4.103   8.726
29383WAT     H288392   6.117   4.055   8.848
29384WAT      O88393   7.378   4.128   3.864
29384WAT     H188394   7.293   4.178   3.879
29384WAT     H288395   7.448   4.191   3.832
29385WAT      O88396   6.005   1.333   5.080
29385WAT     H188397   6.064   1.353   5.159
29385WAT     H288398   6.032   1.391   5.003
29386WAT      O88399   0.472   1.739   3.242
29386WAT     H188400   0.396   1.785   3.287
29386WAT     H288401   0.489   1.651   3.286
29387WAT      O88402   7.803   6.175   5.287
29387WAT     H188403   7.759   6.182   5.376
29387WAT     H288404   7.847   6.262   5.264
29388WAT      O88405   0.313   8.874   1.182
29388WAT     H188406   0.306   8.783   1.140
29388WAT     H288407   0.398   8.917   1.154
29389WAT      O88408   6.801   9.363   9.482
29389WAT     H188409   6.841   9.422   9.552
29389WAT     H288410   6.858   9.282   9.470
29390WAT      O88411   3.786   0.737   4.612
29390WAT     H188412   3.823   0.802   4.546
29390WAT     H288413   3.686   0.734   4.603
29391WAT      O88414   7.599   5.058   2.131
29391WAT     H188415   7.686   5.044   2.083
29391WAT     H288416   7.524   5.036   2.069
29392WAT      O88417   0.373   0.795   2.830
29392WAT     H188418   0.432   0.871   2.804
29392WAT     H288419   0.358   0.796   2.929
29393WAT      O88420   4.843   1.703   7.180
29393WAT     H188421   4.748   1.712   7.209
29393WAT     H288422   4.847   1.664   7.089
29394WAT      O88423   0.176   0.038   7.896
29394WAT     H188424   0.105   0.081   7.839
29394WAT     H288425   0.135  -0.034   7.951
29395WAT      O88426   4.145   5.229   0.750
29395WAT     H188427   4.181   5.136   0.764
29395WAT     H288428   4.046   5.224   0.741
29396WAT      O88429   3.743   9.667   6.780
29396WAT     H188430   3.750   9.745   6.842
29396WAT     H288431   3.829   9.655   6.731
29397WAT      O88432   0.760   3.013   5.428
29397WAT     H188433   0.733   3.074   5.502
29397WAT     H288434   0.751   2.918   5.456
29398WAT      O88435   7.980   8.579   7.173
29398WAT     H188436   7.904   8.526   7.134
29398WAT     H288437   7.951   8.674   7.183
29399WAT      O88438   3.348   8.582   6.908
29399WAT     H188439   3.256   8.579   6.946
29399WAT     H288440   3.359   8.666   6.854
29400WAT      O88441   1.581   8.567   3.046
29400WAT     H188442   1.598   8.638   2.978
29400WAT     H288443   1.485   8.569   3.073
29401WAT      O88444   3.387   7.255   3.209
29401WAT     H188445   3.334   7.339   3.222
29401WAT     H288446   3.381   7.200   3.292
29402WAT      O88447   6.112   7.084   6.781
29402WAT     H188448   6.083   7.132   6.699
29402WAT     H288449   6.203   7.116   6.808
29403WAT      O88450   7.657   7.945   7.699
29403WAT     H188451   7.753   7.917   7.707
29403WAT     H288452   7.608   7.880   7.642
29404WAT      O88453   0.439   5.299   6.764
29404WAT     H188454   0.502   5.337   6.697
29404WAT     H288455   0.438   5.199   6.755
29405WAT      O88456   8.732   6.924   8.919
29405WAT     H188457   8.814   6.980   8.927
29405WAT     H288458   8.715   6.877   9.005
29406WAT      O88459   0.394   9.216   0.868
29406WAT     H188460   0.369   9.260   0.781
29406WAT     H288461   0.397   9.117   0.855
29407WAT      O88462   7.387   1.580   1.840
29407WAT     H188463   7.400   1.512   1.912
29407WAT     H288464   7.450   1.562   1.765
29408WAT      O88465   8.677   3.521   1.553
29408WAT     H188466   8.749   3.506   1.621
29408WAT     H288467   8.712   3.580   1.480
29409WAT      O88468   6.065   1.025   0.742
29409WAT     H188469   6.079   1.039   0.644
29409WAT     H288470   5.989   1.083   0.773
29410WAT      O88471   0.210   7.900   7.937
29410WAT     H188472   0.257   7.817   7.967
29410WAT     H288473   0.277   7.964   7.900
29411WAT      O88474   6.028   4.541   6.078
29411WAT     H188475   6.107   4.588   6.038
29411WAT     H288476   6.037   4.443   6.065
29412WAT      O88477   7.106   5.332   2.604
29412WAT     H188478   7.191   5.373   2.572
29412WAT     H288479   7.028   5.381   2.564
29413WAT      O88480   0.519   2.238   0.939
29413WAT     H188481   0.500   2.237   1.037
29413WAT     H288482   0.465   2.309   0.894
29414WAT      O88483   6.904   2.328   9.307
29414WAT     H188484   6.915   2.313   9.406
29414WAT     H288485   6.908   2.426   9.288
29415WAT      O88486   6.612   6.316   9.283
29415WAT     H188487   6.630   6.329   9.380
29415WAT     H288488   6.676   6.373   9.230
29416WAT      O88489   4.094   3.690   9.504
29416WAT     H188490   4.096   3.603   9.554
29416WAT     H288491   4.132   3.762   9.561
29417WAT      O88492   6.825   3.095   4.657
29417WAT     H188493   6.870   3.033   4.721
29417WAT     H288494   6.871   3.183   4.657
29418WAT      O88495   5.648   2.618   6.375
29418WAT     H188496   5.724   2.650   6.318
29418WAT     H288497   5.661   2.650   6.469
29419WAT      O88498   4.784   4.314   9.530
29419WAT     H188499   4.728   4.396   9.527
29419WAT     H288500   4.817   4.292   9.438
29420WAT      O88501   6.979   7.184   0.961
29420WAT     H188502   7.001   7.277   0.992
29420WAT     H288503   6.909   7.144   1.020
29421WAT      O88504   1.302   1.488   4.667
29421WAT     H188505   1.310   1.517   4.762
29421WAT     H288506   1.219   1.433   4.656
29422WAT      O88507   2.298   1.438   6.075
29422WAT     H188508   2.283   1.534   6.051
29422WAT     H288509   2.391   1.426   6.109
29423WAT      O88510   4.714   7.879   1.456
29423WAT     H188511   4.695   7.965   1.504
29423WAT     H288512   4.811   7.857   1.465
29424WAT      O88513   7.709   0.169   6.627
29424WAT     H188514   7.731   0.222   6.708
29424WAT     H288515   7.793   0.135   6.585
29425WAT      O88516   7.134   9.609   9.591
29425WAT     H188517   7.164   9.581   9.500
29425WAT     H288518   7.037   9.588   9.603
29426WAT      O88519   7.813   8.787   7.076
29426WAT     H188520   7.790   8.881   7.100
29426WAT     H288521   7.828   8.781   6.977
29427WAT      O88522   0.544   5.524   1.079
29427WAT     H188523   0.498   5.448   1.032
29427WAT     H288524   0.534   5.607   1.025
29428WAT      O88525   2.998   5.434   2.669
29428WAT     H188526   2.918   5.448   2.611
29428WAT     H288527   2.973   5.378   2.748
29429WAT      O88528   3.349   2.338   6.769
29429WAT     H188529   3.275   2.405   6.774
29429WAT     H288530   3.371   2.305   6.861
29430WAT      O88531   3.609   9.572   9.013
29430WAT     H188532   3.649   9.636   9.077
29430WAT     H288533   3.548   9.621   8.951
29431WAT      O88534   8.233   8.362   1.562
29431WAT     H188535   8.294   8.388   1.637
29431WAT     H288536   8.281   8.375   1.475
29432WAT      O88537   9.725   9.409   2.219
29432WAT     H188538   9.722   9.467   2.300
29432WAT     H288539   9.820   9.395   2.192
29433WAT      O88540   6.711   1.879   8.145
29433WAT     H188541   6.689   1.782   8.149
29433WAT     H288542   6.782   1.894   8.075
29434WAT      O88543   3.123   6.616   1.686
29434WAT     H188544   3.139   6.568   1.599
29434WAT     H288545   3.123   6.715   1.670
29435WAT      O88546   6.889   8.509   4.866
29435WAT     H188547   6.975   8.480   4.909
29435WAT     H288548   6.816   8.445   4.889
29436WAT      O88549   6.326   8.715   1.282
29436WAT     H188550   6.358   8.647   1.215
29436WAT     H288551   6.285   8.792   1.235
29437WAT      O88552   8.343   0.636   3.192
29437WAT     H188553   8.439   0.610   3.183
29437WAT     H288554   8.295   0.568   3.248
29438WAT      O88555   3.691   9.849   4.711
29438WAT     H188556   3.661   9.768   4.660
29438WAT     H288557   3.737   9.820   4.795
29439WAT      O88558   6.624   1.180   8.354
29439WAT     H188559   6.601   1.192   8.451
29439WAT     H288560   6.558   1.231   8.298
29440WAT      O88561   4.454   8.743   7.830
29440WAT     H188562   4.425   8.752   7.925
29440WAT     H288563   4.380   8.703   7.776
29441WAT      O88564   8.755   0.109   2.295
29441WAT     H188565   8.700   0.069   2.222
29441WAT     H288566   8.756   0.208   2.285
29442WAT      O88567   9.195   1.284   2.113
29442WAT     H188568   9.133   1.319   2.183
29442WAT     H288569   9.240   1.201   2.147
29443WAT      O88570   6.567   5.262   7.770
29443WAT     H188571   6.553   5.331   7.841
29443WAT     H288572   6.515   5.180   7.793
29444WAT      O88573   2.139   8.708   2.267
29444WAT     H188574   2.040   8.708   2.279
29444WAT     H288575   2.168   8.795   2.227
29445WAT      O88576   5.082   8.416   0.525
29445WAT     H188577   5.120   8.460   0.606
29445WAT     H288578   5.155   8.371   0.474
29446WAT      O88579   7.404   5.629   7.662
29446WAT     H188580   7.319   5.587   7.695
29446WAT     H288581   7.421   5.714   7.712
29447WAT      O88582   4.347   7.799   3.912
29447WAT     H188583   4.335   7.742   3.831
29447WAT     H288584   4.324   7.894   3.890
29448WAT      O88585   7.906   7.910   6.639
29448WAT     H188586   7.845   7.837   6.607
29448WAT     H288587   7.886   7.995   6.590
29449WAT      O88588   2.154   0.507   8.755
29449WAT     H188589   2.061   0.472   8.742
29449WAT     H288590   2.219   0.431   8.753
29450WAT      O88591   0.597   0.206   2.205
29450WAT     H188592   0.530   0.157   2.260
29450WAT     H288593   0.556   0.288   2.167
29451WAT      O88594   9.179   9.072   6.992
29451WAT     H188595   9.162   8.974   6.989
29451WAT     H288596   9.111   9.120   6.936
29452WAT      O88597   2.110   7.870   2.133
29452WAT     H188598   2.187   7.933   2.136
29452WAT     H288599   2.122   7.806   2.057
29453WAT      O88600   9.695   3.486   0.199
29453WAT     H188601   9.605   3.498   0.156
29453WAT     H288602   9.683   3.448   0.291
29454WAT      O88603   6.359   2.629   2.191
29454WAT     H188604   6.404   2.547   2.226
29454WAT     H288605   6.428   2.693   2.157
29455WAT      O88606   0.682   7.108   0.135
29455WAT     H188607   0.725   7.018   0.145
29455WAT     H288608   0.589   7.097   0.100
29456WAT      O88609   4.667   3.004   7.097
29456WAT     H188610   4.619   3.008   7.185
29456WAT     H288611   4.600   3.007   7.023
29457WAT      O88612   5.862   4.010   0.755
29457WAT     H188613   5.774   4.024   0.801
29457WAT     H288614   5.877   4.082   0.687
29458WAT      O88615   7.225   9.772   0.756
29458WAT     H188616   7.267   9.853   0.716
29458WAT     H288617   7.226   9.779   0.856
29459WAT      O88618   7.734   6.305   2.700
29459WAT     H188619   7.826   6.293   2.661
29459WAT     H288620   7.738   6.291   2.799
29460WAT      O88621   0.974   2.373   6.880
29460WAT     H188622   0.997   2.377   6.977
29460WAT     H288623   0.926   2.287   6.861
29461WAT      O88624   6.115   3.507   9.644
29461WAT     H188625   6.153   3.579   9.584
29461WAT     H288626   6.125   3.418   9.599
29462WAT      O88627   1.599   7.542   8.499
29462WAT     H188628   1.684   7.593   8.511
29462WAT     H288629   1.609   7.477   8.424
29463WAT      O88630   5.747   9.061   9.196
29463WAT     H188631   5.824   9.076   9.257
29463WAT     H288632   5.685   9.140   9.200
29464WAT      O88633   0.016   5.994   2.433
29464WAT     H188634  -0.016   5.966   2.523
29464WAT     H288635  -0.048   5.963   2.363
29465WAT      O88636   7.623   1.384   4.902
29465WAT     H188637   7.613   1.440   4.984
29465WAT     H288638   7.564   1.419   4.829
29466WAT      O88639   7.076   3.603   1.974
29466WAT     H188640   7.150   3.670   1.965
29466WAT     H288641   7.108   3.525   2.027
29467WAT      O88642   4.187   9.602   7.232
29467WAT     H188643   4.227   9.616   7.322
29467WAT     H288644   4.240   9.651   7.163
29468WAT      O88645   1.284   9.673   2.504
29468WAT     H188646   1.324   9.739   2.440
29468WAT     H288647   1.185   9.686   2.508
29469WAT      O88648   1.327   8.686   6.505
29469WAT     H188649   1.243   8.677   6.559
29469WAT     H288650   1.314   8.753   6.432
29470WAT      O88651   5.824   1.162   5.807
29470WAT     H188652   5.791   1.087   5.749
29470WAT     H288653   5.749   1.195   5.864
29471WAT      O88654   3.754   0.312   0.375
29471WAT     H188655   3.786   0.390   0.322
29471WAT     H288656   3.661   0.288   0.346
29472WAT      O88657   0.956   9.013   3.408
29472WAT     H188658   0.909   9.095   3.442
29472WAT     H288659   0.936   9.000   3.311
29473WAT      O88660   7.944   1.999   7.127
29473WAT     H188661   7.937   1.907   7.088
29473WAT     H288662   8.015   2.050   7.079
29474WAT      O88663   2.219   7.457   1.959
29474WAT     H188664   2.186   7.363   1.957
29474WAT     H288665   2.258   7.480   1.869
29475WAT      O88666   1.327   4.954   6.356
29475WAT     H188667   1.252   4.895   6.386
29475WAT     H288668   1.304   5.050   6.375
29476WAT      O88669   5.326   5.577   6.642
29476WAT     H188670   5.283   5.530   6.719
29476WAT     H288671   5.279   5.664   6.626
29477WAT      O88672   1.485   6.306   9.018
29477WAT     H188673   1.395   6.320   8.975
29477WAT     H288674   1.556   6.345   8.960
29478WAT      O88675   6.751   3.670   2.021
29478WAT     H188676   6.848   3.649   2.009
29478WAT     H288677   6.703   3.590   2.056
29479WAT      O88678   2.940   2.574   1.973
29479WAT     H188679   2.992   2.589   2.057
29479WAT     H288680   2.987   2.619   1.897
29480WAT      O88681   4.706   3.855   3.868
29480WAT     H188682   4.765   3.933   3.891
29480WAT     H288683   4.653   3.876   3.786
29481WAT      O88684   9.719   1.486   0.633
29481WAT     H188685   9.764   1.567   0.596
29481WAT     H288686   9.702   1.420   0.560
29482WAT      O88687   4.855   3.042   4.753
29482WAT     H188688   4.826   2.972   4.819
29482WAT     H288689   4.852   3.004   4.661
29483WAT      O88690   2.420   1.694   7.728
29483WAT     H188691   2.477   1.758   7.779
29483WAT     H288692   2.438   1.601   7.761
29484WAT      O88693   8.342   2.804   2.535
29484WAT     H188694   8.297   2.720   2.507
29484WAT     H288695   8.436   2.804   2.501
29485WAT      O88696   1.315   7.466   7.632
29485WAT     H188697   1.250   7.398   7.597
29485WAT     H288698   1.374   7.497   7.558
29486WAT      O88699   7.228   5.680   3.973
29486WAT     H188700   7.213   5.614   3.899
29486WAT     H288701   7.311   5.657   4.023
29487WAT      O88702   7.530   0.648   5.658
29487WAT     H188703   7.573   0.627   5.746
29487WAT     H288704   7.597   0.638   5.585
29488WAT      O88705   0.085   2.100   8.270
29488WAT     H188706   0.153   2.102   8.343
29488WAT     H288707   0.032   2.016   8.275
29489WAT      O88708   8.928   5.731   0.258
29489WAT     H188709   8.974   5.817   0.237
29489WAT     H288710   8.924   5.674   0.177
29490WAT      O88711   0.268   7.206   2.086
29490WAT     H188712   0.361   7.176   2.109
29490WAT     H288713   0.271   7.264   2.006
29491WAT      O88714   1.347   8.444   3.385
29491WAT     H188715   1.404   8.367   3.414
29491WAT     H288716   1.332   8.506   3.462
29492WAT      O88717   2.370   4.295   9.362
29492WAT     H188718   2.366   4.391   9.334
29492WAT     H288719   2.457   4.255   9.334
29493WAT      O88720   4.941   2.090   4.592
29493WAT     H188721   4.963   2.062   4.686
29493WAT     H288722   4.962   2.187   4.581
29494WAT      O88723   8.497   7.088   2.485
29494WAT     H188724   8.483   7.104   2.583
29494WAT     H288725   8.436   7.147   2.433
29495WAT      O88726   7.232   3.827   4.993
29495WAT     H188727   7.196   3.842   5.085
29495WAT     H288728   7.290   3.745   4.994
29496WAT      O88729   2.787   3.661   0.181
29496WAT     H188730   2.865   3.607   0.212
29496WAT     H288731   2.708   3.601   0.167
29497WAT      O88732   9.341   8.593   3.229
29497WAT     H188733   9.252   8.604   3.185
29497WAT     H288734   9.388   8.515   3.189
29498WAT      O88735   2.059   3.436   6.150
29498WAT     H188736   2.146   3.485   6.163
29498WAT     H288737   2.032   3.442   6.054
29499WAT      O88738   4.318   5.947   0.084
29499WAT     H188739   4.287   5.977  -0.006
29499WAT     H288740   4.340   6.027   0.140
29500WAT      O88741   0.676   4.029   0.605
29500WAT     H188742   0.683   4.106   0.669
29500WAT     H288743   0.706   3.945   0.650
29501WAT      O88744   3.589   5.328   3.841
29501WAT     H188745   3.637   5.318   3.754
29501WAT     H288746   3.493   5.350   3.824
29502WAT      O88747   7.087   9.476   0.087
29502WAT     H188748   7.078   9.575   0.075
29502WAT     H288749   7.006   9.431   0.052
29503WAT      O88750   1.696   7.899   3.647
29503WAT     H188751   1.746   7.860   3.724
29503WAT     H288752   1.702   7.838   3.568
29504WAT      O88753   5.639   7.724   3.394
29504WAT     H188754   5.589   7.765   3.318
29504WAT     H288755   5.593   7.640   3.422
29505WAT      O88756   8.692   2.358   1.019
29505WAT     H188757   8.727   2.365   1.113
29505WAT     H288758   8.607   2.306   1.019
29506WAT      O88759   9.022   9.336   0.984
29506WAT     H188760   8.947   9.286   0.941
29506WAT     H288761   9.095   9.351   0.917
29507WAT      O88762   6.904   6.742   8.841
29507WAT     H188763   6.829   6.796   8.802
29507WAT     H288764   6.926   6.666   8.780
29508WAT      O88765   2.142   6.561   3.691
29508WAT     H188766   2.104   6.469   3.698
29508WAT     H288767   2.189   6.571   3.604
29509WAT      O88768   4.679   2.412   1.386
29509WAT     H188769   4.720   2.464   1.311
29509WAT     H288770   4.580   2.427   1.386
29510WAT      O88771   1.675   7.503   0.547
29510WAT     H188772   1.635   7.566   0.613
29510WAT     H288773   1.602   7.447   0.506
29511WAT      O88774   0.515   0.433   8.399
29511WAT     H188775   0.460   0.359   8.438
29511WAT     H288776   0.578   0.395   8.331
29512WAT      O88777   8.016   8.813   9.354
29512WAT     H188778   8.038   8.854   9.442
29512WAT     H288779   8.100   8.789   9.305
29513WAT      O88780   6.918   4.505   4.583
29513WAT     H188781   6.932   4.406   4.583
29513WAT     H288782   6.952   4.543   4.669
29514WAT      O88783   4.297   0.556   6.622
29514WAT     H188784   4.218   0.570   6.682
29514WAT     H288785   4.266   0.518   6.535
29515WAT      O88786   9.462   6.235   2.381
29515WAT     H188787   9.552   6.275   2.365
29515WAT     H288788   9.394   6.284   2.326
29516WAT      O88789   5.127   0.360   8.340
29516WAT     H188790   5.045   0.378   8.287
29516WAT     H288791   5.149   0.262   8.336
29517WAT      O88792   5.925   6.753   9.685
29517WAT     H188793   5.899   6.849   9.698
29517WAT     H288794   5.903   6.701   9.767
29518WAT      O88795   8.810   1.666   9.587
29518WAT     H188796   8.875   1.734   9.554
29518WAT     H288797   8.754   1.706   9.660
29519WAT      O88798   7.471   3.944   3.511
29519WAT     H188799   7.557   3.928   3.463
29519WAT     H288800   7.440   4.038   3.494
29520WAT      O88801   9.353   2.306   1.733
29520WAT     H188802   9.337   2.261   1.645
29520WAT     H288803   9.369   2.404   1.719
29521WAT      O88804   5.588   4.595   0.570
29521WAT     H188805   5.673   4.586   0.622
29521WAT     H288806   5.531   4.515   0.587
29522WAT      O88807   2.727   8.056   1.669
29522WAT     H188808   2.787   8.043   1.748
29522WAT     H288809   2.679   8.143   1.677
29523WAT      O88810   3.456   6.700   1.003
29523WAT     H188811   3.510   6.700   1.087
29523WAT     H288812   3.366   6.660   1.021
29524WAT      O88813   1.026   6.927   8.232
29524WAT     H188814   1.031   6.870   8.151
29524WAT     H288815   1.118   6.960   8.255
29525WAT      O88816   2.041   2.195   3.905
29525WAT     H188817   1.997   2.136   3.837
29525WAT     H288818   2.059   2.143   3.989
29526WAT      O88819   1.691   6.260   9.388
29526WAT     H188820   1.598   6.297   9.393
29526WAT     H288821   1.716   6.245   9.293
29527WAT      O88822   4.736   7.701   8.302
29527WAT     H188823   4.744   7.786   8.353
29527WAT     H288824   4.793   7.706   8.220
29528WAT      O88825   1.789   3.723   3.697
29528WAT     H188826   1.750   3.734   3.788
29528WAT     H288827   1.777   3.629   3.666
29529WAT      O88828   9.342   4.219   1.213
29529WAT     H188829   9.324   4.150   1.282
29529WAT     H288830   9.273   4.213   1.141
29530WAT      O88831   4.966   5.921   1.067
29530WAT     H188832   4.892   5.868   1.109
29530WAT     H288833   4.996   5.993   1.130
29531WAT      O88834   6.244   8.376   6.525
29531WAT     H188835   6.303   8.452   6.553
29531WAT     H288836   6.301   8.298   6.498
29532WAT      O88837   5.839   0.993   2.460
29532WAT     H188838   5.857   1.091   2.469
29532WAT     H288839   5.854   0.948   2.548
29533WAT      O88840   0.608   7.048   4.788
29533WAT     H188841   0.630   7.094   4.702
29533WAT     H288842   0.521   7.083   4.824
29534WAT      O88843   5.304   5.760   0.165
29534WAT     H188844   5.319   5.778   0.068
29534WAT     H288845   5.389   5.727   0.206
29535WAT      O88846   8.745   2.928   0.360
29535WAT     H188847   8.682   2.923   0.283
29535WAT     H288848   8.715   3.000   0.422
29536WAT      O88849   9.779   9.517   5.982
29536WAT     H188850   9.795   9.478   6.072
29536WAT     H288851   9.765   9.443   5.915
29537WAT      O88852   0.625   9.058   0.260
29537WAT     H188853   0.618   9.022   0.167
29537WAT     H288854   0.643   9.156   0.257
29538WAT      O88855   6.238   7.300   5.211
29538WAT     H188856   6.303   7.265   5.278
29538WAT     H288857   6.145   7.278   5.240
29539WAT      O88858   3.397   5.085   1.145
29539WAT     H188859   3.350   5.020   1.085
29539WAT     H288860   3.414   5.170   1.096
29540WAT      O88861   6.867   4.512   0.859
29540WAT     H188862   6.899   4.548   0.772
29540WAT     H288863   6.881   4.413   0.861
29541WAT      O88864   2.046   1.019   3.538
29541WAT     H188865   2.141   1.048   3.527
29541WAT     H288866   2.016   1.039   3.631
29542WAT      O88867   5.579   4.684   9.075
29542WAT     H188868   5.571   4.685   8.976
29542WAT     H288869   5.626   4.601   9.104
29543WAT      O88870   9.696   8.055   0.581
29543WAT     H188871   9.610   8.017   0.616
29543WAT     H288872   9.756   7.982   0.552
29544WAT      O88873   2.744   3.208   6.496
29544WAT     H188874   2.725   3.245   6.587
29544WAT     H288875   2.842   3.196   6.484
29545WAT      O88876   0.999   9.690   0.609
29545WAT     H188877   1.058   9.611   0.590
29545WAT     H288878   0.990   9.700   0.708
29546WAT      O88879   8.482   4.121   3.332
29546WAT     H188880   8.574   4.159   3.337
29546WAT     H288881   8.484   4.024   3.356
29547WAT      O88882   5.593   8.749   4.648
29547WAT     H188883   5.684   8.791   4.646
29547WAT     H288884   5.599   8.661   4.696
29548WAT      O88885   5.026   0.702   2.523
29548WAT     H188886   4.988   0.789   2.554
29548WAT     H288887   4.952   0.638   2.502
29549WAT      O88888   5.035   3.433   2.982
29549WAT     H188889   5.097   3.409   2.908
29549WAT     H288890   5.032   3.360   3.050
29550WAT      O88891   6.711   1.016   3.277
29550WAT     H188892   6.657   1.004   3.194
29550WAT     H288893   6.672   0.960   3.350
29551WAT      O88894   0.799   8.559   9.433
29551WAT     H188895   0.739   8.528   9.507
29551WAT     H288896   0.891   8.522   9.447
29552WAT      O88897   1.717   2.349   2.155
29552WAT     H188898   1.781   2.425   2.143
29552WAT     H288899   1.729   2.310   2.247
29553WAT      O88900   1.538   5.570   8.993
29553WAT     H188901   1.538   5.587   8.894
29553WAT     H288902   1.623   5.604   9.032
29554WAT      O88903   0.471   7.685   6.796
29554WAT     H188904   0.453   7.600   6.747
29554WAT     H288905   0.385   7.729   6.819
29555WAT      O88906   7.713   3.077   6.311
29555WAT     H188907   7.662   3.109   6.391
29555WAT     H288908   7.782   3.010   6.340
29556WAT      O88909   0.228   8.411   0.963
29556WAT     H188910   0.270   8.502   0.958
29556WAT     H288911   0.250   8.360   0.880
29557WAT      O88912   8.195   2.535   4.681
29557WAT     H188913   8.099   2.563   4.679
29557WAT     H288914   8.201   2.436   4.692
29558WAT      O88915   5.452   8.101   7.894
29558WAT     H188916   5.405   8.178   7.850
29558WAT     H288917   5.547   8.127   7.912
29559WAT      O88918   0.191   4.139   0.100
29559WAT     H188919   0.176   4.067   0.032
29559WAT     H288920   0.198   4.098   0.191
29560WAT      O88921   5.815   6.143   9.070
29560WAT     H188922   5.740   6.086   9.035
29560WAT     H288923   5.824   6.129   9.169
29561WAT      O88924   4.426   7.940   6.170
29561WAT     H188925   4.342   7.979   6.208
29561WAT     H288926   4.413   7.922   6.072
29562WAT      O88927   1.573   0.267   1.175
29562WAT     H188928   1.545   0.171   1.174
29562WAT     H288929   1.649   0.280   1.111
29563WAT      O88930   7.483   8.600   8.203
29563WAT     H188931   7.407   8.537   8.214
29563WAT     H288932   7.541   8.569   8.127
29564WAT      O88933   1.810   3.214   6.930
29564WAT     H188934   1.792   3.116   6.934
29564WAT     H288935   1.803   3.246   6.836
29565WAT      O88936   9.731   9.229   0.759
29565WAT     H188937   9.681   9.226   0.846
29565WAT     H288938   9.680   9.177   0.690
29566WAT      O88939   3.073   0.220   0.664
29566WAT     H188940   3.059   0.301   0.721
29566WAT     H288941   3.002   0.216   0.594
29567WAT      O88942   3.805   8.003   7.814
29567WAT     H188943   3.712   7.990   7.782
29567WAT     H288944   3.870   7.971   7.745
29568WAT      O88945   0.059   0.794   1.798
29568WAT     H188946   0.068   0.751   1.889
29568WAT     H288947   0.148   0.793   1.753
29569WAT      O88948   2.448   6.314   8.054
29569WAT     H188949   2.514   6.382   8.085
29569WAT     H288950   2.463   6.296   7.956
29570WAT      O88951   9.376   9.498   7.531
29570WAT     H188952   9.377   9.513   7.630
29570WAT     H288953   9.300   9.438   7.508
29571WAT      O88954   3.614   4.980   8.708
29571WAT     H188955   3.588   5.073   8.683
29571WAT     H288956   3.580   4.959   8.800
29572WAT      O88957   8.906   4.778   7.537
29572WAT     H188958   8.853   4.697   7.561
29572WAT     H288959   8.852   4.838   7.479
29573WAT      O88960   1.089   8.605   0.563
29573WAT     H188961   1.162   8.654   0.515
29573WAT     H288962   1.085   8.511   0.530
29574WAT      O88963   4.957   0.703   8.213
29574WAT     H188964   4.885   0.752   8.262
29574WAT     H288965   5.046   0.724   8.255
29575WAT      O88966   1.102   4.673   2.592
29575WAT     H188967   1.117   4.574   2.598
29575WAT     H288968   1.112   4.714   2.683
29576WAT      O88969   0.453   9.045   7.025
29576WAT     H188970   0.530   8.993   6.988
29576WAT     H288971   0.474   9.143   7.020
29577WAT      O88972   2.805   2.940   6.034
29577WAT     H188973   2.766   2.999   5.963
29577WAT     H288974   2.803   2.845   6.004
29578WAT      O88975   1.936   5.279   4.843
29578WAT     H188976   1.859   5.260   4.782
29578WAT     H288977   2.011   5.215   4.823
29579WAT      O88978   1.156   1.070   7.607
29579WAT     H188979   1.243   1.096   7.565
29579WAT     H288980   1.100   1.151   7.621
29580WAT      O88981   0.370   5.394   8.364
29580WAT     H188982   0.350   5.316   8.305
29580WAT     H288983   0.291   5.414   8.421
29581WAT      O88984   3.370   6.526   2.097
29581WAT     H188985   3.436   6.590   2.136
29581WAT     H288986   3.368   6.537   1.997
29582WAT      O88987   4.400   3.999   4.334
29582WAT     H188988   4.399   3.947   4.420
29582WAT     H288989   4.455   4.082   4.346
29583WAT      O88990   7.099   4.738   8.413
29583WAT     H188991   7.113   4.779   8.323
29583WAT     H288992   7.139   4.647   8.415
29584WAT      O88993   1.161   4.379   3.821
29584WAT     H188994   1.161   4.386   3.921
29584WAT     H288995   1.070   4.401   3.787
29585WAT      O88996   4.441   5.579   7.973
29585WAT     H188997   4.384   5.626   8.041
29585WAT     H288998   4.403   5.487   7.956
29586WAT      O88999   0.557   0.525   6.906
29586WAT     H189000   0.485   0.593   6.921
29586WAT     H289001   0.569   0.470   6.989
29587WAT      O89002   2.078   0.064   6.531
29587WAT     H189003   2.138   0.075   6.609
29587WAT     H289004   2.113  -0.009   6.472
29588WAT      O89005   0.630   8.300   7.482
29588WAT     H189006   0.547   8.340   7.443
29588WAT     H289007   0.689   8.268   7.408
29589WAT      O89008   1.810   7.203   7.167
29589WAT     H189009   1.750   7.213   7.087
29589WAT     H289010   1.904   7.192   7.137
29590WAT      O89011   8.882   2.713   0.498
29590WAT     H189012   8.829   2.636   0.461
29590WAT     H289013   8.848   2.798   0.459
29591WAT      O89014   3.359   7.299   7.907
29591WAT     H189015   3.416   7.303   7.825
29591WAT     H289016   3.416   7.317   7.987
29592WAT      O89017   0.774   3.406   0.941
29592WAT     H189018   0.871   3.418   0.921
29592WAT     H289019   0.764   3.341   1.016
29593WAT      O89020   0.661   0.410   5.181
29593WAT     H189021   0.680   0.504   5.210
29593WAT     H289022   0.696   0.396   5.088
29594WAT      O89023   5.985   7.480   6.180
29594WAT     H189024   5.967   7.390   6.143
29594WAT     H289025   5.988   7.547   6.106
29595WAT      O89026   4.760   0.883   5.009
29595WAT     H189027   4.726   0.791   4.990
29595WAT     H289028   4.857   0.878   5.033
29596WAT      O89029   4.072   1.206   4.089
29596WAT     H189030   4.009   1.129   4.083
29596WAT     H289031   4.154   1.185   4.035
29597WAT      O89032   6.971   3.921   8.974
29597WAT     H189033   6.888   3.880   8.935
29597WAT     H289034   7.046   3.855   8.967
29598WAT      O89035   5.624   6.838   1.069
29598WAT     H189036   5.540   6.832   1.122
29598WAT     H289037   5.640   6.752   1.021
29599WAT      O89038   5.884   1.264   3.858
29599WAT     H189039   5.855   1.201   3.929
29599WAT     H289040   5.844   1.354   3.874
29600WAT      O89041   8.919   7.761   6.760
29600WAT     H189042   8.940   7.805   6.847
29600WAT     H289043   9.004   7.738   6.713
29601WAT      O89044   6.686   5.407   1.355
29601WAT     H189045   6.731   5.318   1.369
29601WAT     H289046   6.601   5.393   1.305
29602WAT      O89047   8.943   0.402   2.652
29602WAT     H189048   8.947   0.434   2.746
29602WAT     H289049   9.023   0.345   2.632
29603WAT      O89050   4.534   7.874   9.524
29603WAT     H189051   4.587   7.923   9.455
29603WAT     H289052   4.594   7.846   9.599
29604WAT      O89053   9.271   9.403   0.847
29604WAT     H189054   9.252   9.485   0.793
29604WAT     H289055   9.358   9.363   0.817
29605WAT      O89056   3.142   8.299   1.291
29605WAT     H189057   3.196   8.349   1.223
29605WAT     H289058   3.202   8.263   1.362
29606WAT      O89059   5.110   4.864   9.174
29606WAT     H189060   5.031   4.925   9.163
29606WAT     H289061   5.096   4.782   9.120
29607WAT      O89062   5.179   3.868   8.516
29607WAT     H189063   5.143   3.804   8.584
29607WAT     H289064   5.251   3.924   8.558
29608WAT      O89065   8.476   5.531   2.732
29608WAT     H189066   8.478   5.496   2.826
29608WAT     H289067   8.551   5.595   2.719
29609WAT      O89068   7.057   3.526   7.464
29609WAT     H189069   7.028   3.533   7.369
29609WAT     H289070   7.120   3.602   7.485
29610WAT      O89071   8.293   2.735   0.205
29610WAT     H189072   8.335   2.789   0.278
29610WAT     H289073   8.197   2.716   0.229
29611WAT      O89074   4.079   7.682   2.850
29611WAT     H189075   3.995   7.656   2.803
29611WAT     H289076   4.145   7.607   2.846
29612WAT      O89077   2.725   4.852   4.406
29612WAT     H189078   2.805   4.867   4.348
29612WAT     H289079   2.707   4.754   4.413
29613WAT      O89080   2.769   2.898   6.524
29613WAT     H189081   2.730   2.915   6.433
29613WAT     H289082   2.762   2.981   6.579
29614WAT      O89083   6.260   5.196   8.717
29614WAT     H189084   6.171   5.238   8.703
29614WAT     H289085   6.328   5.266   8.736
29615WAT      O89086   3.709   2.891   0.325
29615WAT     H189087   3.649   2.816   0.299
29615WAT     H289088   3.742   2.937   0.242
29616WAT      O89089   3.762   2.802   8.754
29616WAT     H189090   3.766   2.711   8.795
29616WAT     H289091   3.833   2.859   8.795
29617WAT      O89092   2.905   9.197   4.573
29617WAT     H189093   2.838   9.194   4.648
29617WAT     H289094   2.865   9.245   4.495
29618WAT      O89095   1.164   6.175   8.484
29618WAT     H189096   1.151   6.119   8.402
29618WAT     H289097   1.155   6.272   8.460
29619WAT      O89098   5.405   4.873   5.778
29619WAT     H189099   5.438   4.878   5.872
29619WAT     H289100   5.378   4.779   5.757
29620WAT      O89101   8.490   3.714   6.127
29620WAT     H189102   8.568   3.743   6.182
29620WAT     H289103   8.423   3.667   6.185
29621WAT      O89104   7.001   9.556   6.272
29621WAT     H189105   6.952   9.622   6.215
29621WAT     H289106   6.972   9.463   6.246
29622WAT      O89107   2.630   9.631   9.269
29622WAT     H189108   2.550   9.576   9.292
29622WAT     H289109   2.697   9.576   9.219
29623WAT      O89110   3.699   2.857   6.478
29623WAT     H189111   3.687   2.950   6.513
29623WAT     H289112   3.690   2.857   6.378
29624WAT      O89113   6.722   8.858   8.182
29624WAT     H189114   6.643   8.804   8.152
29624WAT     H289115   6.705   8.894   8.274
29625WAT      O89116   6.303   3.260   2.984
29625WAT     H189117   6.363   3.339   2.973
29625WAT     H289118   6.251   3.269   3.069
29626WAT      O89119   5.761   8.473   4.166
29626WAT     H189120   5.854   8.440   4.185
29626WAT     H289121   5.762   8.573   4.156
29627WAT      O89122   5.302   9.236   5.494
29627WAT     H189123   5.311   9.227   5.395
29627WAT     H289124   5.279   9.331   5.517
29628WAT      O89125   0.318   8.931   6.368
29628WAT     H189126   0.253   8.977   6.307
29628WAT     H289127   0.410   8.966   6.353
29629WAT      O89128   1.502   9.263   8.095
29629WAT     H189129   1.544   9.232   8.010
29629WAT     H289130   1.429   9.328   8.074
29630WAT      O89131   4.199   5.577   7.678
29630WAT     H189132   4.243   5.536   7.757
29630WAT     H289133   4.111   5.533   7.662
29631WAT      O89134   1.178   9.065   7.518
29631WAT     H189135   1.149   8.973   7.492
29631WAT     H289136   1.101   9.113   7.561
29632WAT      O89137   2.044   4.457   8.951
29632WAT     H189138   2.118   4.404   8.910
29632WAT     H289139   2.066   4.475   9.047
29633WAT      O89140   3.945   6.969   0.196
29633WAT     H189141   4.037   7.008   0.203
29633WAT     H289142   3.888   7.027   0.139
29634WAT      O89143   7.178   0.258   1.427
29634WAT     H189144   7.094   0.204   1.420
29634WAT     H289145   7.170   0.339   1.370
29635WAT      O89146   3.943   3.536   1.543
29635WAT     H189147   3.894   3.450   1.554
29635WAT     H289148   3.960   3.577   1.632
29636WAT      O89149   9.274   6.588   7.746
29636WAT     H189150   9.344   6.517   7.757
29636WAT     H289151   9.318   6.676   7.729
29637WAT      O89152   5.071   9.581   0.983
29637WAT     H189153   4.998   9.620   0.927
29637WAT     H289154   5.043   9.490   1.015
29638WAT      O89155   9.148   0.472   5.466
29638WAT     H189156   9.139   0.447   5.562
29638WAT     H289157   9.181   0.566   5.459
29639WAT      O89158   1.664   5.557   6.951
29639WAT     H189159   1.624   5.495   7.018
29639WAT     H289160   1.605   5.637   6.940
29640WAT      O89161   2.213   4.669   3.231
29640WAT     H189162   2.202   4.586   3.177
29640WAT     H289163   2.230   4.747   3.170
29641WAT      O89164   3.738   0.243   6.510
29641WAT     H189165   3.654   0.232   6.563
29641WAT     H289166   3.731   0.192   6.424
29642WAT      O89167   7.456   3.636   6.167
29642WAT     H189168   7.539   3.654   6.114
29642WAT     H289169   7.422   3.721   6.205
29643WAT      O89170   2.324   0.666   4.194
29643WAT     H189171   2.414   0.620   4.191
29643WAT     H289172   2.282   0.651   4.283
29644WAT      O89173   2.266   7.316   2.933
29644WAT     H189174   2.312   7.359   2.855
29644WAT     H289175   2.188   7.372   2.961
29645WAT      O89176   5.582   8.132   5.455
29645WAT     H189177   5.559   8.138   5.552
29645WAT     H289178   5.501   8.107   5.403
29646WAT      O89179   6.610   3.574   1.661
29646WAT     H189180   6.559   3.566   1.747
29646WAT     H289181   6.632   3.670   1.645
29647WAT      O89182   3.601   1.864   7.854
29647WAT     H189183   3.671   1.823   7.797
29647WAT     H289184   3.539   1.919   7.797
29648WAT      O89185   8.332   8.200   8.283
29648WAT     H189186   8.421   8.177   8.323
29648WAT     H289187   8.270   8.232   8.356
29649WAT      O89188   6.336   9.737   5.660
29649WAT     H189189   6.285   9.813   5.699
29649WAT     H289190   6.368   9.762   5.568
29650WAT      O89191   5.003   0.813   5.968
29650WAT     H189192   5.012   0.891   6.030
29650WAT     H289193   4.966   0.844   5.881
29651WAT      O89194   6.382   8.120   1.850
29651WAT     H189195   6.407   8.165   1.765
29651WAT     H289196   6.452   8.054   1.875
29652WAT      O89197   4.662   8.223   4.999
29652WAT     H189198   4.605   8.306   4.999
29652WAT     H289199   4.689   8.201   4.906
29653WAT      O89200   0.446   9.476   7.541
29653WAT     H189201   0.403   9.386   7.533
29653WAT     H289202   0.390   9.545   7.494
29654WAT      O89203   7.189   5.932   6.511
29654WAT     H189204   7.137   5.900   6.432
29654WAT     H289205   7.202   5.856   6.575
29655WAT      O89206   5.988   9.424   3.012
29655WAT     H189207   5.897   9.432   3.051
29655WAT     H289208   6.053   9.477   3.067
29656WAT      O89209   2.805   6.320   5.828
29656WAT     H189210   2.706   6.318   5.832
29656WAT     H289211   2.836   6.323   5.733
29657WAT      O89212   7.530   4.609   8.641
29657WAT     H189213   7.479   4.646   8.719
29657WAT     H289214   7.497   4.651   8.557
29658WAT      O89215   5.917   9.793   6.047
29658WAT     H189216   5.995   9.779   6.109
29658WAT     H289217   5.889   9.705   6.010
29659WAT      O89218   1.287   9.407   8.085
29659WAT     H189219   1.253   9.335   8.025
29659WAT     H289220   1.269   9.382   8.181
29660WAT      O89221   0.192   3.865   8.943
29660WAT     H189222   0.149   3.774   8.934
29660WAT     H289223   0.282   3.855   8.985
29661WAT      O89224   4.060   3.115   0.315
29661WAT     H189225   4.125   3.165   0.257
29661WAT     H289226   4.008   3.052   0.259
29662WAT      O89227   4.148   2.238   0.091
29662WAT     H189228   4.117   2.143   0.088
29662WAT     H289229   4.093   2.289   0.157
29663WAT      O89230   4.967   5.214   7.993
29663WAT     H189231   4.942   5.123   7.961
29663WAT     H289232   4.915   5.283   7.943
29664WAT      O89233   0.115   2.965   8.103
29664WAT     H189234   0.104   3.051   8.152
29664WAT     H289235   0.054   2.962   8.024
29665WAT      O89236   4.196   7.062   0.258
29665WAT     H189237   4.270   6.998   0.235
29665WAT     H289238   4.177   7.057   0.356
29666WAT      O89239   6.954   9.309   8.395
29666WAT     H189240   6.930   9.298   8.298
29666WAT     H289241   6.989   9.402   8.410
29667WAT      O89242   6.981   2.372   8.790
29667WAT     H189243   7.054   2.396   8.855
29667WAT     H289244   6.899   2.424   8.812
29668WAT      O89245   4.517   4.238   2.546
29668WAT     H189246   4.509   4.289   2.460
29668WAT     H289247   4.429   4.241   2.594
29669WAT      O89248   7.179   7.170   2.165
29669WAT     H189249   7.211   7.262   2.139
29669WAT     H289250   7.164   7.116   2.083
29670WAT      O89251   2.727   0.665   9.771
29670WAT     H189252   2.810   0.637   9.819
29670WAT     H289253   2.648   0.650   9.830
29671WAT      O89254   5.231   3.324   4.192
29671WAT     H189255   5.193   3.399   4.245
29671WAT     H289256   5.304   3.358   4.133
29672WAT      O89257   9.166   6.128   4.980
29672WAT     H189258   9.183   6.050   4.919
29672WAT     H289259   9.221   6.118   5.063
29673WAT      O89260   6.955   3.340   3.853
29673WAT     H189261   6.913   3.355   3.764
29673WAT     H289262   6.952   3.425   3.906
29674WAT      O89263   4.759   9.361   2.969
29674WAT     H189264   4.815   9.420   2.911
29674WAT     H289265   4.670   9.403   2.984
29675WAT      O89266   6.412   2.056   5.691
29675WAT     H189267   6.459   2.036   5.605
29675WAT     H289268   6.456   2.006   5.766
29676WAT      O89269   9.626   9.146   4.776
29676WAT     H189270   9.705   9.089   4.799
29676WAT     H289271   9.562   9.093   4.721
29677WAT      O89272   3.565   8.016   4.677
29677WAT     H189273   3.662   7.995   4.662
29677WAT     H289274   3.557   8.092   4.741
29678WAT      O89275   1.177   6.020   1.013
29678WAT     H189276   1.134   5.930   1.013
29678WAT     H289277   1.228   6.033   0.929
29679WAT      O89278   7.703   0.618   2.058
29679WAT     H189279   7.721   0.711   2.026
29679WAT     H289280   7.766   0.596   2.133
29680WAT      O89281   1.552   2.843   0.792
29680WAT     H189282   1.641   2.871   0.756
29680WAT     H289283   1.517   2.767   0.737
29681WAT      O89284   4.311   7.452   3.080
29681WAT     H189285   4.307   7.528   3.145
29681WAT     H289286   4.293   7.486   2.987
29682WAT      O89287   8.788   1.825   8.484
29682WAT     H189288   8.844   1.776   8.417
29682WAT     H289289   8.704   1.773   8.502
29683WAT      O89290   6.914   7.275   4.877
29683WAT     H189291   6.904   7.375   4.879
29683WAT     H289292   7.011   7.251   4.873
29684WAT      O89293   4.427   4.228   9.283
29684WAT     H189294   4.386   4.138   9.288
29684WAT     H289295   4.485   4.234   9.202
29685WAT      O89296   3.284   7.086   3.443
29685WAT     H189297   3.258   7.019   3.512
29685WAT     H289298   3.383   7.084   3.430
29686WAT      O89299   8.983   6.818   3.312
29686WAT     H189300   8.970   6.719   3.316
29686WAT     H289301   8.906   6.864   3.356
29687WAT      O89302   0.618   3.529   8.802
29687WAT     H189303   0.642   3.530   8.704
29687WAT     H289304   0.589   3.620   8.830
29688WAT      O89305   7.504   8.800   9.337
29688WAT     H189306   7.573   8.761   9.398
29688WAT     H289307   7.541   8.883   9.294
29689WAT      O89308   9.182   0.465   4.355
29689WAT     H189309   9.273   0.430   4.378
29689WAT     H289310   9.113   0.417   4.409
29690WAT      O89311   1.062   1.816   8.784
29690WAT     H189312   1.019   1.743   8.836
29690WAT     H289313   1.110   1.777   8.705
29691WAT      O89314   3.475   0.571   3.968
29691WAT     H189315   3.489   0.473   3.955
29691WAT     H289316   3.549   0.608   4.024
29692WAT      O89317   4.213   1.460   4.330
29692WAT     H189318   4.229   1.419   4.419
29692WAT     H289319   4.259   1.549   4.325
29693WAT      O89320   8.152   2.726   7.038
29693WAT     H189321   8.081   2.730   6.967
29693WAT     H289322   8.112   2.751   7.126
29694WAT      O89323   3.987   9.318   7.705
29694WAT     H189324   4.031   9.342   7.791
29694WAT     H289325   4.053   9.325   7.630
29695WAT      O89326   1.355   2.952   3.748
29695WAT     H189327   1.432   3.014   3.736
29695WAT     H289328   1.287   2.967   3.676
29696WAT      O89329   5.587   5.147   2.104
29696WAT     H189330   5.668   5.122   2.157
29696WAT     H289331   5.576   5.083   2.028
29697WAT      O89332   4.687   4.894   6.671
29697WAT     H189333   4.671   4.912   6.768
29697WAT     H289334   4.781   4.864   6.658
29698WAT      O89335   5.198   6.246   1.433
29698WAT     H189336   5.225   6.245   1.529
29698WAT     H289337   5.236   6.327   1.389
29699WAT      O89338   0.548   3.375   3.218
29699WAT     H189339   0.470   3.389   3.156
29699WAT     H289340   0.599   3.460   3.227
29700WAT      O89341   6.917   3.270   0.667
29700WAT     H189342   7.013   3.287   0.645
29700WAT     H289343   6.860   3.288   0.586
29701WAT      O89344   2.310   6.699   2.919
29701WAT     H189345   2.212   6.702   2.899
29701WAT     H289346   2.353   6.627   2.865
29702WAT      O89347   0.994   5.040   8.117
29702WAT     H189348   0.986   4.964   8.180
29702WAT     H289349   1.085   5.081   8.126
29703WAT      O89350   1.893   1.595   3.649
29703WAT     H189351   1.960   1.669   3.653
29703WAT     H289352   1.803   1.630   3.675
29704WAT      O89353   0.950   3.271   6.947
29704WAT     H189354   0.892   3.344   6.911
29704WAT     H289355   0.982   3.214   6.871
29705WAT      O89356   2.408   1.556   0.587
29705WAT     H189357   2.414   1.458   0.570
29705WAT     H289358   2.379   1.572   0.681
29706WAT      O89359   1.073   3.798   9.409
29706WAT     H189360   1.159   3.756   9.381
29706WAT     H289361   1.039   3.754   9.492
29707WAT      O89362   8.194   5.449   0.661
29707WAT     H189363   8.259   5.522   0.685
29707WAT     H289364   8.121   5.445   0.730
29708WAT      O89365   8.460   8.883   4.150
29708WAT     H189366   8.367   8.915   4.133
29708WAT     H289367   8.495   8.836   4.069
29709WAT      O89368   1.719   4.060   3.138
29709WAT     H189369   1.817   4.037   3.138
29709WAT     H289370   1.667   3.985   3.097
29710WAT      O89371   9.308   5.037   6.194
29710WAT     H189372   9.328   5.095   6.115
29710WAT     H289373   9.387   5.037   6.256
29711WAT      O89374   7.532   5.393   6.280
29711WAT     H189375   7.617   5.343   6.296
29711WAT     H289376   7.505   5.442   6.363
29712WAT      O89377   1.746   7.927   5.814
29712WAT     H189378   1.657   7.888   5.793
29712WAT     H289379   1.818   7.864   5.784
29713WAT      O89380   3.007   1.732   4.890
29713WAT     H189381   3.099   1.751   4.925
29713WAT     H289382   2.957   1.818   4.881
29714WAT      O89383   5.679   8.816   6.502
29714WAT     H189384   5.659   8.825   6.599
29714WAT     H289385   5.707   8.722   6.482
29715WAT      O89386   9.633   5.549   8.526
29715WAT     H189387   9.667   5.539   8.620
29715WAT     H289388   9.600   5.461   8.493
29716WAT      O89389   8.314   2.408   6.630
29716WAT     H189390   8.356   2.493   6.663
29716WAT     H289391   8.320   2.338   6.702
29717WAT      O89392   9.551   2.497   0.311
29717WAT     H189393   9.523   2.571   0.250
29717WAT     H289394   9.628   2.447   0.270
29718WAT      O89395   6.020   8.375   0.563
29718WAT     H189396   6.021   8.332   0.473
29718WAT     H289397   6.111   8.368   0.605
29719WAT      O89398   7.448   8.050   9.224
29719WAT     H189399   7.414   7.989   9.296
29719WAT     H289400   7.500   8.124   9.266
29720WAT      O89401   9.236   3.131   1.205
29720WAT     H189402   9.219   3.185   1.123
29720WAT     H289403   9.184   3.046   1.200
29721WAT      O89404   3.680   6.579   6.646
29721WAT     H189405   3.599   6.591   6.589
29721WAT     H289406   3.760   6.612   6.597
29722WAT      O89407   7.331   7.870   3.918
29722WAT     H189408   7.356   7.957   3.875
29722WAT     H289409   7.259   7.826   3.864
29723WAT      O89410   4.463   1.211   8.300
29723WAT     H189411   4.376   1.260   8.309
29723WAT     H289412   4.480   1.189   8.204
29724WAT      O89413   6.714   6.201   0.375
29724WAT     H189414   6.804   6.162   0.395
29724WAT     H289415   6.725   6.277   0.310
29725WAT      O89416   1.492   9.687   4.984
29725WAT     H189417   1.474   9.624   5.060
29725WAT     H289418   1.405   9.710   4.940
29726WAT      O89419   4.380   4.705   5.291
29726WAT     H189420   4.405   4.755   5.374
29726WAT     H289421   4.462   4.685   5.237
29727WAT      O89422   9.281   8.120   7.887
29727WAT     H189423   9.300   8.143   7.983
29727WAT     H289424   9.268   8.021   7.878
29728WAT      O89425   7.327   1.340   4.163
29728WAT     H189426   7.298   1.343   4.259
29728WAT     H289427   7.412   1.289   4.156
29729WAT      O89428   3.924   2.097   8.009
29729WAT     H189429   3.988   2.166   7.975
29729WAT     H289430   3.834   2.111   7.966
29730WAT      O89431   8.189   3.700   4.209
29730WAT     H189432   8.090   3.693   4.203
29730WAT     H289433   8.217   3.692   4.305
29731WAT      O89434   7.920   3.607   4.488
29731WAT     H189435   7.979   3.526   4.493
29731WAT     H289436   7.974   3.688   4.509
29732WAT      O89437   6.125   1.082   0.502
29732WAT     H189438   6.058   1.016   0.468
29732WAT     H289439   6.192   1.101   0.431
29733WAT      O89440   2.518   1.578   1.296
29733WAT     H189441   2.471   1.665   1.304
29733WAT     H289442   2.494   1.519   1.373
29734WAT      O89443   7.055   5.752   5.729
29734WAT     H189444   6.986   5.820   5.753
29734WAT     H289445   7.009   5.663   5.715
29735WAT      O89446   0.524   9.627   7.878
29735WAT     H189447   0.623   9.615   7.869
29735WAT     H289448   0.487   9.666   7.794
29736WAT      O89449   5.943   2.460   3.917
29736WAT     H189450   5.946   2.414   4.006
29736WAT     H289451   5.857   2.439   3.872
29737WAT      O89452   5.508   2.944   2.143
29737WAT     H189453   5.422   2.991   2.165
29737WAT     H289454   5.573   3.010   2.104
29738WAT      O89455   9.371   5.761   0.626
29738WAT     H189456   9.466   5.743   0.650
29738WAT     H289457   9.316   5.680   0.650
29739WAT      O89458   0.249   8.432   3.668
29739WAT     H189459   0.191   8.360   3.706
29739WAT     H289460   0.237   8.516   3.720
29740WAT      O89461   8.756   1.979   4.701
29740WAT     H189462   8.686   2.028   4.752
29740WAT     H289463   8.814   2.044   4.652
29741WAT      O89464   6.020   3.884   1.550
29741WAT     H189465   6.031   3.984   1.551
29741WAT     H289466   6.006   3.853   1.456
29742WAT      O89467   8.380   0.457   1.623
29742WAT     H189468   8.470   0.480   1.585
29742WAT     H289469   8.309   0.504   1.572
29743WAT      O89470   4.151   7.218   4.868
29743WAT     H189471   4.214   7.277   4.818
29743WAT     H289472   4.162   7.124   4.838
29744WAT      O89473   8.216   7.292   0.712
29744WAT     H189474   8.239   7.222   0.779
29744WAT     H289475   8.289   7.299   0.644
29745WAT      O89476   8.957   1.409   0.703
29745WAT     H189477   8.972   1.496   0.656
29745WAT     H289478   9.032   1.392   0.767
29746WAT      O89479   1.523   7.106   4.372
29746WAT     H189480   1.592   7.086   4.441
29746WAT     H289481   1.542   7.196   4.331
29747WAT      O89482   7.391   2.000   0.304
29747WAT     H189483   7.363   2.095   0.287
29747WAT     H289484   7.351   1.969   0.390
29748WAT      O89485   3.349   3.584   3.982
29748WAT     H189486   3.446   3.563   3.968
29748WAT     H289487   3.304   3.507   4.027
29749WAT      O89488   3.369   3.698   5.772
29749WAT     H189489   3.276   3.736   5.762
29749WAT     H289490   3.426   3.733   5.697
29750WAT      O89491   6.890   6.835   5.216
29750WAT     H189492   6.904   6.907   5.284
29750WAT     H289493   6.835   6.870   5.141
29751WAT      O89494   2.575   0.622   8.918
29751WAT     H189495   2.587   0.529   8.884
29751WAT     H289496   2.551   0.619   9.015
29752WAT      O89497   7.124   9.124   2.565
29752WAT     H189498   7.104   9.189   2.491
29752WAT     H289499   7.054   9.053   2.566
29753WAT      O89500   0.201   5.941   8.411
29753WAT     H189501   0.108   5.943   8.448
29753WAT     H289502   0.199   5.906   8.318
29754WAT      O89503   5.834   4.711   5.806
29754WAT     H189504   5.772   4.637   5.779
29754WAT     H289505   5.834   4.719   5.906
29755WAT      O89506   6.825   6.650   4.369
29755WAT     H189507   6.874   6.732   4.398
29755WAT     H289508   6.858   6.622   4.279
29756WAT      O89509   2.846   8.200   7.303
29756WAT     H189510   2.946   8.206   7.305
29756WAT     H289511   2.809   8.281   7.259
29757WAT      O89512   9.853   7.720   0.996
29757WAT     H189513   9.848   7.816   1.026
29757WAT     H289514   9.931   7.676   1.041
29758WAT      O89515   8.646   1.472   6.652
29758WAT     H189516   8.706   1.527   6.709
29758WAT     H289517   8.696   1.394   6.615
29759WAT      O89518   8.683   6.494   3.168
29759WAT     H189519   8.694   6.590   3.141
29759WAT     H289520   8.639   6.443   3.094
29760WAT      O89521   8.939   3.552   2.090
29760WAT     H189522   8.947   3.530   2.187
29760WAT     H289523   9.029   3.573   2.052
29761WAT      O89524   0.941   9.564   5.805
29761WAT     H189525   0.881   9.531   5.732
29761WAT     H289526   0.892   9.560   5.893
29762WAT      O89527   9.758   5.742   8.896
29762WAT     H189528   9.838   5.783   8.853
29762WAT     H289529   9.675   5.777   8.852
29763WAT      O89530   9.679   3.145   6.443
29763WAT     H189531   9.756   3.173   6.500
29763WAT     H289532   9.692   3.181   6.350
29764WAT      O89533   1.604   4.812   3.643
29764WAT     H189534   1.527   4.761   3.605
29764WAT     H289535   1.616   4.788   3.739
29765WAT      O89536   7.263   4.143   3.237
29765WAT     H189537   7.239   4.240   3.232
29765WAT     H289538   7.268   4.105   3.144
29766WAT      O89539   4.526   4.732   3.261
29766WAT     H189540   4.531   4.832   3.256
29766WAT     H289541   4.510   4.695   3.169
29767WAT      O89542   7.648   7.552   8.476
29767WAT     H189543   7.705   7.477   8.442
29767WAT     H289544   7.691   7.592   8.557
29768WAT      O89545   9.630   4.561   0.457
29768WAT     H189546   9.542   4.577   0.411
29768WAT     H289547   9.704   4.594   0.400
29769WAT      O89548   8.568   9.469   2.229
29769WAT     H189549   8.572   9.541   2.160
29769WAT     H289550   8.528   9.387   2.189
29770WAT      O89551   0.720   5.851   7.644
29770WAT     H189552   0.717   5.812   7.736
29770WAT     H289553   0.676   5.941   7.645
29771WAT      O89554   1.680   4.038   2.201
29771WAT     H189555   1.696   4.133   2.227
29771WAT     H289556   1.688   4.029   2.102
29772WAT      O89557   0.588   7.853   8.468
29772WAT     H189558   0.665   7.856   8.532
29772WAT     H289559   0.532   7.935   8.479
29773WAT      O89560   6.883   0.056   0.822
29773WAT     H189561   6.953  -0.013   0.837
29773WAT     H289562   6.801   0.032   0.875
29774WAT      O89563   3.971   2.979   5.970
29774WAT     H189564   3.949   2.997   5.874
29774WAT     H289565   3.922   3.043   6.028
29775WAT      O89566   9.024   3.630   0.494
29775WAT     H189567   9.036   3.554   0.557
29775WAT     H289568   8.960   3.603   0.422
29776WAT      O89569   9.210   4.397   5.766
29776WAT     H189570   9.218   4.451   5.849
29776WAT     H289571   9.145   4.323   5.780
29777WAT      O89572   8.925   2.431   1.238
29777WAT     H189573   9.000   2.425   1.304
29777WAT     H289574   8.915   2.526   1.207
29778WAT      O89575   0.629   2.692   3.059
29778WAT     H189576   0.584   2.764   3.112
29778WAT     H289577   0.651   2.728   2.968
29779WAT      O89578   6.386   0.492   8.269
29779WAT     H189579   6.365   0.456   8.360
29779WAT     H289580   6.361   0.425   8.200
29780WAT      O89581   0.251   5.599   6.473
29780WAT     H189582   0.233   5.576   6.568
29780WAT     H289583   0.350   5.606   6.458
29781WAT      O89584   0.151   0.879   7.016
29781WAT     H189585   0.168   0.960   6.960
29781WAT     H289586   0.085   0.900   7.088
29782WAT      O89587   6.855   1.107   6.661
29782WAT     H189588   6.871   1.206   6.660
29782WAT     H289589   6.759   1.089   6.635
29783WAT      O89590   9.099   5.842   9.449
29783WAT     H189591   9.192   5.825   9.482
29783WAT     H289592   9.035   5.833   9.525
29784WAT      O89593   0.799   3.602   7.455
29784WAT     H189594   0.870   3.531   7.454
29784WAT     H289595   0.748   3.598   7.369
29785WAT      O89596   2.656   6.764   5.156
29785WAT     H189597   2.651   6.862   5.136
29785WAT     H289598   2.749   6.732   5.138
29786WAT      O89599   6.533   7.015   9.505
29786WAT     H189600   6.542   7.113   9.521
29786WAT     H289601   6.436   6.991   9.497
29787WAT      O89602   8.086   1.508   5.885
29787WAT     H189603   8.037   1.529   5.801
29787WAT     H289604   8.057   1.571   5.957
29788WAT      O89605   5.107   1.964   1.092
29788WAT     H189606   5.200   1.973   1.055
29788WAT     H289607   5.066   2.055   1.102
29789WAT      O89608   6.609   8.488   3.840
29789WAT     H189609   6.628   8.578   3.879
29789WAT     H289610   6.569   8.429   3.911
29790WAT      O89611   3.433   0.114   7.543
29790WAT     H189612   3.487   0.035   7.511
29790WAT     H289613   3.432   0.184   7.471
29791WAT      O89614   9.806   7.416   3.542
29791WAT     H189615   9.853   7.331   3.522
29791WAT     H289616   9.735   7.433   3.473
29792WAT      O89617   6.016   4.240   6.543
29792WAT     H189618   6.041   4.146   6.567
29792WAT     H289619   6.090   4.282   6.489
29793WAT      O89620   9.394   6.397   8.662
29793WAT     H189621   9.319   6.445   8.615
29793WAT     H289622   9.356   6.330   8.725
29794WAT      O89623   5.705   0.278   4.130
29794WAT     H189624   5.776   0.328   4.080
29794WAT     H289625   5.745   0.239   4.213
29795WAT      O89626   5.929   3.008   4.007
29795WAT     H189627   5.853   3.073   4.012
29795WAT     H289628   5.893   2.916   3.994
29796WAT      O89629   0.611   5.430   3.682
29796WAT     H189630   0.579   5.410   3.589
29796WAT     H289631   0.689   5.492   3.678
29797WAT      O89632   6.317   1.517   2.715
29797WAT     H189633   6.367   1.502   2.630
29797WAT     H289634   6.357   1.462   2.788
29798WAT      O89635   5.537   1.395   2.250
29798WAT     H189636   5.633   1.419   2.234
29798WAT     H289637   5.490   1.384   2.162
29799WAT      O89638   6.544   5.506   0.979
29799WAT     H189639   6.625   5.563   0.961
29799WAT     H289640   6.464   5.565   0.988
29800WAT      O89641   9.782   5.354   5.479
29800WAT     H189642   9.781   5.264   5.522
29800WAT     H289643   9.859   5.407   5.514
29801WAT      O89644   2.906   6.061   6.465
29801WAT     H189645   2.859   6.121   6.400
29801WAT     H289646   2.907   5.968   6.430
29802WAT      O89647   0.880   6.402   5.508
29802WAT     H189648   0.869   6.496   5.540
29802WAT     H289649   0.849   6.395   5.413
29803WAT      O89650   1.281   2.225   4.289
29803WAT     H189651   1.236   2.288   4.226
29803WAT     H289652   1.258   2.131   4.265
29804WAT      O89653   2.976   5.577   3.736
29804WAT     H189654   2.984   5.505   3.667
29804WAT     H289655   3.035   5.555   3.814
29805WAT      O89656   6.572   9.740   5.837
29805WAT     H189657   6.625   9.655   5.836
29805WAT     H289658   6.487   9.727   5.786
29806WAT      O89659   5.188   5.082   7.443
29806WAT     H189660   5.191   5.124   7.534
29806WAT     H289661   5.093   5.073   7.414
29807WAT      O89662   5.723   8.354   0.187
29807WAT     H189663   5.803   8.324   0.136
29807WAT     H289664   5.681   8.432   0.140
29808WAT      O89665   1.039   7.179   3.909
29808WAT     H189666   0.956   7.125   3.892
29808WAT     H289667   1.020   7.276   3.894
29809WAT      O89668   4.951   5.077   0.933
29809WAT     H189669   5.042   5.071   0.974
29809WAT     H289670   4.944   5.012   0.857
29810WAT      O89671   7.479   1.885   7.943
29810WAT     H189672   7.427   1.938   8.010
29810WAT     H289673   7.440   1.900   7.852
29811WAT      O89674   8.444   0.305   4.974
29811WAT     H189675   8.522   0.344   5.022
29811WAT     H289676   8.370   0.285   5.038
29812WAT      O89677   0.448   0.364   2.620
29812WAT     H189678   0.465   0.336   2.714
29812WAT     H289679   0.535   0.366   2.570
29813WAT      O89680   7.672   9.520   4.635
29813WAT     H189681   7.636   9.585   4.568
29813WAT     H289682   7.596   9.473   4.679
29814WAT      O89683   9.840   1.036   7.139
29814WAT     H189684   9.818   1.133   7.128
29814WAT     H289685   9.825   1.009   7.234
29815WAT      O89686   9.565   0.233   2.541
29815WAT     H189687   9.601   0.147   2.506
29815WAT     H289688   9.526   0.218   2.633
29816WAT      O89689   8.430   7.756   9.562
29816WAT     H189690   8.518   7.711   9.555
29816WAT     H289691   8.442   7.848   9.600
29817WAT      O89692   9.499   5.404   5.375
29817WAT     H189693   9.479   5.327   5.314
29817WAT     H289694   9.587   5.388   5.420
29818WAT      O89695   2.202   3.100   1.595
29818WAT     H189696   2.200   3.196   1.570
29818WAT     H289697   2.281   3.082   1.654
29819WAT      O89698   9.415   5.031   3.534
29819WAT     H189699   9.502   5.079   3.522
29819WAT     H289700   9.371   5.063   3.617
29820WAT      O89701   3.624   2.087   3.685
29820WAT     H189702   3.666   2.002   3.720
29820WAT     H289703   3.695   2.157   3.676
29821WAT      O89704   5.520   0.539   5.512
29821WAT     H189705   5.504   0.638   5.515
29821WAT     H289706   5.439   0.491   5.546
29822WAT      O89707   1.961   7.781   5.005
29822WAT     H189708   1.992   7.814   4.916
29822WAT     H289709   1.943   7.683   4.999
29823WAT      O89710   3.083   0.053   3.614
29823WAT     H189711   2.996   0.007   3.625
29823WAT     H289712   3.150  -0.011   3.576
29824WAT      O89713   0.400   9.137   2.653
29824WAT     H189714   0.367   9.197   2.581
29824WAT     H289715   0.456   9.064   2.613
29825WAT      O89716   4.741   6.094   7.146
29825WAT     H189717   4.681   6.090   7.226
29825WAT     H289718   4.835   6.108   7.176
29826WAT      O89719   6.849   6.525   8.674
29826WAT     H189720   6.765   6.526   8.728
29826WAT     H289721   6.827   6.535   8.577
29827WAT      O89722   7.368   0.142   2.701
29827WAT     H189723   7.295   0.204   2.673
29827WAT     H289724   7.339   0.048   2.687
29828WAT      O89725   3.416   3.387   0.259
29828WAT     H189726   3.494   3.428   0.307
29828WAT     H289727   3.384   3.449   0.188
29829WAT      O89728   1.935   9.370   3.826
29829WAT     H189729   1.875   9.343   3.750
29829WAT     H289730   2.030   9.363   3.797
29830WAT      O89731   4.300   4.845   1.536
29830WAT     H189732   4.250   4.829   1.621
29830WAT     H289733   4.398   4.851   1.555
29831WAT      O89734   0.957   5.407   8.718
29831WAT     H189735   1.031   5.397   8.785
29831WAT     H289736   0.883   5.462   8.758
29832WAT      O89737   8.065   2.370   6.938
29832WAT     H189738   7.972   2.350   6.971
29832WAT     H289739   8.084   2.467   6.948
29833WAT      O89740   3.577   1.652   2.045
29833WAT     H189741   3.646   1.590   2.081
29833WAT     H289742   3.487   1.608   2.049
29834WAT      O89743   3.403   3.836   5.196
29834WAT     H189744   3.399   3.880   5.107
29834WAT     H289745   3.402   3.906   5.268
29835WAT      O89746   6.561   2.414   4.968
29835WAT     H189747   6.467   2.437   4.943
29835WAT     H289748   6.592   2.475   5.041
29836WAT      O89749   9.639   9.105   7.621
29836WAT     H189750   9.638   9.167   7.699
29836WAT     H289751   9.732   9.071   7.606
29837WAT      O89752   5.052   7.708   0.436
29837WAT     H189753   4.972   7.764   0.414
29837WAT     H289754   5.123   7.723   0.367
29838WAT      O89755   6.488   3.087   3.541
29838WAT     H189756   6.524   2.994   3.537
29838WAT     H289757   6.563   3.152   3.523
29839WAT      O89758   3.025   4.773   8.408
29839WAT     H189759   2.927   4.754   8.417
29839WAT     H289760   3.054   4.757   8.314
29840WAT      O89761   7.416   8.324   1.062
29840WAT     H189762   7.494   8.280   1.018
29840WAT     H289763   7.383   8.398   1.004
29841WAT      O89764   9.884   1.093   7.550
29841WAT     H189765   9.910   1.073   7.644
29841WAT     H289766   9.785   1.079   7.539
29842WAT      O89767   5.839   7.094   1.486
29842WAT     H189768   5.931   7.076   1.451
29842WAT     H289769   5.773   7.036   1.437
29843WAT      O89770   5.830   4.235   0.582
29843WAT     H189771   5.898   4.303   0.555
29843WAT     H289772   5.751   4.281   0.622
29844WAT      O89773   9.242   7.553   7.660
29844WAT     H189774   9.174   7.623   7.682
29844WAT     H289775   9.326   7.572   7.710
29845WAT      O89776   2.010   7.640   2.467
29845WAT     H189777   1.977   7.721   2.417
29845WAT     H289778   2.026   7.665   2.563
29846WAT      O89779   2.553   4.095   8.173
29846WAT     H189780   2.552   3.996   8.162
29846WAT     H289781   2.493   4.121   8.248
29847WAT      O89782   8.065   7.121   7.026
29847WAT     H189783   8.084   7.201   7.083
29847WAT     H289784   7.976   7.132   6.981
29848WAT      O89785   1.049   4.401   4.868
29848WAT     H189786   0.978   4.340   4.834
29848WAT     H289787   1.135   4.351   4.877
29849WAT      O89788   7.224   7.567   1.287
29849WAT     H189789   7.321   7.549   1.309
29849WAT     H289790   7.216   7.654   1.240
29850WAT      O89791   2.636   4.082   6.978
29850WAT     H189792   2.676   4.016   7.042
29850WAT     H289793   2.537   4.068   6.972
29851WAT      O89794   1.811   6.452   6.262
29851WAT     H189795   1.758   6.475   6.181
29851WAT     H289796   1.767   6.376   6.310
29852WAT      O89797   0.958   5.715   5.604
29852WAT     H189798   0.982   5.618   5.613
29852WAT     H289799   0.877   5.735   5.658
29853WAT      O89800   0.613   7.946   4.929
29853WAT     H189801   0.591   7.872   4.866
29853WAT     H289802   0.706   7.935   4.963
29854WAT      O89803   7.277   4.125   6.246
29854WAT     H189804   7.329   4.044   6.274
29854WAT     H289805   7.202   4.097   6.186
29855WAT      O89806   0.672   1.977   1.368
29855WAT     H189807   0.609   2.035   1.419
29855WAT     H289808   0.648   1.881   1.382
29856WAT      O89809   2.659   1.204   4.430
29856WAT     H189810   2.600   1.122   4.427
29856WAT     H289811   2.745   1.185   4.383
29857WAT      O89812   4.575   3.594   2.747
29857WAT     H189813   4.649   3.586   2.680
29857WAT     H289814   4.604   3.654   2.822
29858WAT      O89815   0.460   1.679   1.908
29858WAT     H189816   0.414   1.625   1.978
29858WAT     H289817   0.405   1.759   1.885
29859WAT      O89818   7.284   9.127   6.962
29859WAT     H189819   7.335   9.043   6.981
29859WAT     H289820   7.202   9.105   6.909
29860WAT      O89821   2.293   7.987   8.361
29860WAT     H189822   2.224   7.917   8.377
29860WAT     H289823   2.301   8.005   8.262
29861WAT      O89824   9.160   9.845   6.711
29861WAT     H189825   9.154   9.764   6.652
29861WAT     H289826   9.105   9.830   6.793
29862WAT      O89827   8.188   5.495   6.785
29862WAT     H189828   8.175   5.430   6.861
29862WAT     H289829   8.178   5.588   6.819
29863WAT      O89830   3.837   8.021   4.696
29863WAT     H189831   3.890   8.088   4.644
29863WAT     H289832   3.864   8.025   4.792
29864WAT      O89833   7.798   7.649   1.112
29864WAT     H189834   7.887   7.610   1.086
29864WAT     H289835   7.737   7.576   1.142
29865WAT      O89836   7.022   9.749   8.137
29865WAT     H189837   7.046   9.653   8.124
29865WAT     H289838   6.983   9.786   8.053
29866WAT      O89839   3.968   1.342   3.547
29866WAT     H189840   3.988   1.271   3.615
29866WAT     H289841   4.044   1.347   3.481
29867WAT      O89842   9.643   7.283   4.269
29867WAT     H189843   9.722   7.248   4.320
29867WAT     H289844   9.570   7.216   4.271
29868WAT      O89845   1.788   5.792   0.760
29868WAT     H189846   1.836   5.789   0.672
29868WAT     H289847   1.837   5.853   0.822
29869WAT      O89848   5.486   4.834   8.596
29869WAT     H189849   5.395   4.840   8.637
29869WAT     H289850   5.477   4.804   8.500
29870WAT      O89851   9.307   3.938   4.817
29870WAT     H189852   9.406   3.940   4.806
29870WAT     H289853   9.264   3.908   4.733
29871WAT      O89854   2.681   5.082   4.122
29871WAT     H189855   2.625   5.010   4.164
29871WAT     H289856   2.621   5.155   4.088
29872WAT      O89857   5.705   4.827   6.437
29872WAT     H189858   5.719   4.879   6.353
29872WAT     H289859   5.727   4.885   6.516
29873WAT      O89860   0.065   9.402   0.032
29873WAT     H189861   0.138   9.404   0.100
29873WAT     H289862  -0.014   9.453   0.067
29874WAT      O89863   3.077   4.199   8.219
29874WAT     H189864   3.102   4.137   8.144
29874WAT     H289865   2.978   4.214   8.217
29875WAT      O89866   7.238   1.660   2.565
29875WAT     H189867   7.316   1.714   2.534
29875WAT     H289868   7.269   1.567   2.587
29876WAT      O89869   3.687   7.945   0.299
29876WAT     H189870   3.607   7.887   0.314
29876WAT     H289871   3.658   8.035   0.268
29877WAT      O89872   2.068   0.304   3.689
29877WAT     H189873   2.138   0.295   3.618
29877WAT     H289874   2.108   0.285   3.778
29878WAT      O89875   1.429   1.096   1.118
29878WAT     H189876   1.478   1.183   1.114
29878WAT     H289877   1.433   1.051   1.028
29879WAT      O89878   4.712   6.059   9.311
29879WAT     H189879   4.691   6.149   9.273
29879WAT     H289880   4.640   5.995   9.286
29880WAT      O89881   0.393   5.441   8.860
29880WAT     H189882   0.365   5.369   8.796
29880WAT     H289883   0.429   5.519   8.809
29881WAT      O89884   9.650   5.152   3.510
29881WAT     H189885   9.623   5.228   3.451
29881WAT     H289886   9.701   5.187   3.588
29882WAT      O89887   6.298   5.335   0.545
29882WAT     H189888   6.393   5.364   0.532
29882WAT     H289889   6.273   5.345   0.641
29883WAT      O89890   3.277   9.290   3.552
29883WAT     H189891   3.245   9.212   3.498
29883WAT     H289892   3.301   9.365   3.491
29884WAT      O89893   7.636   6.698   9.838
29884WAT     H189894   7.629   6.729   9.743
29884WAT     H289895   7.695   6.760   9.889
29885WAT      O89896   6.926   3.081   7.266
29885WAT     H189897   6.939   3.018   7.190
29885WAT     H289898   6.965   3.170   7.242
29886WAT      O89899   3.438   7.029   5.960
29886WAT     H189900   3.439   6.977   6.046
29886WAT     H289901   3.530   7.031   5.921
29887WAT      O89902   9.186   8.132   5.641
29887WAT     H189903   9.093   8.094   5.639
29887WAT     H289904   9.191   8.203   5.711
29888WAT      O89905   6.631   0.531   1.202
29888WAT     H189906   6.605   0.628   1.206
29888WAT     H289907   6.580   0.486   1.129
29889WAT      O89908   8.221   6.752   3.915
29889WAT     H189909   8.319   6.774   3.909
29889WAT     H289910   8.207   6.681   3.983
29890WAT      O89911   8.020   0.516   9.122
29890WAT     H189912   7.980   0.482   9.207
29890WAT     H289913   7.947   0.548   9.062
29891WAT      O89914   6.766   5.227   1.951
29891WAT     H189915   6.844   5.204   1.893
29891WAT     H289916   6.726   5.144   1.988
29892WAT      O89917   8.302   1.885   8.296
29892WAT     H189918   8.236   1.834   8.352
29892WAT     H289919   8.379   1.913   8.353
29893WAT      O89920   2.958   8.849   0.336
29893WAT     H189921   3.015   8.928   0.312
29893WAT     H289922   2.894   8.875   0.408
29894WAT      O89923   9.061   2.918   4.051
29894WAT     H189924   9.050   2.931   4.150
29894WAT     H289925   9.104   2.830   4.033
29895WAT      O89926   7.661   1.586   5.101
29895WAT     H189927   7.702   1.595   5.192
29895WAT     H289928   7.618   1.672   5.075
29896WAT      O89929   7.786   5.212   2.619
29896WAT     H189930   7.762   5.176   2.529
29896WAT     H289931   7.708   5.199   2.681
29897WAT      O89932   7.860   9.794   0.694
29897WAT     H189933   7.873   9.870   0.630
29897WAT     H289934   7.772   9.805   0.741
29898WAT      O89935   2.359   6.938   1.501
29898WAT     H189936   2.355   7.026   1.454
29898WAT     H289937   2.455   6.914   1.518
29899WAT      O89938   3.970   5.723   3.154
29899WAT     H189939   4.053   5.778   3.162
29899WAT     H289940   3.891   5.779   3.179
29900WAT      O89941   0.703   8.906   2.995
29900WAT     H189942   0.743   8.839   2.932
29900WAT     H289943   0.768   8.926   3.068
29901WAT      O89944   6.163   2.690   2.383
29901WAT     H189945   6.147   2.611   2.442
29901WAT     H289946   6.217   2.662   2.304
29902WAT      O89947   3.901   4.567   9.534
29902WAT     H189948   3.823   4.629   9.528
29902WAT     H289949   3.985   4.617   9.515
29903WAT      O89950   8.862   3.308   6.930
29903WAT     H189951   8.959   3.285   6.917
29903WAT     H289952   8.805   3.231   6.901
29904WAT      O89953   7.790   2.672   7.822
29904WAT     H189954   7.851   2.603   7.784
29904WAT     H289955   7.695   2.645   7.806
29905WAT      O89956   4.563   1.906   9.242
29905WAT     H189957   4.532   1.984   9.297
29905WAT     H289958   4.608   1.840   9.302
29906WAT      O89959   8.445   5.076   7.214
29906WAT     H189960   8.444   5.095   7.312
29906WAT     H289961   8.405   4.986   7.197
29907WAT      O89962   6.949   8.568   9.760
29907WAT     H189963   6.991   8.532   9.677
29907WAT     H289964   7.018   8.613   9.817
29908WAT      O89965   6.125   9.404   5.072
29908WAT     H189966   6.192   9.380   5.142
29908WAT     H289967   6.157   9.372   4.983
29909WAT      O89968   1.297   0.736   5.215
29909WAT     H189969   1.225   0.795   5.249
29909WAT     H289970   1.381   0.752   5.268
29910WAT      O89971   8.364   8.789   7.124
29910WAT     H189972   8.315   8.807   7.210
29910WAT     H289973   8.384   8.876   7.079
29911WAT      O89974   9.866   0.132   2.895
29911WAT     H189975   9.946   0.172   2.849
29911WAT     H289976   9.808   0.205   2.930
29912WAT      O89977   5.229   9.828   1.837
29912WAT     H189978   5.260   9.753   1.779
29912WAT     H289979   5.308   9.874   1.878
29913WAT      O89980   7.041   4.024   1.083
29913WAT     H189981   7.138   4.031   1.107
29913WAT     H289982   6.985   4.038   1.164
29914WAT      O89983   0.436   5.859   8.540
29914WAT     H189984   0.471   5.928   8.603
29914WAT     H289985   0.351   5.892   8.498
29915WAT      O89986   6.279   9.172   4.579
29915WAT     H189987   6.240   9.102   4.638
29915WAT     H289988   6.378   9.175   4.592
29916WAT      O89989   8.204   6.261   1.389
29916WAT     H189990   8.123   6.220   1.348
29916WAT     H289991   8.202   6.360   1.376
29917WAT      O89992   8.606   2.555   5.951
29917WAT     H189993   8.620   2.533   6.048
29917WAT     H289994   8.688   2.599   5.914
29918WAT      O89995   7.727   3.463   3.191
29918WAT     H189996   7.664   3.441   3.117
29918WAT     H289997   7.821   3.461   3.156
29919WAT      O89998   9.661   6.961   8.912
29919WAT     H189999   9.734   6.892   8.910
29919WAT     H290000   9.677   7.024   8.987
29920WAT      O90001   9.023   2.576   3.392
29920WAT     H190002   8.951   2.589   3.460
29920WAT     H290003   9.111   2.605   3.431
29921WAT      O90004   5.139   5.891   4.677
29921WAT     H190005   5.198   5.918   4.752
29921WAT     H290006   5.185   5.909   4.590
29922WAT      O90007   1.637   8.418   6.295
29922WAT     H190008   1.547   8.407   6.252
29922WAT     H290009   1.631   8.395   6.392
29923WAT      O90010   6.201   8.075   8.425
29923WAT     H190011   6.134   8.070   8.351
29923WAT     H290012   6.285   8.118   8.392
29924WAT      O90013   8.648   6.168   8.997
29924WAT     H190014   8.717   6.101   8.970
29924WAT     H290015   8.691   6.242   9.047
29925WAT      O90016   0.510   1.231   8.803
29925WAT     H190017   0.414   1.217   8.827
29925WAT     H290018   0.524   1.325   8.774
29926WAT      O90019   5.010   9.789   9.679
29926WAT     H190020   4.937   9.779   9.612
29926WAT     H290021   4.975   9.766   9.770
29927WAT      O90022   1.334   8.395   4.131
29927WAT     H190023   1.379   8.446   4.204
29927WAT     H290024   1.250   8.443   4.103
29928WAT      O90025   8.408   8.565   3.511
29928WAT     H190026   8.341   8.634   3.484
29928WAT     H290027   8.372   8.513   3.589
29929WAT      O90028   3.329   0.606   2.391
29929WAT     H190029   3.336   0.531   2.326
29929WAT     H290030   3.396   0.677   2.369
29930WAT      O90031   9.322   0.884   3.499
29930WAT     H190032   9.272   0.841   3.574
29930WAT     H290033   9.409   0.836   3.485
29931WAT      O90034   8.997   2.257   1.905
29931WAT     H190035   9.045   2.210   1.831
29931WAT     H290036   8.946   2.334   1.868
29932WAT      O90037   5.782   8.834   7.222
29932WAT     H190038   5.768   8.792   7.132
29932WAT     H290039   5.712   8.801   7.285
29933WAT      O90040   3.077   0.326   3.541
29933WAT     H190041   3.088   0.228   3.554
29933WAT     H290042   3.008   0.361   3.605
29934WAT      O90043   2.865   5.789   0.453
29934WAT     H190044   2.946   5.769   0.398
29934WAT     H290045   2.813   5.705   0.467
29935WAT      O90046   0.650   5.318   4.950
29935WAT     H190047   0.597   5.290   5.031
29935WAT     H290048   0.616   5.269   4.870
29936WAT      O90049   6.985   6.791   1.500
29936WAT     H190050   6.891   6.804   1.470
29936WAT     H290051   7.047   6.838   1.437
29937WAT      O90052   6.246   2.497   0.606
29937WAT     H190053   6.289   2.536   0.525
29937WAT     H290054   6.185   2.423   0.579
29938WAT      O90055   6.107   9.503   9.175
29938WAT     H190056   6.103   9.596   9.140
29938WAT     H290057   6.202   9.479   9.194
29939WAT      O90058   4.886   4.408   1.637
29939WAT     H190059   4.892   4.437   1.733
29939WAT     H290060   4.953   4.335   1.621
29940WAT      O90061   1.888   0.261   6.061
29940WAT     H190062   1.873   0.164   6.043
29940WAT     H290063   1.922   0.306   5.978
29941WAT      O90064   8.443   0.549   7.625
29941WAT     H190065   8.459   0.614   7.551
29941WAT     H290066   8.496   0.577   7.706
29942WAT      O90067   9.847   4.264   2.106
29942WAT     H190068   9.945   4.253   2.091
29942WAT     H290069   9.796   4.214   2.036
29943WAT      O90070   7.760   7.954   9.111
29943WAT     H190071   7.759   7.953   9.211
29943WAT     H290072   7.714   7.872   9.077
29944WAT      O90073   3.539   2.456   4.322
29944WAT     H190074   3.624   2.506   4.312
29944WAT     H290075   3.520   2.440   4.419
29945WAT      O90076   7.397   0.839   8.017
29945WAT     H190077   7.456   0.834   7.936
29945WAT     H290078   7.347   0.926   8.017
29946WAT      O90079   7.141   3.168   2.879
29946WAT     H190080   7.186   3.135   2.796
29946WAT     H290081   7.126   3.267   2.872
29947WAT      O90082   4.983   2.215   1.146
29947WAT     H190083   4.964   2.209   1.244
29947WAT     H290084   5.072   2.258   1.132
29948WAT      O90085   1.695   0.223   8.455
29948WAT     H190086   1.690   0.289   8.529
29948WAT     H290087   1.604   0.211   8.415
29949WAT      O90088   2.054   1.543   1.487
29949WAT     H190089   2.115   1.572   1.561
29949WAT     H290090   2.001   1.622   1.456
29950WAT      O90091   5.067   2.422   8.136
29950WAT     H190092   4.976   2.428   8.094
29950WAT     H290093   5.096   2.513   8.166
29951WAT      O90094   8.665   9.717   9.641
29951WAT     H190095   8.569   9.725   9.669
29951WAT     H290096   8.681   9.773   9.560
29952WAT      O90097   5.905   4.729   1.761
29952WAT     H190098   5.969   4.653   1.765
29952WAT     H290099   5.854   4.734   1.847
29953WAT      O90100   1.424   0.128   2.996
29953WAT     H190101   1.469   0.149   2.910
29953WAT     H290102   1.396   0.032   2.996
29954WAT      O90103   4.028   8.363   2.370
29954WAT     H190104   4.071   8.273   2.366
29954WAT     H290105   4.098   8.432   2.388
29955WAT      O90106   8.405   7.294   1.640
29955WAT     H190107   8.342   7.311   1.564
29955WAT     H290108   8.484   7.354   1.631
29956WAT      O90109   5.784   6.385   3.593
29956WAT     H190110   5.815   6.454   3.528
29956WAT     H290111   5.704   6.338   3.556
29957WAT      O90112   0.703   0.391   2.416
29957WAT     H190113   0.709   0.297   2.383
29957WAT     H290114   0.733   0.453   2.344
29958WAT      O90115   8.964   9.151   7.609
29958WAT     H190116   9.042   9.208   7.636
29958WAT     H290117   8.920   9.191   7.529
29959WAT      O90118   2.878   0.463   6.345
29959WAT     H190119   2.829   0.376   6.337
29959WAT     H290120   2.822   0.536   6.307
29960WAT      O90121   1.391   7.303   6.300
29960WAT     H190122   1.485   7.295   6.334
29960WAT     H290123   1.357   7.213   6.274
29961WAT      O90124   1.421   7.634   4.484
29961WAT     H190125   1.454   7.714   4.433
29961WAT     H290126   1.332   7.607   4.449
29962WAT      O90127   6.526   5.905   0.910
29962WAT     H190128   6.600   5.953   0.863
29962WAT     H290129   6.458   5.876   0.842
29963WAT      O90130   3.816   8.824   5.202
29963WAT     H190131   3.783   8.915   5.176
29963WAT     H290132   3.848   8.827   5.297
29964WAT      O90133   3.116   6.877   1.630
29964WAT     H190134   3.095   6.905   1.536
29964WAT     H290135   3.188   6.936   1.667
29965WAT      O90136   4.515   0.850   6.021
29965WAT     H190137   4.611   0.834   6.042
29965WAT     H290138   4.485   0.936   6.062
29966WAT      O90139   3.494   6.804   5.607
29966WAT     H190140   3.414   6.813   5.666
29966WAT     H290141   3.470   6.751   5.525
29967WAT      O90142   9.132   0.510   1.421
29967WAT     H190143   9.163   0.444   1.490
29967WAT     H290144   9.151   0.602   1.453
29968WAT      O90145   8.763   6.454   7.357
29968WAT     H190146   8.785   6.359   7.334
29968WAT     H290147   8.721   6.498   7.278
29969WAT      O90148   3.018   8.288   6.324
29969WAT     H190149   3.011   8.188   6.330
29969WAT     H290150   2.928   8.327   6.305
29970WAT      O90151   0.417   8.739   4.387
29970WAT     H190152   0.442   8.789   4.470
29970WAT     H290153   0.495   8.684   4.356
29971WAT      O90154   7.994   4.397   4.783
29971WAT     H190155   7.990   4.300   4.760
29971WAT     H290156   8.088   4.430   4.773
29972WAT      O90157   2.223   5.122   2.071
29972WAT     H190158   2.176   5.177   2.003
29972WAT     H290159   2.321   5.131   2.060
29973WAT      O90160   3.339   6.778   3.105
29973WAT     H190161   3.251   6.750   3.067
29973WAT     H290162   3.344   6.878   3.106
29974WAT      O90163   5.219   0.818   9.431
29974WAT     H190164   5.134   0.775   9.400
29974WAT     H290165   5.260   0.869   9.355
29975WAT      O90166   7.911   1.606   2.221
29975WAT     H190167   7.903   1.705   2.218
29975WAT     H290168   7.948   1.578   2.310
29976WAT      O90169   5.289   6.506   6.502
29976WAT     H190170   5.338   6.443   6.562
29976WAT     H290171   5.355   6.556   6.446
29977WAT      O90172   4.560   7.322   1.038
29977WAT     H190173   4.571   7.405   0.983
29977WAT     H290174   4.469   7.322   1.081
29978WAT      O90175   2.355   4.884   0.753
29978WAT     H190176   2.258   4.873   0.773
29978WAT     H290177   2.378   4.981   0.748
29979WAT      O90178   0.233   7.560   3.860
29979WAT     H190179   0.273   7.498   3.793
29979WAT     H290180   0.147   7.596   3.825
29980WAT      O90181   4.611   3.169   4.096
29980WAT     H190182   4.561   3.214   4.022
29980WAT     H290183   4.585   3.210   4.183
29981WAT      O90184   1.180   8.617   1.525
29981WAT     H190185   1.131   8.530   1.537
29981WAT     H290186   1.237   8.613   1.444
29982WAT      O90187   6.461   6.081   2.879
29982WAT     H190188   6.430   6.155   2.939
29982WAT     H290189   6.457   5.995   2.928
29983WAT      O90190   0.298   5.096   9.753
29983WAT     H190191   0.339   5.124   9.840
29983WAT     H290192   0.330   5.157   9.681
29984WAT      O90193   5.657   0.610   9.660
29984WAT     H190194   5.710   0.658   9.731
29984WAT     H290195   5.567   0.586   9.697
29985WAT      O90196   7.379   3.584   5.857
29985WAT     H190197   7.408   3.680   5.853
29985WAT     H290198   7.429   3.538   5.930
29986WAT      O90199   1.495   0.862   4.501
29986WAT     H190200   1.484   0.764   4.513
29986WAT     H290201   1.522   0.903   4.588
29987WAT      O90202   7.565   7.510   6.767
29987WAT     H190203   7.605   7.482   6.855
29987WAT     H290204   7.636   7.551   6.710
29988WAT      O90205   7.432   7.725   9.671
29988WAT     H190206   7.413   7.733   9.769
29988WAT     H290207   7.373   7.655   9.631
29989WAT      O90208   8.641   2.678   1.774
29989WAT     H190209   8.653   2.612   1.700
29989WAT     H290210   8.692   2.761   1.754
29990WAT      O90211   8.949   3.282   9.084
29990WAT     H190212   8.945   3.252   9.179
29990WAT     H290213   8.989   3.209   9.028
29991WAT      O90214   0.926   3.115   7.379
29991WAT     H190215   1.014   3.102   7.333
29991WAT     H290216   0.914   3.043   7.448
29992WAT      O90217   0.889   3.256   1.547
29992WAT     H190218   0.970   3.198   1.554
29992WAT     H290219   0.840   3.255   1.634
29993WAT      O90220   1.820   1.350   7.931
29993WAT     H190221   1.863   1.402   7.857
29993WAT     H290222   1.783   1.414   7.998
29994WAT      O90223   8.513   9.746   3.957
29994WAT     H190224   8.569   9.720   3.878
29994WAT     H290225   8.455   9.669   3.983
29995WAT      O90226   6.416   0.193   8.796
29995WAT     H190227   6.443   0.145   8.880
29995WAT     H290228   6.320   0.222   8.804
29996WAT      O90229   2.904   6.587   7.899
29996WAT     H190230   2.997   6.565   7.928
29996WAT     H290231   2.839   6.538   7.957
29997WAT      O90232   3.412   6.253   9.176
29997WAT     H190233   3.502   6.215   9.197
29997WAT     H290234   3.422   6.349   9.153
29998WAT      O90235   0.813   6.816   5.989
29998WAT     H190236   0.844   6.721   5.993
29998WAT     H290237   0.714   6.819   5.995
29999WAT      O90238   1.270   3.115   4.901
29999WAT     H190239   1.252   3.024   4.939
29999WAT     H290240   1.244   3.185   4.967
30000WAT      O90241   7.941   5.951   4.318
30000WAT     H190242   7.992   5.988   4.395
30000WAT     H290243   7.863   5.898   4.351
30001WAT      O90244   8.269   5.832   1.814
30001WAT     H190245   8.265   5.753   1.875
30001WAT     H290246   8.344   5.821   1.749
30002WAT      O90247   9.845   4.363   7.861
30002WAT     H190248   9.795   4.312   7.930
30002WAT     H290249   9.918   4.416   7.904
30003WAT      O90250   6.649   8.822   5.766
30003WAT     H190251   6.641   8.774   5.853
30003WAT     H290252   6.581   8.895   5.762
30004WAT      O90253   1.566   1.047   0.346
30004WAT     H190254   1.638   0.978   0.342
30004WAT     H290255   1.485   1.008   0.390
30005WAT      O90256   1.656   8.338   8.665
30005WAT     H190257   1.568   8.341   8.712
30005WAT     H290258   1.725   8.387   8.718
30006WAT      O90259   5.861   4.568   6.374
30006WAT     H190260   5.798   4.498   6.341
30006WAT     H290261   5.819   4.658   6.366
30007WAT      O90262   5.257   0.603   1.330
30007WAT     H190263   5.249   0.697   1.360
30007WAT     H290264   5.229   0.596   1.234
30008WAT      O90265   9.717   7.455   6.551
30008WAT     H190266   9.673   7.459   6.462
30008WAT     H290267   9.729   7.360   6.579
30009WAT      O90268   9.881   5.371   9.037
30009WAT     H190269   9.958   5.411   9.085
30009WAT     H290270   9.796   5.410   9.071
30010WAT      O90271   4.970   8.903   7.190
30010WAT     H190272   4.888   8.874   7.141
30010WAT     H290273   5.023   8.823   7.218
30011WAT      O90274   2.475   3.115   0.374
30011WAT     H190275   2.393   3.098   0.319
30011WAT     H290276   2.465   3.203   0.421
30012WAT      O90277   3.917   4.180   4.581
30012WAT     H190278   3.937   4.165   4.484
30012WAT     H290279   3.977   4.252   4.617
30013WAT      O90280   5.386   4.137   8.966
30013WAT     H190281   5.379   4.234   8.942
30013WAT     H290282   5.318   4.085   8.916
30014WAT      O90283   5.234   0.433   7.899
30014WAT     H190284   5.241   0.533   7.896
30014WAT     H290285   5.307   0.393   7.843
30015WAT      O90286   3.658   6.232   6.383
30015WAT     H190287   3.563   6.241   6.411
30015WAT     H290288   3.664   6.236   6.283
30016WAT      O90289   6.260   9.001   6.031
30016WAT     H190290   6.359   9.007   6.022
30016WAT     H290291   6.235   8.997   6.127
30017WAT      O90292   0.650   9.657   9.158
30017WAT     H190293   0.612   9.730   9.215
30017WAT     H290294   0.725   9.613   9.206
30018WAT      O90295   2.972   3.122   8.161
30018WAT     H190296   3.015   3.149   8.247
30018WAT     H290297   2.982   3.024   8.148
30019WAT      O90298   7.064   6.350   0.227
30019WAT     H190299   7.076   6.448   0.213
30019WAT     H290300   7.069   6.329   0.325
30020WAT      O90301   7.524   2.277   2.629
30020WAT     H190302   7.451   2.332   2.590
30020WAT     H290303   7.486   2.191   2.664
30021WAT      O90304   5.144   8.693   0.208
30021WAT     H190305   5.200   8.641   0.143
30021WAT     H290306   5.204   8.738   0.274
30022WAT      O90307   7.442   8.730   6.838
30022WAT     H190308   7.344   8.714   6.828
30022WAT     H290309   7.464   8.823   6.808
30023WAT      O90310   9.245   2.135   7.797
30023WAT     H190311   9.317   2.117   7.863
30023WAT     H290312   9.165   2.173   7.845
30024WAT      O90313   2.831   5.910   5.639
30024WAT     H190314   2.757   5.843   5.650
30024WAT     H290315   2.833   5.942   5.544
30025WAT      O90316   4.736   5.958   3.146
30025WAT     H190317   4.802   5.912   3.205
30025WAT     H290318   4.734   5.913   3.057
30026WAT      O90319   4.130   6.540   3.524
30026WAT     H190320   4.048   6.486   3.505
30026WAT     H290321   4.104   6.635   3.543
30027WAT      O90322   7.145   1.935   9.505
30027WAT     H190323   7.173   1.878   9.582
30027WAT     H290324   7.161   2.032   9.527
30028WAT      O90325   3.121   5.992   3.564
30028WAT     H190326   3.130   5.905   3.612
30028WAT     H290327   3.029   6.028   3.578
30029WAT      O90328   4.607   2.517   2.300
30029WAT     H190329   4.628   2.511   2.203
30029WAT     H290330   4.691   2.510   2.354
30030WAT      O90331   2.100   3.292   2.582
30030WAT     H190332   2.168   3.313   2.652
30030WAT     H290333   2.034   3.227   2.619
30031WAT      O90334   0.195   8.456   1.823
30031WAT     H190335   0.183   8.397   1.742
30031WAT     H290336   0.117   8.443   1.885
30032WAT      O90337   7.836   0.046   6.881
30032WAT     H190338   7.848   0.144   6.865
30032WAT     H290339   7.907  -0.005   6.833
30033WAT      O90340   8.208   8.680   2.686
30033WAT     H190341   8.142   8.648   2.618
30033WAT     H290342   8.233   8.775   2.666
30034WAT      O90343   1.025   8.609   5.945
30034WAT     H190344   1.074   8.696   5.948
30034WAT     H290345   1.051   8.559   5.862
30035WAT      O90346   0.198   0.365   1.009
30035WAT     H190347   0.173   0.419   1.089
30035WAT     H290348   0.297   0.369   0.995
30036WAT      O90349   5.694   2.287   4.514
30036WAT     H190350   5.706   2.287   4.414
30036WAT     H290351   5.771   2.335   4.556
30037WAT      O90352   2.544   5.218   3.430
30037WAT     H190353   2.465   5.186   3.376
30037WAT     H290354   2.532   5.190   3.525
30038WAT      O90355   4.392   3.008   3.594
30038WAT     H190356   4.399   3.107   3.600
30038WAT     H290357   4.476   2.970   3.554
30039WAT      O90358   1.274   2.660   8.694
30039WAT     H190359   1.210   2.622   8.627
30039WAT     H290360   1.289   2.757   8.674
30040WAT      O90361   5.295   3.475   9.624
30040WAT     H190362   5.383   3.454   9.666
30040WAT     H290363   5.228   3.494   9.696
30041WAT      O90364   2.313   0.626   8.185
30041WAT     H190365   2.216   0.612   8.168
30041WAT     H290366   2.365   0.612   8.101
30042WAT      O90367   9.019   7.775   2.073
30042WAT     H190368   8.992   7.869   2.096
30042WAT     H290369   9.115   7.774   2.046
30043WAT      O90370   9.020   5.448   9.752
30043WAT     H190371   9.095   5.384   9.732
30043WAT     H290372   9.017   5.465   9.850
30044WAT      O90373   3.211   5.781   3.205
30044WAT     H190374   3.177   5.872   3.230
30044WAT     H290375   3.234   5.780   3.107
30045WAT      O90376   1.676   1.783   5.655
30045WAT     H190377   1.686   1.881   5.639
30045WAT     H290378   1.682   1.764   5.753
30046WAT      O90379   7.703   4.779   8.440
30046WAT     H190380   7.640   4.704   8.423
30046WAT     H290381   7.702   4.842   8.362
30047WAT      O90382   8.134   0.228   6.882
30047WAT     H190383   8.156   0.188   6.971
30047WAT     H290384   8.089   0.159   6.824
30048WAT      O90385   0.864   4.805   1.704
30048WAT     H190386   0.932   4.761   1.645
30048WAT     H290387   0.869   4.765   1.796
30049WAT      O90388   3.765   6.943   8.684
30049WAT     H190389   3.780   6.899   8.596
30049WAT     H290390   3.847   6.994   8.711
30050WAT      O90391   9.388   9.129   3.884
30050WAT     H190392   9.337   9.143   3.799
30050WAT     H290393   9.457   9.058   3.871
30051WAT      O90394   4.714   6.166   1.648
30051WAT     H190395   4.722   6.074   1.608
30051WAT     H290396   4.667   6.159   1.737
30052WAT      O90397   1.001   8.939   7.126
30052WAT     H190398   1.018   8.895   7.215
30052WAT     H290399   1.010   9.038   7.136
30053WAT      O90400   8.322   7.613   1.921
30053WAT     H190401   8.386   7.647   1.989
30053WAT     H290402   8.320   7.513   1.924
30054WAT      O90403   8.264   4.431   1.559
30054WAT     H190404   8.318   4.417   1.476
30054WAT     H290405   8.171   4.399   1.545
30055WAT      O90406   5.164   6.859   1.595
30055WAT     H190407   5.218   6.941   1.612
30055WAT     H290408   5.091   6.879   1.530
30056WAT      O90409   3.079   8.714   6.668
30056WAT     H190410   3.159   8.760   6.629
30056WAT     H290411   3.013   8.782   6.700
30057WAT      O90412   5.924   0.060   8.392
30057WAT     H190413   5.825   0.045   8.398
30057WAT     H290414   5.942   0.159   8.398
30058WAT      O90415   4.873   1.608   4.278
30058WAT     H190416   4.871   1.652   4.188
30058WAT     H290417   4.967   1.598   4.309
30059WAT      O90418   6.976   9.271   1.032
30059WAT     H190419   7.017   9.278   0.942
30059WAT     H290420   6.911   9.195   1.033
30060WAT      O90421   3.551   7.069   8.759
30060WAT     H190422   3.462   7.045   8.720
30060WAT     H290423   3.619   7.002   8.731
30061WAT      O90424   1.162   6.839   3.982
30061WAT     H190425   1.245   6.892   4.002
30061WAT     H290426   1.181   6.742   3.991
30062WAT      O90427   4.696   1.912   5.154
30062WAT     H190428   4.788   1.935   5.186
30062WAT     H290429   4.665   1.828   5.197
30063WAT      O90430   3.277   1.117   3.334
30063WAT     H190431   3.280   1.202   3.282
30063WAT     H290432   3.356   1.112   3.395
30064WAT      O90433   8.042   7.641   9.017
30064WAT     H190434   8.060   7.731   9.057
30064WAT     H290435   7.944   7.631   9.001
30065WAT      O90436   8.179   8.373   7.184
30065WAT     H190437   8.119   8.453   7.186
30065WAT     H290438   8.150   8.311   7.111
30066WAT      O90439   6.835   2.720   3.500
30066WAT     H190440   6.791   2.776   3.430
30066WAT     H290441   6.772   2.649   3.531
30067WAT      O90442   1.884   9.062   6.084
30067WAT     H190443   1.786   9.082   6.093
30067WAT     H290444   1.935   9.148   6.075
30068WAT      O90445   7.276   1.578   7.918
30068WAT     H190446   7.294   1.550   7.824
30068WAT     H290447   7.347   1.539   7.978
30069WAT      O90448   7.374   0.504   5.274
30069WAT     H190449   7.463   0.466   5.299
30069WAT     H290450   7.379   0.604   5.273
30070WAT      O90451   1.087   5.373   0.153
30070WAT     H190452   1.036   5.458   0.138
30070WAT     H290453   1.032   5.311   0.209
30071WAT      O90454   9.392   2.439   0.027
30071WAT     H190455   9.407   2.345   0.060
30071WAT     H290456   9.304   2.472   0.060
30072WAT      O90457   1.651   8.212   0.039
30072WAT     H190458   1.703   8.191  -0.044
30072WAT     H290459   1.579   8.277   0.017
30073WAT      O90460   7.304   5.774   1.552
30073WAT     H190461   7.385   5.715   1.547
30073WAT     H290462   7.242   5.750   1.477
30074WAT      O90463   2.291   5.385   3.541
30074WAT     H190464   2.221   5.452   3.562
30074WAT     H290465   2.305   5.324   3.619
30075WAT      O90466   6.535   9.812   7.490
30075WAT     H190467   6.574   9.863   7.568
30075WAT     H290468   6.550   9.714   7.504
30076WAT      O90469   1.698   2.770   2.723
30076WAT     H190470   1.692   2.842   2.653
30076WAT     H290471   1.613   2.766   2.774
30077WAT      O90472   9.444   0.604   7.276
30077WAT     H190473   9.497   0.529   7.238
30077WAT     H290474   9.356   0.611   7.228
30078WAT      O90475   6.355   7.350   7.146
30078WAT     H190476   6.347   7.377   7.050
30078WAT     H290477   6.268   7.367   7.193
30079WAT      O90478   1.726   6.249   6.409
30079WAT     H190479   1.811   6.199   6.419
30079WAT     H290480   1.661   6.219   6.480
30080WAT      O90481   9.315   3.610   4.866
30080WAT     H190482   9.229   3.660   4.872
30080WAT     H290483   9.356   3.625   4.776
30081WAT      O90484   1.930   1.380   2.197
30081WAT     H190485   1.870   1.446   2.154
30081WAT     H290486   1.995   1.428   2.256
30082WAT      O90487   6.269   2.042   6.676
30082WAT     H190488   6.292   2.135   6.649
30082WAT     H290489   6.260   1.985   6.595
30083WAT      O90490   3.568   1.773   9.727
30083WAT     H190491   3.642   1.735   9.782
30083WAT     H290492   3.605   1.828   9.653
30084WAT      O90493   0.669   4.795   5.104
30084WAT     H190494   0.641   4.827   5.195
30084WAT     H290495   0.755   4.838   5.079
30085WAT      O90496   7.170   9.224   1.371
30085WAT     H190497   7.104   9.293   1.341
30085WAT     H290498   7.143   9.134   1.336
30086WAT      O90499   5.148   4.677   0.664
30086WAT     H190500   5.099   4.602   0.708
30086WAT     H290501   5.182   4.647   0.575
30087WAT      O90502   8.798   7.496   5.325
30087WAT     H190503   8.750   7.552   5.392
30087WAT     H290504   8.895   7.518   5.325
30088WAT      O90505   3.880   5.259   9.854
30088WAT     H190506   3.813   5.327   9.825
30088WAT     H290507   3.961   5.266   9.795
30089WAT      O90508   3.545   0.723   7.046
30089WAT     H190509   3.557   0.628   7.017
30089WAT     H290510   3.451   0.737   7.078
30090WAT      O90511   2.051   7.425   0.740
30090WAT     H190512   2.051   7.524   0.728
30090WAT     H290513   2.031   7.404   0.836
30091WAT      O90514   1.328   4.060   1.271
30091WAT     H190515   1.300   4.041   1.177
30091WAT     H290516   1.282   3.996   1.333
30092WAT      O90517   2.809   5.208   8.221
30092WAT     H190518   2.815   5.260   8.307
30092WAT     H290519   2.775   5.116   8.240
30093WAT      O90520   8.964   2.328   7.465
30093WAT     H190521   8.902   2.375   7.402
30093WAT     H290522   8.956   2.369   7.556
30094WAT      O90523   2.361   4.666   0.579
30094WAT     H190524   2.331   4.747   0.629
30094WAT     H290525   2.287   4.632   0.521
30095WAT      O90526   9.001   2.267   2.188
30095WAT     H190527   8.998   2.254   2.089
30095WAT     H290528   9.073   2.208   2.226
30096WAT      O90529   2.392   3.831   4.962
30096WAT     H190530   2.421   3.756   4.903
30096WAT     H290531   2.362   3.794   5.050
30097WAT      O90532   2.524   7.425   0.836
30097WAT     H190533   2.618   7.441   0.805
30097WAT     H290534   2.493   7.503   0.891
30098WAT      O90535   3.019   7.862   9.474
30098WAT     H190536   3.026   7.791   9.404
30098WAT     H290537   2.981   7.945   9.435
30099WAT      O90538   3.409   3.026   9.038
30099WAT     H190539   3.378   2.982   8.953
30099WAT     H290540   3.421   3.124   9.022
30100WAT      O90541   2.201   8.215   8.495
30100WAT     H190542   2.245   8.137   8.449
30100WAT     H290543   2.113   8.233   8.452
30101WAT      O90544   7.125   5.866   0.015
30101WAT     H190545   7.110   5.768   0.020
30101WAT     H290546   7.039   5.913  -0.004
30102WAT      O90547   5.637   7.229   2.937
30102WAT     H190548   5.588   7.307   2.976
30102WAT     H290549   5.675   7.255   2.848
30103WAT      O90550   8.443   7.506   6.266
30103WAT     H190551   8.487   7.592   6.294
30103WAT     H290552   8.351   7.524   6.232
30104WAT      O90553   7.352   9.814   7.516
30104WAT     H190554   7.345   9.799   7.417
30104WAT     H290555   7.336   9.911   7.535
30105WAT      O90556   4.725   7.082   1.031
30105WAT     H190557   4.718   7.007   1.097
30105WAT     H290558   4.668   7.158   1.062
30106WAT      O90559   0.218   4.231   4.144
30106WAT     H190560   0.196   4.234   4.046
30106WAT     H290561   0.149   4.281   4.196
30107WAT      O90562   0.473   0.332   5.821
30107WAT     H190563   0.548   0.387   5.786
30107WAT     H290564   0.421   0.384   5.888
30108WAT      O90565   1.851   7.610   7.370
30108WAT     H190566   1.941   7.581   7.404
30108WAT     H290567   1.824   7.695   7.416
30109WAT      O90568   2.221   1.298   2.434
30109WAT     H190569   2.176   1.387   2.426
30109WAT     H290570   2.172   1.231   2.378
30110WAT      O90571   5.356   7.767   5.865
30110WAT     H190572   5.354   7.740   5.769
30110WAT     H290573   5.306   7.852   5.877
30111WAT      O90574   0.935   4.046   6.414
30111WAT     H190575   0.990   4.109   6.359
30111WAT     H290576   0.901   4.093   6.495
30112WAT      O90577   2.678   8.535   1.683
30112WAT     H190578   2.725   8.539   1.770
30112WAT     H290579   2.696   8.618   1.631
30113WAT      O90580   4.215   2.930   4.164
30113WAT     H190581   4.161   2.864   4.216
30113WAT     H290582   4.186   2.929   4.068
30114WAT      O90583   0.323   7.096   3.704
30114WAT     H190584   0.405   7.079   3.758
30114WAT     H290585   0.328   7.046   3.618
30115WAT      O90586   4.601   8.217   5.780
30115WAT     H190587   4.680   8.239   5.724
30115WAT     H290588   4.624   8.230   5.877
30116WAT      O90589   2.146   4.548   0.372
30116WAT     H190590   2.138   4.571   0.275
30116WAT     H290591   2.054   4.531   0.410
30117WAT      O90592   1.878   2.074   2.775
30117WAT     H190593   1.808   2.144   2.763
30117WAT     H290594   1.865   2.002   2.707
30118WAT      O90595   4.303   8.086   2.288
30118WAT     H190596   4.225   8.062   2.230
30118WAT     H290597   4.379   8.117   2.231
30119WAT      O90598   4.027   4.385   8.319
30119WAT     H190599   4.055   4.473   8.280
30119WAT     H290600   4.084   4.312   8.281
30120WAT      O90601   5.078   2.052   9.168
30120WAT     H190602   5.161   2.054   9.111
30120WAT     H290603   5.027   2.137   9.155
30121WAT      O90604   8.640   1.654   2.241
30121WAT     H190605   8.595   1.631   2.328
30121WAT     H290606   8.712   1.587   2.223
30122WAT      O90607   5.981   3.739   3.535
30122WAT     H190608   5.970   3.833   3.566
30122WAT     H290609   6.053   3.694   3.588
30123WAT      O90610   2.652   2.791   9.337
30123WAT     H190611   2.749   2.776   9.358
30123WAT     H290612   2.595   2.736   9.398
30124WAT      O90613   3.441   4.116   5.791
30124WAT     H190614   3.522   4.162   5.825
30124WAT     H290615   3.443   4.113   5.691
30125WAT      O90616   1.320   0.062   4.597
30125WAT     H190617   1.291   0.058   4.501
30125WAT     H290618   1.310   0.155   4.631
30126WAT      O90619   2.563   3.107   8.087
30126WAT     H190620   2.595   3.046   8.015
30126WAT     H290621   2.538   3.054   8.168
30127WAT      O90622   2.938   1.370   2.175
30127WAT     H190623   2.962   1.283   2.217
30127WAT     H290624   2.844   1.394   2.200
30128WAT      O90625   1.960   9.136   6.930
30128WAT     H190626   1.978   9.174   7.020
30128WAT     H290627   1.875   9.176   6.893
30129WAT      O90628   7.425   8.998   8.557
30129WAT     H190629   7.380   9.001   8.647
30129WAT     H290630   7.361   9.029   8.487
30130WAT      O90631   0.535   3.920   7.586
30130WAT     H190632   0.612   3.977   7.558
30130WAT     H290633   0.453   3.948   7.537
30131WAT      O90634   3.142   4.859   3.074
30131WAT     H190635   3.082   4.930   3.111
30131WAT     H290636   3.176   4.888   2.985
30132WAT      O90637   5.311   3.112   4.324
30132WAT     H190638   5.403   3.094   4.289
30132WAT     H290639   5.267   3.183   4.270
30133WAT      O90640   5.655   6.935   1.387
30133WAT     H190641   5.644   6.860   1.453
30133WAT     H290642   5.565   6.959   1.349
30134WAT      O90643   5.711   4.157   2.579
30134WAT     H190644   5.612   4.162   2.568
30134WAT     H290645   5.743   4.066   2.554
30135WAT      O90646   0.261   7.058   7.489
30135WAT     H190647   0.240   6.978   7.432
30135WAT     H290648   0.347   7.042   7.538
30136WAT      O90649   7.700   8.101   1.185
30136WAT     H190650   7.674   8.176   1.246
30136WAT     H290651   7.789   8.120   1.145
30137WAT      O90652   7.970   4.155   6.874
30137WAT     H190653   7.926   4.225   6.930
30137WAT     H290654   8.062   4.186   6.848
30138WAT      O90655   6.975   8.848   3.121
30138WAT     H190656   7.067   8.816   3.099
30138WAT     H290657   6.980   8.910   3.200
30139WAT      O90658   7.166   0.347   7.380
30139WAT     H190659   7.087   0.340   7.442
30139WAT     H290660   7.167   0.437   7.338
30140WAT      O90661   3.445   2.100   0.653
30140WAT     H190662   3.533   2.084   0.609
30140WAT     H290663   3.458   2.122   0.749
30141WAT      O90664   9.678   1.217   9.461
30141WAT     H190665   9.718   1.130   9.490
30141WAT     H290666   9.750   1.281   9.436
30142WAT      O90667   7.866   1.073   7.253
30142WAT     H190668   7.901   1.027   7.172
30142WAT     H290669   7.861   1.008   7.329
30143WAT      O90670   6.134   0.546   9.631
30143WAT     H190671   6.182   0.484   9.693
30143WAT     H290672   6.185   0.632   9.623
30144WAT      O90673   5.713   2.191   2.383
30144WAT     H190674   5.763   2.223   2.303
30144WAT     H290675   5.640   2.130   2.354
30145WAT      O90676   1.498   0.584   8.471
30145WAT     H190677   1.405   0.619   8.481
30145WAT     H290678   1.506   0.531   8.387
30146WAT      O90679   5.695   6.905   7.492
30146WAT     H190680   5.737   6.956   7.568
30146WAT     H290681   5.601   6.883   7.515
30147WAT      O90682   9.224   1.639   9.817
30147WAT     H190683   9.282   1.579   9.761
30147WAT     H290684   9.166   1.583   9.876
30148WAT      O90685   0.893   1.949   9.023
30148WAT     H190686   0.888   2.016   8.949
30148WAT     H290687   0.984   1.952   9.065
30149WAT      O90688   3.530   4.882   4.867
30149WAT     H190689   3.489   4.798   4.831
30149WAT     H290690   3.463   4.956   4.863
30150WAT      O90691   1.105   9.752   8.257
30150WAT     H190692   1.049   9.711   8.184
30150WAT     H290693   1.183   9.800   8.216
30151WAT      O90694   0.596   9.698   2.050
30151WAT     H190695   0.602   9.722   2.146
30151WAT     H290696   0.669   9.634   2.027
30152WAT      O90697   5.139   7.516   6.727
30152WAT     H190698   5.048   7.557   6.713
30152WAT     H290699   5.153   7.444   6.658
30153WAT      O90700   2.376   6.770   7.537
30153WAT     H190701   2.469   6.785   7.571
30153WAT     H290702   2.311   6.789   7.610
30154WAT      O90703   3.887   4.099   7.830
30154WAT     H190704   3.880   4.004   7.859
30154WAT     H290705   3.801   4.147   7.850
30155WAT      O90706   9.649   3.411   1.539
30155WAT     H190707   9.730   3.453   1.580
30155WAT     H290708   9.664   3.312   1.531
30156WAT      O90709   6.718   9.023   4.216
30156WAT     H190710   6.809   8.987   4.233
30156WAT     H290711   6.685   9.072   4.297
30157WAT      O90712   1.081   0.015   4.190
30157WAT     H190713   1.046   0.071   4.115
30157WAT     H290714   1.004  -0.019   4.244
30158WAT      O90715   2.285   6.388   4.011
30158WAT     H190716   2.278   6.484   3.983
30158WAT     H290717   2.196   6.344   3.997
30159WAT      O90718   9.035   2.614   9.465
30159WAT     H190719   9.080   2.619   9.376
30159WAT     H290720   9.087   2.553   9.525
30160WAT      O90721   3.590   8.155   2.761
30160WAT     H190722   3.682   8.163   2.797
30160WAT     H290723   3.568   8.058   2.748
30161WAT      O90724   1.532   1.317   7.747
30161WAT     H190725   1.484   1.288   7.830
30161WAT     H290726   1.468   1.317   7.670
30162WAT      O90727   9.771   7.857   1.786
30162WAT     H190728   9.755   7.886   1.880
30162WAT     H290729   9.799   7.761   1.784
30163WAT      O90730   5.518   5.010   7.088
30163WAT     H190731   5.556   5.088   7.137
30163WAT     H290732   5.442   5.040   7.030
30164WAT      O90733   6.852   8.138   6.254
30164WAT     H190734   6.883   8.225   6.218
30164WAT     H290735   6.862   8.138   6.353
30165WAT      O90736   7.611   3.043   1.503
30165WAT     H190737   7.608   2.944   1.508
30165WAT     H290738   7.619   3.072   1.408
30166WAT      O90739   2.829   7.486   1.771
30166WAT     H190740   2.872   7.430   1.841
30166WAT     H290741   2.782   7.428   1.705
30167WAT      O90742   0.162   2.596   4.549
30167WAT     H190743   0.084   2.545   4.586
30167WAT     H290744   0.187   2.559   4.459
30168WAT      O90745   9.052   6.332   5.142
30168WAT     H190746   8.984   6.321   5.215
30168WAT     H290747   9.036   6.263   5.071
30169WAT      O90748   7.752   4.775   3.477
30169WAT     H190749   7.755   4.683   3.516
30169WAT     H290750   7.844   4.803   3.450
30170WAT      O90751   7.471   4.136   0.871
30170WAT     H190752   7.469   4.235   0.858
30170WAT     H290753   7.551   4.111   0.926
30171WAT      O90754   9.536   4.861   0.473
30171WAT     H190755   9.616   4.814   0.436
30171WAT     H290756   9.467   4.794   0.499
30172WAT      O90757   7.198   5.793   6.177
30172WAT     H190758   7.119   5.835   6.221
30172WAT     H290759   7.205   5.826   6.082
30173WAT      O90760   1.309   1.507   8.788
30173WAT     H190761   1.383   1.573   8.770
30173WAT     H290762   1.310   1.436   8.718
30174WAT      O90763   0.608   2.535   7.190
30174WAT     H190764   0.530   2.473   7.193
30174WAT     H290765   0.600   2.603   7.263
30175WAT      O90766   4.906   2.704   3.118
30175WAT     H190767   4.937   2.609   3.116
30175WAT     H290768   4.948   2.751   3.196
30176WAT      O90769   5.890   8.765   2.333
30176WAT     H190770   5.909   8.784   2.429
30176WAT     H290771   5.874   8.850   2.284
30177WAT      O90772   2.994   3.413   3.129
30177WAT     H190773   3.049   3.339   3.093
30177WAT     H290774   3.009   3.496   3.075
30178WAT      O90775   1.060   1.943   6.222
30178WAT     H190776   1.153   1.977   6.212
30178WAT     H290777   1.024   1.917   6.132
30179WAT      O90778   6.386   7.565   8.192
30179WAT     H190779   6.300   7.539   8.237
30179WAT     H290780   6.369   7.581   8.095
30180WAT      O90781   2.848   3.873   0.873
30180WAT     H190782   2.751   3.852   0.868
30180WAT     H290783   2.883   3.892   0.781
30181WAT      O90784   7.080   4.226   7.454
30181WAT     H190785   7.169   4.262   7.426
30181WAT     H290786   7.036   4.181   7.376
30182WAT      O90787   2.197   9.794   7.798
30182WAT     H190788   2.263   9.824   7.730
30182WAT     H290789   2.125   9.741   7.754
30183WAT      O90790   9.583   9.313   7.817
30183WAT     H190791   9.529   9.395   7.798
30183WAT     H290792   9.622   9.320   7.909
30184WAT      O90793   1.054   0.556   8.632
30184WAT     H190794   1.063   0.581   8.729
30184WAT     H290795   0.957   0.544   8.610
30185WAT      O90796   1.804   2.343   2.998
30185WAT     H190797   1.717   2.368   2.955
30185WAT     H290798   1.786   2.299   3.086
30186WAT      O90799   6.010   8.361   4.250
30186WAT     H190800   6.079   8.356   4.178
30186WAT     H290801   6.018   8.280   4.309
30187WAT      O90802   4.575   5.185   0.039
30187WAT     H190803   4.500   5.156   0.099
30187WAT     H290804   4.590   5.115  -0.031
30188WAT      O90805   2.841   7.785   1.040
30188WAT     H190806   2.940   7.778   1.054
30188WAT     H290807   2.808   7.871   1.077
30189WAT      O90808   9.151   9.720   4.307
30189WAT     H190809   9.078   9.699   4.243
30189WAT     H290810   9.171   9.639   4.363
30190WAT      O90811   5.763   9.418   1.475
30190WAT     H190812   5.713   9.489   1.424
30190WAT     H290813   5.769   9.335   1.419
30191WAT      O90814   5.614   3.512   0.380
30191WAT     H190815   5.531   3.559   0.351
30191WAT     H290816   5.663   3.569   0.446
30192WAT      O90817   5.037   3.693   8.673
30192WAT     H190818   5.078   3.709   8.762
30192WAT     H290819   4.944   3.657   8.685
30193WAT      O90820   9.326   1.601   2.280
30193WAT     H190821   9.404   1.552   2.240
30193WAT     H290822   9.357   1.653   2.359
30194WAT      O90823   4.546   8.075   0.287
30194WAT     H190824   4.527   8.054   0.192
30194WAT     H290825   4.611   8.151   0.293
30195WAT      O90826   2.215   0.498   2.211
30195WAT     H190827   2.277   0.551   2.269
30195WAT     H290828   2.161   0.560   2.154
30196WAT      O90829   7.610   8.893   6.010
30196WAT     H190830   7.609   8.794   5.996
30196WAT     H290831   7.604   8.914   6.107
30197WAT      O90832   8.358   2.585   9.676
30197WAT     H190833   8.317   2.607   9.588
30197WAT     H290834   8.455   2.566   9.664
30198WAT      O90835   5.973   9.357   0.481
30198WAT     H190836   6.068   9.353   0.514
30198WAT     H290837   5.940   9.451   0.486
30199WAT      O90838   4.426   6.818   5.430
30199WAT     H190839   4.481   6.737   5.409
30199WAT     H290840   4.407   6.868   5.346
30200WAT      O90841   4.772   2.560   2.681
30200WAT     H190842   4.729   2.577   2.770
30200WAT     H290843   4.779   2.646   2.631
30201WAT      O90844   0.179   9.105   3.746
30201WAT     H190845   0.238   9.030   3.777
30201WAT     H290846   0.090   9.068   3.719
30202WAT      O90847   3.234   7.141   2.670
30202WAT     H190848   3.295   7.219   2.667
30202WAT     H290849   3.198   7.130   2.763
30203WAT      O90850   2.955   9.691   4.521
30203WAT     H190851   2.940   9.618   4.588
30203WAT     H290852   2.984   9.774   4.568
30204WAT      O90853   6.473   6.558   3.181
30204WAT     H190854   6.536   6.483   3.199
30204WAT     H290855   6.525   6.641   3.161
30205WAT      O90856   7.045   7.262   8.175
30205WAT     H190857   7.106   7.339   8.192
30205WAT     H290858   6.957   7.279   8.220
30206WAT      O90859   2.042   4.233   5.432
30206WAT     H190860   2.051   4.148   5.380
30206WAT     H290861   2.095   4.305   5.387
30207WAT      O90862   2.547   8.832   0.576
30207WAT     H190863   2.463   8.885   0.566
30207WAT     H290864   2.551   8.792   0.668
30208WAT      O90865   1.064   6.237   0.881
30208WAT     H190866   1.139   6.289   0.841
30208WAT     H290867   1.098   6.150   0.917
30209WAT      O90868   0.190   0.363   9.351
30209WAT     H190869   0.116   0.359   9.284
30209WAT     H290870   0.269   0.410   9.312
30210WAT      O90871   7.132   3.452   6.152
30210WAT     H190872   7.055   3.458   6.216
30210WAT     H290873   7.190   3.375   6.178
30211WAT      O90874   1.506   3.548   9.688
30211WAT     H190875   1.592   3.588   9.657
30211WAT     H290876   1.436   3.619   9.694
30212WAT      O90877   4.400   9.488   1.627
30212WAT     H190878   4.481   9.504   1.684
30212WAT     H290879   4.406   9.398   1.585
30213WAT      O90880   7.924   2.697   8.600
30213WAT     H190881   7.974   2.734   8.522
30213WAT     H290882   7.945   2.751   8.681
30214WAT      O90883   8.450   9.151   5.528
30214WAT     H190884   8.465   9.249   5.520
30214WAT     H290885   8.533   9.102   5.502
30215WAT      O90886   6.022   4.011   7.880
30215WAT     H190887   5.972   4.097   7.887
30215WAT     H290888   6.057   3.985   7.970
30216WAT      O90889   0.404   2.212   5.782
30216WAT     H190890   0.336   2.220   5.709
30216WAT     H290891   0.434   2.117   5.789
30217WAT      O90892   0.056   9.778   1.787
30217WAT     H190893  -0.015   9.761   1.718
30217WAT     H290894   0.069   9.695   1.841
30218WAT      O90895   6.738   2.015   6.932
30218WAT     H190896   6.682   2.014   6.849
30218WAT     H290897   6.680   1.992   7.011
30219WAT      O90898   3.050   4.130   9.133
30219WAT     H190899   3.091   4.041   9.153
30219WAT     H290900   3.121   4.195   9.104
30220WAT      O90901   5.228   4.943   1.278
30220WAT     H190902   5.143   4.954   1.329
30220WAT     H290903   5.305   4.978   1.331
30221WAT      O90904   6.058   5.934   2.986
30221WAT     H190905   6.070   6.033   2.984
30221WAT     H290906   6.115   5.894   3.058
30222WAT      O90907   0.613   5.774   2.822
30222WAT     H190908   0.561   5.723   2.753
30222WAT     H290909   0.688   5.717   2.855
30223WAT      O90910   6.946   0.336   7.962
30223WAT     H190911   6.943   0.312   8.059
30223WAT     H290912   6.924   0.433   7.951
30224WAT      O90913   6.271   4.715   5.061
30224WAT     H190914   6.300   4.790   5.002
30224WAT     H290915   6.172   4.706   5.057
30225WAT      O90916   9.007   2.912   6.608
30225WAT     H190917   8.955   2.994   6.630
30225WAT     H290918   9.097   2.916   6.652
30226WAT      O90919   2.738   1.735   1.529
30226WAT     H190920   2.836   1.717   1.537
30226WAT     H290921   2.724   1.832   1.507
30227WAT      O90922   4.136   5.363   2.199
30227WAT     H190923   4.119   5.297   2.127
30227WAT     H290924   4.051   5.378   2.251
30228WAT      O90925   7.866   9.117   1.235
30228WAT     H190926   7.900   9.204   1.200
30228WAT     H290927   7.943   9.054   1.249
30229WAT      O90928   3.527   4.578   6.640
30229WAT     H190929   3.435   4.589   6.603
30229WAT     H290930   3.594   4.602   6.571
30230WAT      O90931   2.811   2.696   5.951
30230WAT     H190932   2.721   2.700   5.908
30230WAT     H290933   2.809   2.634   6.029
30231WAT      O90934   8.113   2.616   0.671
30231WAT     H190935   8.143   2.681   0.600
30231WAT     H290936   8.078   2.667   0.750
30232WAT      O90937   8.958   1.358   8.556
30232WAT     H190938   9.036   1.295   8.553
30232WAT     H290939   8.897   1.341   8.479
30233WAT      O90940   2.226   2.980   2.085
30233WAT     H190941   2.186   2.973   2.176
30233WAT     H290942   2.318   3.020   2.091
30234WAT      O90943   7.374   6.700   0.011
30234WAT     H190944   7.337   6.692  -0.081
30234WAT     H290945   7.474   6.696   0.008
30235WAT      O90946   7.136   1.649   0.251
30235WAT     H190947   7.220   1.597   0.267
30235WAT     H290948   7.057   1.591   0.269
30236WAT      O90949   6.707   7.109   1.587
30236WAT     H190950   6.621   7.080   1.627
30236WAT     H290951   6.744   7.036   1.530
30237WAT      O90952   0.737   6.864   8.122
30237WAT     H190953   0.643   6.879   8.149
30237WAT     H290954   0.798   6.923   8.175
30238WAT      O90955   6.092   9.433   4.069
30238WAT     H190956   6.086   9.338   4.038
30238WAT     H290957   6.060   9.438   4.164
30239WAT      O90958   6.807   6.219   4.080
30239WAT     H190959   6.884   6.158   4.100
30239WAT     H290960   6.741   6.216   4.156
30240WAT      O90961   3.760   4.003   1.119
30240WAT     H190962   3.738   4.097   1.093
30240WAT     H290963   3.707   3.940   1.063
30241WAT      O90964   8.670   1.475   7.951
30241WAT     H190965   8.743   1.407   7.959
30241WAT     H290966   8.675   1.538   8.028
30242WAT      O90967   6.245   5.899   1.181
30242WAT     H190968   6.283   5.991   1.177
30242WAT     H290969   6.309   5.835   1.137
30243WAT      O90970   5.022   2.868   5.901
30243WAT     H190971   4.954   2.852   5.973
30243WAT     H290972   5.033   2.967   5.888
30244WAT      O90973   5.744   0.105   9.285
30244WAT     H190974   5.699   0.127   9.198
30244WAT     H290975   5.739   0.184   9.345
30245WAT      O90976   2.408   0.599   7.935
30245WAT     H190977   2.346   0.624   7.861
30245WAT     H290978   2.503   0.602   7.902
30246WAT      O90979   5.203   3.641   1.062
30246WAT     H190980   5.207   3.586   0.979
30246WAT     H290981   5.193   3.581   1.141
30247WAT      O90982   0.386   9.526   9.285
30247WAT     H190983   0.403   9.447   9.226
30247WAT     H290984   0.459   9.593   9.274
30248WAT      O90985   2.339   3.974   6.273
30248WAT     H190986   2.401   3.928   6.337
30248WAT     H290987   2.288   3.906   6.220
30249WAT      O90988   5.221   6.257   7.695
30249WAT     H190989   5.124   6.276   7.680
30249WAT     H290990   5.276   6.332   7.659
30250WAT      O90991   5.793   7.785   2.849
30250WAT     H190992   5.825   7.880   2.848
30250WAT     H290993   5.766   7.759   2.756
30251WAT      O90994   1.924   9.257   9.400
30251WAT     H190995   1.830   9.292   9.392
30251WAT     H290996   1.962   9.286   9.488
30252WAT      O90997   4.677   2.816   3.288
30252WAT     H190998   4.777   2.810   3.294
30252WAT     H290999   4.652   2.889   3.224
30253WAT      O91000   7.221   5.726   0.308
30253WAT     H191001   7.157   5.793   0.271
30253WAT     H291002   7.201   5.635   0.271
30254WAT      O91003   2.369   0.197   7.212
30254WAT     H191004   2.306   0.262   7.254
30254WAT     H291005   2.359   0.108   7.256
30255WAT      O91006   9.122   0.952   9.781
30255WAT     H191007   9.193   1.015   9.814
30255WAT     H291008   9.163   0.863   9.764
30256WAT      O91009   3.498   5.787   8.986
30256WAT     H191010   3.466   5.876   9.020
30256WAT     H291011   3.432   5.716   9.010
30257WAT      O91012   9.156   6.959   4.718
30257WAT     H191013   9.093   6.912   4.780
30257WAT     H291014   9.200   6.892   4.658
30258WAT      O91015   3.331   8.361   7.724
30258WAT     H191016   3.284   8.449   7.736
30258WAT     H291017   3.408   8.374   7.662
30259WAT      O91018   0.197   5.475   1.221
30259WAT     H191019   0.216   5.417   1.299
30259WAT     H291020   0.210   5.571   1.246
30260WAT      O91021   2.541   6.529   4.370
30260WAT     H191022   2.498   6.620   4.375
30260WAT     H291023   2.497   6.475   4.298
30261WAT      O91024   1.271   1.619   3.933
30261WAT     H191025   1.274   1.718   3.944
30261WAT     H291026   1.360   1.586   3.901
30262WAT      O91027   1.048   2.376   1.033
30262WAT     H191028   1.077   2.317   1.108
30262WAT     H291029   1.056   2.327   0.946
30263WAT      O91030   2.465   8.736   2.949
30263WAT     H191031   2.388   8.672   2.946
30263WAT     H291032   2.495   8.748   3.043
30264WAT      O91033   9.425   7.791   6.954
30264WAT     H191034   9.342   7.838   6.926
30264WAT     H291035   9.485   7.778   6.875
30265WAT      O91036   0.937   8.371   2.795
30265WAT     H191037   0.844   8.335   2.796
30265WAT     H291038   0.934   8.471   2.786
30266WAT      O91039   4.796   2.825   1.884
30266WAT     H191040   4.720   2.768   1.854
30266WAT     H291041   4.864   2.769   1.931
30267WAT      O91042   5.428   4.238   1.270
30267WAT     H191043   5.382   4.269   1.353
30267WAT     H291044   5.371   4.257   1.191
30268WAT      O91045   4.712   3.191   0.380
30268WAT     H191046   4.632   3.217   0.326
30268WAT     H291047   4.794   3.225   0.335
30269WAT      O91048   9.835   5.671   6.820
30269WAT     H191049   9.914   5.644   6.875
30269WAT     H291050   9.860   5.670   6.723
30270WAT      O91051   1.023   5.668   7.191
30270WAT     H191052   1.044   5.763   7.166
30270WAT     H291053   1.011   5.614   7.108
30271WAT      O91054   3.958   9.639   3.676
30271WAT     H191055   3.914   9.642   3.765
30271WAT     H291056   3.893   9.603   3.608
30272WAT      O91057   6.511   5.310   6.714
30272WAT     H191058   6.460   5.277   6.794
30272WAT     H291059   6.590   5.250   6.698
30273WAT      O91060   5.481   0.852   6.075
30273WAT     H191061   5.563   0.854   6.017
30273WAT     H291062   5.443   0.944   6.082
30274WAT      O91063   0.538   9.023   5.026
30274WAT     H191064   0.450   9.070   5.024
30274WAT     H291065   0.611   9.089   5.043
30275WAT      O91066   3.955   7.925   3.873
30275WAT     H191067   3.987   7.832   3.855
30275WAT     H291068   3.857   7.922   3.895
30276WAT      O91069   6.388   5.953   3.295
30276WAT     H191070   6.380   6.041   3.247
30276WAT     H291071   6.332   5.885   3.248
30277WAT      O91072   0.550   6.583   8.747
30277WAT     H191073   0.465   6.561   8.699
30277WAT     H291074   0.531   6.647   8.822
30278WAT      O91075   2.446   7.459   3.765
30278WAT     H191076   2.414   7.409   3.685
30278WAT     H291077   2.484   7.395   3.832
30279WAT      O91078   7.468   9.265   5.397
30279WAT     H191079   7.524   9.196   5.443
30279WAT     H291080   7.452   9.238   5.302
30280WAT      O91081   0.265   2.000   7.664
30280WAT     H191082   0.234   2.095   7.655
30280WAT     H291083   0.316   1.989   7.749
30281WAT      O91084   1.750   3.366   5.994
30281WAT     H191085   1.669   3.424   6.009
30281WAT     H291086   1.826   3.424   5.964
30282WAT      O91087   0.013   0.121   0.414
30282WAT     H191088   0.090   0.070   0.376
30282WAT     H291089  -0.004   0.091   0.508
30283WAT      O91090   7.563   2.474   3.073
30283WAT     H191091   7.561   2.383   3.031
30283WAT     H291092   7.564   2.543   3.001
30284WAT      O91093   0.280   8.257   9.735
30284WAT     H191094   0.199   8.310   9.762
30284WAT     H291095   0.287   8.257   9.635
30285WAT      O91096   2.552   1.921   3.141
30285WAT     H191097   2.492   1.851   3.103
30285WAT     H291098   2.498   2.000   3.169
30286WAT      O91099   1.465   7.403   5.270
30286WAT     H191100   1.560   7.378   5.253
30286WAT     H291101   1.462   7.485   5.327
30287WAT      O91102   7.738   0.072   9.583
30287WAT     H191103   7.807   0.008   9.549
30287WAT     H291104   7.654   0.064   9.529
30288WAT      O91105   4.736   6.750   7.017
30288WAT     H191106   4.814   6.783   6.965
30288WAT     H291107   4.699   6.825   7.072
30289WAT      O91108   9.758   1.788   6.604
30289WAT     H191109   9.762   1.885   6.580
30289WAT     H291110   9.691   1.775   6.678
30290WAT      O91111   1.503   3.347   4.588
30290WAT     H191112   1.540   3.409   4.518
30290WAT     H291113   1.412   3.379   4.615
30291WAT      O91114   5.694   2.578   0.680
30291WAT     H191115   5.737   2.567   0.770
30291WAT     H291116   5.596   2.589   0.691
30292WAT      O91117   7.230   7.384   7.619
30292WAT     H191118   7.261   7.296   7.655
30292WAT     H291119   7.280   7.458   7.664
30293WAT      O91120   8.292   7.643   8.488
30293WAT     H191121   8.285   7.726   8.433
30293WAT     H291122   8.335   7.571   8.433
30294WAT      O91123   0.210   5.298   7.416
30294WAT     H191124   0.165   5.386   7.437
30294WAT     H291125   0.224   5.291   7.317
30295WAT      O91126   7.672   8.503   4.830
30295WAT     H191127   7.758   8.457   4.854
30295WAT     H291128   7.692   8.586   4.778
30296WAT      O91129   3.754   6.766   2.911
30296WAT     H191130   3.717   6.754   2.819
30296WAT     H291131   3.808   6.686   2.936
30297WAT      O91132   2.359   0.865   7.298
30297WAT     H191133   2.414   0.947   7.281
30297WAT     H291134   2.395   0.788   7.245
30298WAT      O91135   1.854   8.921   7.097
30298WAT     H191136   1.919   8.996   7.084
30298WAT     H291137   1.902   8.834   7.091
30299WAT      O91138   6.766   2.188   6.547
30299WAT     H191139   6.790   2.092   6.538
30299WAT     H291140   6.782   2.218   6.642
30300WAT      O91141   0.615   3.129   8.548
30300WAT     H191142   0.704   3.172   8.565
30300WAT     H291143   0.629   3.032   8.527
30301WAT      O91144   6.184   1.500   0.941
30301WAT     H191145   6.194   1.598   0.957
30301WAT     H291146   6.268   1.464   0.900
30302WAT      O91147   5.646   1.715   8.054
30302WAT     H191148   5.712   1.667   8.113
30302WAT     H291149   5.648   1.675   7.963
30303WAT      O91150   7.339   7.371   9.179
30303WAT     H191151   7.419   7.335   9.131
30303WAT     H291152   7.256   7.324   9.147
30304WAT      O91153   4.829   9.388   0.392
30304WAT     H191154   4.783   9.441   0.321
30304WAT     H291155   4.813   9.291   0.376
30305WAT      O91156   3.729   7.322   9.199
30305WAT     H191157   3.686   7.408   9.172
30305WAT     H291158   3.692   7.248   9.142
30306WAT      O91159   7.149   1.022   3.870
30306WAT     H191160   7.249   1.033   3.870
30306WAT     H291161   7.107   1.103   3.908
30307WAT      O91162   7.457   6.582   2.354
30307WAT     H191163   7.478   6.529   2.435
30307WAT     H291164   7.539   6.593   2.298
30308WAT      O91165   7.798   1.625   5.332
30308WAT     H191166   7.832   1.566   5.405
30308WAT     H291167   7.873   1.681   5.296
30309WAT      O91168   3.916   8.512   0.331
30309WAT     H191169   4.008   8.473   0.341
30309WAT     H291170   3.892   8.563   0.413
30310WAT      O91171   3.589   0.031   8.710
30310WAT     H191172   3.549  -0.040   8.767
30310WAT     H291173   3.677   0.060   8.749
30311WAT      O91174   2.727   3.580   1.242
30311WAT     H191175   2.775   3.508   1.292
30311WAT     H291176   2.790   3.656   1.225
30312WAT      O91177   5.759   4.727   1.985
30312WAT     H191178   5.723   4.788   2.055
30312WAT     H291179   5.785   4.640   2.026
30313WAT      O91180   2.628   0.049   4.583
30313WAT     H191181   2.658   0.104   4.505
30313WAT     H291182   2.550  -0.007   4.555
30314WAT      O91183   7.151   3.495   8.027
30314WAT     H191184   7.146   3.507   8.126
30314WAT     H291185   7.066   3.453   7.994
30315WAT      O91186   4.430   5.693   2.683
30315WAT     H191187   4.509   5.745   2.650
30315WAT     H291188   4.455   5.597   2.693
30316WAT      O91189   9.705   0.843   4.654
30316WAT     H191190   9.729   0.909   4.724
30316WAT     H291191   9.607   0.846   4.637
30317WAT      O91192   3.403   1.709   6.548
30317WAT     H191193   3.338   1.782   6.523
30317WAT     H291194   3.417   1.710   6.647
30318WAT      O91195   4.992   9.188   9.659
30318WAT     H191196   5.080   9.233   9.640
30318WAT     H291197   4.918   9.252   9.641
30319WAT      O91198   2.127   7.855   7.629
30319WAT     H191199   2.117   7.765   7.672
30319WAT     H291200   2.107   7.847   7.531
30320WAT      O91201   0.707   6.512   4.056
30320WAT     H191202   0.761   6.428   4.047
30320WAT     H291203   0.729   6.574   3.981
30321WAT      O91204   8.898   8.727   2.368
30321WAT     H191205   8.888   8.821   2.334
30321WAT     H291206   8.865   8.663   2.299
30322WAT      O91207   3.214   9.755   8.161
30322WAT     H191208   3.245   9.725   8.071
30322WAT     H291209   3.198   9.854   8.159
30323WAT      O91210   7.762   8.965   5.774
30323WAT     H191211   7.777   9.064   5.769
30323WAT     H291212   7.721   8.942   5.863
30324WAT      O91213   4.332   2.626   8.645
30324WAT     H191214   4.249   2.654   8.693
30324WAT     H291215   4.398   2.701   8.646
30325WAT      O91216   5.103   7.683   1.036
30325WAT     H191217   5.197   7.713   1.050
30325WAT     H291218   5.064   7.731   0.958
30326WAT      O91219   0.516   4.588   3.950
30326WAT     H191220   0.555   4.529   4.020
30326WAT     H291221   0.532   4.684   3.974
30327WAT      O91222   5.895   6.400   6.229
30327WAT     H191223   5.911   6.490   6.269
30327WAT     H291224   5.829   6.408   6.154
30328WAT      O91225   2.581   2.205   8.516
30328WAT     H191226   2.489   2.167   8.521
30328WAT     H291227   2.576   2.305   8.525
30329WAT      O91228   2.537   1.627   4.744
30329WAT     H191229   2.583   1.711   4.773
30329WAT     H291230   2.500   1.639   4.652
30330WAT      O91231   0.718   1.527   8.555
30330WAT     H191232   0.780   1.449   8.557
30330WAT     H291233   0.770   1.609   8.531
30331WAT      O91234   1.535   0.996   4.768
30331WAT     H191235   1.570   0.933   4.837
30331WAT     H291236   1.560   1.090   4.794
30332WAT      O91237   7.551   7.671   4.904
30332WAT     H191238   7.488   7.733   4.857
30332WAT     H291239   7.548   7.690   5.002
30333WAT      O91240   2.798   9.225   0.626
30333WAT     H191241   2.793   9.220   0.726
30333WAT     H291242   2.894   9.218   0.598
30334WAT      O91243   8.166   1.184   3.280
30334WAT     H191244   8.164   1.159   3.184
30334WAT     H291245   8.184   1.103   3.336
30335WAT      O91246   4.311   0.119   7.580
30335WAT     H191247   4.323   0.033   7.530
30335WAT     H291248   4.228   0.114   7.635
30336WAT      O91249   6.129   1.846   7.524
30336WAT     H191250   6.171   1.904   7.454
30336WAT     H291251   6.036   1.824   7.497
30337WAT      O91252   4.532   0.340   2.089
30337WAT     H191253   4.584   0.265   2.131
30337WAT     H291254   4.560   0.427   2.129
30338WAT      O91255   6.349   9.688   2.686
30338WAT     H191256   6.357   9.666   2.783
30338WAT     H291257   6.427   9.744   2.658
30339WAT      O91258   0.027   6.349   3.092
30339WAT     H191259  -0.057   6.304   3.060
30339WAT     H291260   0.059   6.304   3.175
30340WAT      O91261   5.788   3.616   4.202
30340WAT     H191262   5.869   3.656   4.244
30340WAT     H291263   5.767   3.528   4.245
30341WAT      O91264   1.410   4.505   0.268
30341WAT     H191265   1.477   4.488   0.340
30341WAT     H291266   1.454   4.553   0.192
30342WAT      O91267   7.077   5.803   3.021
30342WAT     H191268   7.078   5.849   2.932
30342WAT     H291269   7.122   5.714   3.013
30343WAT      O91270   1.643   5.313   4.499
30343WAT     H191271   1.547   5.330   4.477
30343WAT     H291272   1.651   5.287   4.595
30344WAT      O91273   7.986   0.578   7.615
30344WAT     H191274   7.891   0.552   7.632
30344WAT     H291275   8.014   0.543   7.525
30345WAT      O91276   3.711   6.978   3.772
30345WAT     H191277   3.775   6.902   3.760
30345WAT     H291278   3.738   7.054   3.713
30346WAT      O91279   6.969   8.511   9.495
30346WAT     H191280   6.959   8.574   9.419
30346WAT     H291281   7.028   8.435   9.468
30347WAT      O91282   1.475   8.802   5.169
30347WAT     H191283   1.526   8.860   5.105
30347WAT     H291284   1.420   8.736   5.117
30348WAT      O91285   2.919   5.183   1.153
30348WAT     H191286   2.946   5.087   1.160
30348WAT     H291287   2.821   5.191   1.172
30349WAT      O91288   1.247   8.438   0.184
30349WAT     H191289   1.305   8.394   0.116
30349WAT     H291290   1.302   8.501   0.240
30350WAT      O91291   5.268   7.459   2.034
30350WAT     H191292   5.178   7.502   2.036
30350WAT     H291293   5.332   7.513   2.089
30351WAT      O91294   9.628   6.258   3.027
30351WAT     H191295   9.571   6.340   3.036
30351WAT     H291296   9.658   6.248   2.932
30352WAT      O91297   1.574   9.085   1.888
30352WAT     H191298   1.539   9.099   1.795
30352WAT     H291299   1.648   9.018   1.886
30353WAT      O91300   0.030   6.678   0.388
30353WAT     H191301   0.031   6.615   0.466
30353WAT     H291302   0.037   6.772   0.421
30354WAT      O91303   4.603   4.414   5.364
30354WAT     H191304   4.574   4.453   5.277
30354WAT     H291305   4.523   4.382   5.415
30355WAT      O91306   7.002   0.309   8.867
30355WAT     H191307   7.041   0.225   8.904
30355WAT     H291308   7.076   0.374   8.847
30356WAT      O91309   3.889   3.251   5.257
30356WAT     H191310   3.815   3.304   5.216
30356WAT     H291311   3.970   3.255   5.199
30357WAT      O91312   1.882   3.495   1.849
30357WAT     H191313   1.870   3.399   1.826
30357WAT     H291314   1.933   3.541   1.776
30358WAT      O91315   3.235   6.653   6.079
30358WAT     H191316   3.175   6.639   6.157
30358WAT     H291317   3.276   6.744   6.085
30359WAT      O91318   3.023   7.379   3.317
30359WAT     H191319   3.115   7.416   3.303
30359WAT     H291320   3.019   7.285   3.284
30360WAT      O91321   3.025   2.908   7.303
30360WAT     H191322   3.044   2.971   7.227
30360WAT     H291323   3.112   2.878   7.343
30361WAT      O91324   4.190   8.884   8.684
30361WAT     H191325   4.212   8.962   8.742
30361WAT     H291326   4.127   8.912   8.611
30362WAT      O91327   1.922   7.856   3.184
30362WAT     H191328   1.887   7.939   3.228
30362WAT     H291329   1.845   7.797   3.160
30363WAT      O91330   1.811   7.013   7.822
30363WAT     H191331   1.760   7.048   7.744
30363WAT     H291332   1.747   6.981   7.892
30364WAT      O91333   7.874   1.962   4.265
30364WAT     H191334   7.779   1.932   4.275
30364WAT     H291335   7.932   1.909   4.328
30365WAT      O91336   1.852   8.591   2.857
30365WAT     H191337   1.836   8.685   2.888
30365WAT     H291338   1.770   8.556   2.812
30366WAT      O91339   7.722   3.367   2.713
30366WAT     H191340   7.683   3.294   2.657
30366WAT     H291341   7.801   3.332   2.763
30367WAT      O91342   4.465   2.253   9.579
30367WAT     H191343   4.403   2.207   9.641
30367WAT     H291344   4.560   2.232   9.605
30368WAT      O91345   4.756   4.957   2.299
30368WAT     H191346   4.781   4.907   2.216
30368WAT     H291347   4.819   5.034   2.311
30369WAT      O91348   0.653   2.163   4.281
30369WAT     H191349   0.628   2.096   4.211
30369WAT     H291350   0.570   2.201   4.322
30370WAT      O91351   4.509   1.559   6.119
30370WAT     H191352   4.516   1.641   6.062
30370WAT     H291353   4.599   1.517   6.128
30371WAT      O91354   5.544   5.067   4.022
30371WAT     H191355   5.565   5.119   4.104
30371WAT     H291356   5.591   5.107   3.943
30372WAT      O91357   5.271   1.207   5.149
30372WAT     H191358   5.304   1.223   5.242
30372WAT     H291359   5.206   1.131   5.149
30373WAT      O91360   2.269   8.799   5.378
30373WAT     H191361   2.169   8.791   5.374
30373WAT     H291362   2.310   8.728   5.322
30374WAT      O91363   3.110   6.352   1.216
30374WAT     H191364   3.018   6.371   1.181
30374WAT     H291365   3.173   6.344   1.139
30375WAT      O91366   4.417   3.860   0.860
30375WAT     H191367   4.381   3.768   0.846
30375WAT     H291368   4.476   3.885   0.783
30376WAT      O91369   8.907   2.673   0.773
30376WAT     H191370   8.998   2.703   0.801
30376WAT     H291371   8.893   2.694   0.676
30377WAT      O91372   0.631   8.113   6.095
30377WAT     H191373   0.598   8.045   6.030
30377WAT     H291374   0.578   8.108   6.179
30378WAT      O91375   9.245   9.097   3.611
30378WAT     H191376   9.311   9.032   3.573
30378WAT     H291377   9.160   9.048   3.633
30379WAT      O91378   3.539   4.098   7.021
30379WAT     H191379   3.592   4.016   7.042
30379WAT     H291380   3.592   4.179   7.043
30380WAT      O91381   8.068   6.508   8.429
30380WAT     H191382   8.102   6.547   8.514
30380WAT     H291383   7.987   6.453   8.448
30381WAT      O91384   4.360   0.222   8.418
30381WAT     H191385   4.315   0.164   8.486
30381WAT     H291386   4.458   0.225   8.436
30382WAT      O91387   3.199   3.792   7.309
30382WAT     H191388   3.149   3.818   7.391
30382WAT     H291389   3.296   3.778   7.332
30383WAT      O91390   2.143   7.785   9.553
30383WAT     H191391   2.119   7.840   9.633
30383WAT     H291392   2.162   7.691   9.582
30384WAT      O91393   6.330   7.519   2.923
30384WAT     H191394   6.409   7.499   2.981
30384WAT     H291395   6.349   7.601   2.869
30385WAT      O91396   9.176   0.468   6.920
30385WAT     H191397   9.252   0.404   6.911
30385WAT     H291398   9.199   0.537   6.989
30386WAT      O91399   7.685   5.355   1.249
30386WAT     H191400   7.737   5.270   1.256
30386WAT     H291401   7.598   5.345   1.297
30387WAT      O91402   7.819   0.995   9.632
30387WAT     H191403   7.856   1.088   9.633
30387WAT     H291404   7.720   0.998   9.649
30388WAT      O91405   3.601   7.542   0.792
30388WAT     H191406   3.557   7.452   0.798
30388WAT     H291407   3.643   7.564   0.880
30389WAT      O91408   0.550   1.433   1.120
30389WAT     H191409   0.602   1.364   1.070
30389WAT     H291410   0.612   1.487   1.177
30390WAT      O91411   7.923   1.398   3.981
30390WAT     H191412   7.900   1.389   3.884
30390WAT     H291413   8.022   1.404   3.992
30391WAT      O91414   6.543   8.124   7.893
30391WAT     H191415   6.610   8.124   7.819
30391WAT     H291416   6.543   8.213   7.938
30392WAT      O91417   3.469   6.896   0.726
30392WAT     H191418   3.432   6.917   0.636
30392WAT     H291419   3.560   6.937   0.735
30393WAT      O91420   9.696   1.954   7.707
30393WAT     H191421   9.698   1.913   7.798
30393WAT     H291422   9.778   1.927   7.657
30394WAT      O91423   6.266   7.715   7.298
30394WAT     H191424   6.349   7.668   7.329
30394WAT     H291425   6.187   7.678   7.346
30395WAT      O91426   5.110   0.054   8.310
30395WAT     H191427   5.017   0.025   8.290
30395WAT     H291428   5.174   0.007   8.248
30396WAT      O91429   6.098   8.633   5.408
30396WAT     H191430   6.159   8.654   5.485
30396WAT     H291431   6.014   8.591   5.442
30397WAT      O91432   1.731   0.528   3.834
30397WAT     H191433   1.690   0.444   3.800
30397WAT     H291434   1.827   0.532   3.808
30398WAT      O91435   1.713   4.187   9.087
30398WAT     H191436   1.802   4.180   9.042
30398WAT     H291437   1.687   4.099   9.125
30399WAT      O91438   3.816   4.998   9.440
30399WAT     H191439   3.828   5.013   9.538
30399WAT     H291440   3.898   5.026   9.392
30400WAT      O91441   2.566   4.074   3.264
30400WAT     H191442   2.548   4.019   3.182
30400WAT     H291443   2.533   4.167   3.250
30401WAT      O91444   6.384   3.885   7.372
30401WAT     H191445   6.304   3.828   7.389
30401WAT     H291446   6.367   3.977   7.408
30402WAT      O91447   6.213   6.324   6.517
30402WAT     H191448   6.306   6.358   6.504
30402WAT     H291449   6.173   6.299   6.429
30403WAT      O91450   3.714   7.466   4.308
30403WAT     H191451   3.807   7.443   4.335
30403WAT     H291452   3.676   7.534   4.371
30404WAT      O91453   1.141   0.185   5.449
30404WAT     H191454   1.201   0.115   5.487
30404WAT     H291455   1.085   0.145   5.376
30405WAT      O91456   7.289   1.769   8.773
30405WAT     H191457   7.221   1.701   8.801
30405WAT     H291458   7.318   1.822   8.852
30406WAT      O91459   9.623   3.953   5.443
30406WAT     H191460   9.553   3.882   5.452
30406WAT     H291461   9.713   3.912   5.451
30407WAT      O91462   3.321   0.783   6.309
30407WAT     H191463   3.299   0.838   6.229
30407WAT     H291464   3.261   0.703   6.312
30408WAT      O91465   9.267   1.596   3.908
30408WAT     H191466   9.288   1.518   3.850
30408WAT     H291467   9.353   1.639   3.938
30409WAT      O91468   8.591   8.691   9.137
30409WAT     H191469   8.584   8.699   9.038
30409WAT     H291470   8.682   8.656   9.162
30410WAT      O91471   1.947   0.784   4.009
30410WAT     H191472   1.870   0.819   3.957
30410WAT     H291473   1.915   0.715   4.075
30411WAT      O91474   8.746   4.833   3.538
30411WAT     H191475   8.709   4.910   3.591
30411WAT     H291476   8.844   4.824   3.557
30412WAT      O91477   1.669   4.762   5.684
30412WAT     H191478   1.718   4.836   5.638
30412WAT     H291479   1.667   4.781   5.783
30413WAT      O91480   4.046   7.658   3.751
30413WAT     H191481   4.146   7.664   3.749
30413WAT     H291482   4.012   7.648   3.657
30414WAT      O91483   0.868   4.128   5.696
30414WAT     H191484   0.849   4.051   5.756
30414WAT     H291485   0.929   4.193   5.744
30415WAT      O91486   0.162   6.183   0.835
30415WAT     H191487   0.161   6.190   0.935
30415WAT     H291488   0.074   6.150   0.803
30416WAT      O91489   2.480   7.656   9.188
30416WAT     H191490   2.465   7.557   9.191
30416WAT     H291491   2.430   7.699   9.263
30417WAT      O91492   6.927   7.785   0.557
30417WAT     H191493   6.897   7.756   0.648
30417WAT     H291494   6.918   7.884   0.549
30418WAT      O91495   7.436   1.230   5.814
30418WAT     H191496   7.355   1.229   5.873
30418WAT     H291497   7.431   1.309   5.753
30419WAT      O91498   2.889   3.615   4.595
30419WAT     H191499   2.879   3.563   4.679
30419WAT     H291500   2.964   3.577   4.540
30420WAT      O91501   4.746   8.365   7.358
30420WAT     H191502   4.724   8.458   7.387
30420WAT     H291503   4.844   8.359   7.340
30421WAT      O91504   0.387   2.719   5.850
30421WAT     H191505   0.458   2.788   5.836
30421WAT     H291506   0.340   2.737   5.936
30422WAT      O91507   5.057   7.439   9.261
30422WAT     H191508   5.114   7.369   9.218
30422WAT     H291509   5.092   7.530   9.240
30423WAT      O91510   9.850   8.434   0.868
30423WAT     H191511   9.949   8.435   0.882
30423WAT     H291512   9.810   8.516   0.907
30424WAT      O91513   8.928   4.188   5.495
30424WAT     H191514   9.007   4.140   5.456
30424WAT     H291515   8.848   4.128   5.493
30425WAT      O91516   8.950   3.813   6.694
30425WAT     H191517   8.972   3.911   6.696
30425WAT     H291518   8.958   3.778   6.601
30426WAT      O91519   3.474   8.959   2.496
30426WAT     H191520   3.465   8.994   2.402
30426WAT     H291521   3.434   9.024   2.560
30427WAT      O91522   2.045   3.806   4.348
30427WAT     H191523   2.074   3.885   4.403
30427WAT     H291524   2.075   3.722   4.392
30428WAT      O91525   1.622   1.340   6.485
30428WAT     H191526   1.635   1.418   6.547
30428WAT     H291527   1.696   1.338   6.418
30429WAT      O91528   8.978   2.993   6.001
30429WAT     H191529   8.921   2.970   6.080
30429WAT     H291530   9.072   3.005   6.031
30430WAT      O91531   6.860   4.795   3.812
30430WAT     H191532   6.784   4.860   3.803
30430WAT     H291533   6.890   4.767   3.721
30431WAT      O91534   2.527   6.145   3.511
30431WAT     H191535   2.438   6.115   3.545
30431WAT     H291536   2.514   6.208   3.434
30432WAT      O91537   2.215   3.324   4.231
30432WAT     H191538   2.146   3.254   4.218
30432WAT     H291539   2.299   3.297   4.184
30433WAT      O91540   2.108   4.856   7.395
30433WAT     H191541   2.197   4.898   7.411
30433WAT     H291542   2.044   4.925   7.360
30434WAT      O91543   2.471   5.904   8.861
30434WAT     H191544   2.456   5.807   8.878
30434WAT     H291545   2.410   5.958   8.919
30435WAT      O91546   7.946   1.128   5.160
30435WAT     H191547   7.935   1.225   5.138
30435WAT     H291548   7.859   1.091   5.192
30436WAT      O91549   6.172   3.047   5.739
30436WAT     H191550   6.271   3.047   5.729
30436WAT     H291551   6.130   3.095   5.662
30437WAT      O91552   6.435   0.271   9.283
30437WAT     H191553   6.431   0.200   9.212
30437WAT     H291554   6.449   0.228   9.372
30438WAT      O91555   3.118   2.438   4.803
30438WAT     H191556   3.039   2.473   4.854
30438WAT     H291557   3.122   2.482   4.713
30439WAT      O91558   9.225   1.716   5.643
30439WAT     H191559   9.317   1.742   5.612
30439WAT     H291560   9.156   1.768   5.593
30440WAT      O91561   2.024   1.191   5.425
30440WAT     H191562   2.037   1.197   5.326
30440WAT     H291563   2.113   1.188   5.470
30441WAT      O91564   1.713   1.074   0.039
30441WAT     H191565   1.648   1.020   0.092
30441WAT     H291566   1.729   1.031  -0.049
30442WAT      O91567   1.123   7.459   8.104
30442WAT     H191568   1.171   7.467   8.017
30442WAT     H291569   1.028   7.431   8.087
30443WAT      O91570   8.580   5.714   1.826
30443WAT     H191571   8.596   5.795   1.770
30443WAT     H291572   8.605   5.632   1.774
30444WAT      O91573   3.579   0.421   5.921
30444WAT     H191574   3.535   0.373   5.844
30444WAT     H291575   3.618   0.354   5.984
30445WAT      O91576   7.400   5.548   4.340
30445WAT     H191577   7.372   5.453   4.324
30445WAT     H291578   7.476   5.571   4.279
30446WAT      O91579   9.257   1.884   0.647
30446WAT     H191580   9.346   1.928   0.634
30446WAT     H291581   9.188   1.934   0.594
30447WAT      O91582   2.366   4.019   6.953
30447WAT     H191583   2.348   3.929   6.914
30447WAT     H291584   2.325   4.089   6.895
30448WAT      O91585   5.832   4.339   8.419
30448WAT     H191586   5.797   4.415   8.473
30448WAT     H291587   5.916   4.305   8.462
30449WAT      O91588   3.197   2.157   3.887
30449WAT     H191589   3.130   2.096   3.931
30449WAT     H291590   3.262   2.103   3.834
30450WAT      O91591   5.715   1.407   2.876
30450WAT     H191592   5.659   1.490   2.873
30450WAT     H291593   5.810   1.431   2.893
30451WAT      O91594   5.423   4.921   2.330
30451WAT     H191595   5.484   4.961   2.399
30451WAT     H291596   5.342   4.978   2.321
30452WAT      O91597   7.546   6.234   4.401
30452WAT     H191598   7.538   6.257   4.498
30452WAT     H291599   7.489   6.295   4.347
30453WAT      O91600   7.950   6.078   8.298
30453WAT     H191601   7.885   6.037   8.233
30453WAT     H291602   8.002   6.005   8.342
30454WAT      O91603   6.394   4.501   2.683
30454WAT     H191604   6.473   4.558   2.661
30454WAT     H291605   6.374   4.508   2.781
30455WAT      O91606   8.575   3.232   1.135
30455WAT     H191607   8.551   3.192   1.223
30455WAT     H291608   8.668   3.204   1.110
30456WAT      O91609   6.010   0.320   1.867
30456WAT     H191610   6.081   0.352   1.804
30456WAT     H291611   5.920   0.334   1.824
30457WAT      O91612   4.514   9.022   8.637
30457WAT     H191613   4.528   8.928   8.667
30457WAT     H291614   4.422   9.052   8.662
30458WAT      O91615   9.331   7.254   6.055
30458WAT     H191616   9.260   7.226   5.990
30458WAT     H291617   9.323   7.352   6.073
30459WAT      O91618   8.107   4.370   3.485
30459WAT     H191619   8.154   4.319   3.557
30459WAT     H291620   8.165   4.376   3.405
30460WAT      O91621   5.897   0.125   6.518
30460WAT     H191622   5.839   0.091   6.445
30460WAT     H291623   5.987   0.082   6.512
30461WAT      O91624   2.824   8.793   4.030
30461WAT     H191625   2.861   8.886   4.018
30461WAT     H291626   2.725   8.797   4.037
30462WAT      O91627   2.274   5.578   1.228
30462WAT     H191628   2.269   5.670   1.189
30462WAT     H291629   2.238   5.512   1.161
30463WAT      O91630   8.560   8.662   2.108
30463WAT     H191631   8.585   8.632   2.200
30463WAT     H291632   8.552   8.582   2.048
30464WAT      O91633   9.743   5.374   0.702
30464WAT     H191634   9.819   5.392   0.639
30464WAT     H291635   9.730   5.275   0.710
30465WAT      O91636   6.621   2.723   6.858
30465WAT     H191637   6.665   2.757   6.941
30465WAT     H291638   6.674   2.752   6.778
30466WAT      O91639   0.918   7.039   5.438
30466WAT     H191640   0.972   6.955   5.441
30466WAT     H291641   0.878   7.056   5.528
30467WAT      O91642   6.371   4.908   1.148
30467WAT     H191643   6.437   4.869   1.213
30467WAT     H291644   6.285   4.925   1.195
30468WAT      O91645   3.953   2.599   7.587
30468WAT     H191646   4.013   2.656   7.642
30468WAT     H291647   3.992   2.589   7.495
30469WAT      O91648   1.263   4.401   9.555
30469WAT     H191649   1.293   4.492   9.580
30469WAT     H291650   1.202   4.365   9.625
30470WAT      O91651   9.386   9.234   6.710
30470WAT     H191652   9.353   9.140   6.718
30470WAT     H291653   9.482   9.238   6.739
30471WAT      O91654   1.303   0.832   8.915
30471WAT     H191655   1.389   0.800   8.876
30471WAT     H291656   1.318   0.860   9.010
30472WAT      O91657   4.327   5.192   3.069
30472WAT     H191658   4.296   5.155   2.982
30472WAT     H291659   4.263   5.168   3.142
30473WAT      O91660   4.207   4.048   6.361
30473WAT     H191661   4.290   4.094   6.390
30473WAT     H291662   4.180   3.980   6.430
30474WAT      O91663   2.435   3.688   1.877
30474WAT     H191664   2.337   3.709   1.874
30474WAT     H291665   2.456   3.640   1.962
30475WAT      O91666   7.309   2.165   8.943
30475WAT     H191667   7.251   2.086   8.964
30475WAT     H291668   7.393   2.133   8.898
30476WAT      O91669   1.775   4.701   7.177
30476WAT     H191670   1.761   4.621   7.119
30476WAT     H291671   1.866   4.698   7.217
30477WAT      O91672   4.864   1.223   0.206
30477WAT     H191673   4.821   1.306   0.170
30477WAT     H291674   4.883   1.160   0.130
30478WAT      O91675   4.569   0.062   1.731
30478WAT     H191676   4.585   0.159   1.715
30478WAT     H291677   4.654   0.020   1.763
30479WAT      O91678   6.056   3.526   2.704
30479WAT     H191679   6.043   3.550   2.800
30479WAT     H291680   6.060   3.427   2.693
30480WAT      O91681   1.086   6.518   1.601
30480WAT     H191682   1.153   6.558   1.539
30480WAT     H291683   1.063   6.584   1.673
30481WAT      O91684   2.154   9.010   4.856
30481WAT     H191685   2.186   9.089   4.908
30481WAT     H291686   2.218   8.992   4.781
30482WAT      O91687   7.997   6.811   7.691
30482WAT     H191688   8.064   6.761   7.747
30482WAT     H291689   8.046   6.872   7.628
30483WAT      O91690   2.866   1.445   0.128
30483WAT     H191691   2.856   1.476   0.034
30483WAT     H291692   2.963   1.440   0.152
30484WAT      O91693   1.314   0.263   5.726
30484WAT     H191694   1.296   0.213   5.811
30484WAT     H291695   1.315   0.200   5.649
30485WAT      O91696   3.492   4.720   8.264
30485WAT     H191697   3.575   4.729   8.209
30485WAT     H291698   3.504   4.769   8.351
30486WAT      O91699   8.459   0.077   9.816
30486WAT     H191700   8.538   0.098   9.872
30486WAT     H291701   8.388   0.146   9.831
30487WAT      O91702   7.843   1.679   3.604
30487WAT     H191703   7.922   1.718   3.557
30487WAT     H291704   7.759   1.725   3.573
30488WAT      O91705   7.468   2.805   4.230
30488WAT     H191706   7.505   2.888   4.187
30488WAT     H291707   7.368   2.812   4.234
30489WAT      O91708   8.192   1.617   8.627
30489WAT     H191709   8.104   1.665   8.631
30489WAT     H291710   8.220   1.592   8.720
30490WAT      O91711   8.005   5.408   8.508
30490WAT     H191712   7.957   5.496   8.499
30490WAT     H291713   8.103   5.425   8.515
30491WAT      O91714   6.601   4.238   8.012
30491WAT     H191715   6.654   4.302   8.067
30491WAT     H291716   6.617   4.145   8.044
30492WAT      O91717   5.311   5.814   5.306
30492WAT     H191718   5.348   5.886   5.248
30492WAT     H291719   5.240   5.764   5.256
30493WAT      O91720   9.374   8.558   5.015
30493WAT     H191721   9.461   8.538   4.970
30493WAT     H291722   9.369   8.656   5.037
30494WAT      O91723   2.926   0.599   0.063
30494WAT     H191724   2.961   0.684   0.102
30494WAT     H291725   2.963   0.521   0.112
30495WAT      O91726   1.962   8.583   9.382
30495WAT     H191727   2.052   8.558   9.348
30495WAT     H291728   1.970   8.660   9.446
30496WAT      O91729   2.824   0.115   2.984
30496WAT     H191730   2.827   0.203   3.031
30496WAT     H291731   2.795   0.044   3.048
30497WAT      O91732   3.155   2.333   0.985
30497WAT     H191733   3.102   2.339   1.070
30497WAT     H291734   3.170   2.425   0.948
30498WAT      O91735   9.290   1.836   3.037
30498WAT     H191736   9.218   1.896   3.072
30498WAT     H291737   9.353   1.889   2.980
30499WAT      O91738   8.145   0.663   4.850
30499WAT     H191739   8.057   0.709   4.839
30499WAT     H291740   8.145   0.611   4.936
30500WAT      O91741   7.623   8.954   2.726
30500WAT     H191742   7.691   8.971   2.797
30500WAT     H291743   7.661   8.893   2.657
30501WAT      O91744   0.540   9.842   1.822
30501WAT     H191745   0.609   9.784   1.778
30501WAT     H291746   0.515   9.802   1.911
30502WAT      O91747   2.182   0.688   1.774
30502WAT     H191748   2.279   0.710   1.787
30502WAT     H291749   2.174   0.605   1.720
30503WAT      O91750   7.696   7.172   4.284
30503WAT     H191751   7.767   7.102   4.290
30503WAT     H291752   7.733   7.254   4.241
30504WAT      O91753   9.587   3.498   6.068
30504WAT     H191754   9.631   3.496   5.978
30504WAT     H291755   9.606   3.585   6.113
30505WAT      O91756   5.563   6.066   0.961
30505WAT     H191757   5.571   5.967   0.946
30505WAT     H291758   5.600   6.090   1.051
30506WAT      O91759   6.544   8.714   3.607
30506WAT     H191760   6.499   8.724   3.695
30506WAT     H291761   6.488   8.757   3.536
30507WAT      O91762   6.152   4.983   0.851
30507WAT     H191763   6.246   4.971   0.883
30507WAT     H291764   6.152   5.007   0.754
30508WAT      O91765   4.744   1.341   3.532
30508WAT     H191766   4.766   1.262   3.590
30508WAT     H291767   4.646   1.341   3.512
30509WAT      O91768   0.429   7.253   8.144
30509WAT     H191769   0.496   7.315   8.183
30509WAT     H291770   0.423   7.170   8.199
30510WAT      O91771   5.250   0.691   4.440
30510WAT     H191772   5.211   0.664   4.528
30510WAT     H291773   5.208   0.777   4.410
30511WAT      O91774   0.494   1.643   2.245
30511WAT     H191775   0.432   1.706   2.200
30511WAT     H291776   0.441   1.574   2.295
30512WAT      O91777   5.603   8.137   1.045
30512WAT     H191778   5.540   8.210   1.019
30512WAT     H291779   5.673   8.126   0.974
30513WAT      O91780   4.165   5.838   1.960
30513WAT     H191781   4.163   5.751   2.010
30513WAT     H291782   4.126   5.910   2.016
30514WAT      O91783   5.590   0.703   7.128
30514WAT     H191784   5.593   0.765   7.207
30514WAT     H291785   5.574   0.610   7.159
30515WAT      O91786   0.694   3.641   2.870
30515WAT     H191787   0.710   3.547   2.900
30515WAT     H291788   0.779   3.692   2.875
30516WAT      O91789   6.114   9.771   4.595
30516WAT     H191790   6.084   9.844   4.533
30516WAT     H291791   6.117   9.684   4.545
30517WAT      O91792   6.707   5.217   9.752
30517WAT     H191793   6.677   5.123   9.739
30517WAT     H291794   6.765   5.223   9.834
30518WAT      O91795   2.097   1.780   8.667
30518WAT     H191796   2.107   1.852   8.598
30518WAT     H291797   2.134   1.811   8.754
30519WAT      O91798   3.421   4.572   4.386
30519WAT     H191799   3.497   4.631   4.360
30519WAT     H291800   3.376   4.537   4.304
30520WAT      O91801   8.275   5.844   9.796
30520WAT     H191802   8.297   5.792   9.878
30520WAT     H291803   8.275   5.783   9.717
30521WAT      O91804   8.202   4.162   2.877
30521WAT     H191805   8.125   4.120   2.925
30521WAT     H291806   8.287   4.117   2.905
30522WAT      O91807   9.275   5.332   7.088
30522WAT     H191808   9.327   5.276   7.023
30522WAT     H291809   9.244   5.276   7.164
30523WAT      O91810   2.784   2.098   3.986
30523WAT     H191811   2.757   2.187   3.948
30523WAT     H291812   2.721   2.027   3.953
30524WAT      O91813   4.031   3.741   6.174
30524WAT     H191814   3.975   3.658   6.181
30524WAT     H291815   4.107   3.724   6.111
30525WAT      O91816   2.407   9.001   6.674
30525WAT     H191817   2.362   9.002   6.584
30525WAT     H291818   2.437   8.908   6.695
30526WAT      O91819   7.448   7.118   3.419
30526WAT     H191820   7.396   7.033   3.415
30526WAT     H291821   7.546   7.098   3.413
30527WAT      O91822   1.532   2.882   4.900
30527WAT     H191823   1.446   2.876   4.950
30527WAT     H291824   1.537   2.970   4.853
30528WAT      O91825   7.841   1.441   3.696
30528WAT     H191826   7.924   1.394   3.668
30528WAT     H291827   7.834   1.529   3.649
30529WAT      O91828   3.265   5.837   2.027
30529WAT     H191829   3.240   5.911   1.964
30529WAT     H291830   3.343   5.787   1.990
30530WAT      O91831   8.464   9.838   1.579
30530WAT     H191832   8.520   9.779   1.638
30530WAT     H291833   8.443   9.923   1.627
30531WAT      O91834   9.163   3.616   2.721
30531WAT     H191835   9.093   3.687   2.727
30531WAT     H291836   9.207   3.619   2.631
30532WAT      O91837   3.783   4.654   8.257
30532WAT     H191838   3.746   4.582   8.198
30532WAT     H291839   3.757   4.636   8.352
30533WAT      O91840   2.478   3.293   0.804
30533WAT     H191841   2.438   3.209   0.769
30533WAT     H291842   2.562   3.272   0.854
30534WAT      O91843   6.855   5.313   3.485
30534WAT     H191844   6.846   5.279   3.391
30534WAT     H291845   6.947   5.348   3.500
30535WAT      O91846   3.280   5.973   0.730
30535WAT     H191847   3.355   5.955   0.666
30535WAT     H291848   3.290   5.916   0.811
30536WAT      O91849   7.355   2.318   0.980
30536WAT     H191850   7.264   2.336   1.016
30536WAT     H291851   7.365   2.221   0.961
30537WAT      O91852   4.137   9.156   6.716
30537WAT     H191853   4.215   9.108   6.758
30537WAT     H291854   4.095   9.097   6.647
30538WAT      O91855   3.443   8.589   1.598
30538WAT     H191856   3.404   8.506   1.637
30538WAT     H291857   3.402   8.606   1.508
30539WAT      O91858   4.312   8.639   0.219
30539WAT     H191859   4.369   8.644   0.302
30539WAT     H291860   4.225   8.595   0.242
30540WAT      O91861   5.700   4.952   1.459
30540WAT     H191862   5.709   4.869   1.513
30540WAT     H291863   5.691   5.031   1.520
30541WAT      O91864   5.866   9.053   5.914
30541WAT     H191865   5.935   9.015   5.851
30541WAT     H291866   5.790   8.988   5.921
30542WAT      O91867   0.375   1.165   7.268
30542WAT     H191868   0.423   1.168   7.180
30542WAT     H291869   0.441   1.153   7.342
30543WAT      O91870   1.376   5.219   6.002
30543WAT     H191871   1.380   5.205   5.903
30543WAT     H291872   1.366   5.130   6.047
30544WAT      O91873   5.575   3.315   7.647
30544WAT     H191874   5.673   3.328   7.635
30544WAT     H291875   5.557   3.224   7.684
30545WAT      O91876   8.543   3.522   1.189
30545WAT     H191877   8.617   3.573   1.232
30545WAT     H291878   8.578   3.435   1.155
30546WAT      O91879   2.431   7.112   6.931
30546WAT     H191880   2.484   7.115   7.016
30546WAT     H291881   2.344   7.066   6.947
30547WAT      O91882   3.722   5.295   6.737
30547WAT     H191883   3.677   5.341   6.660
30547WAT     H291884   3.749   5.203   6.710
30548WAT      O91885   0.018   1.740   1.916
30548WAT     H191886   0.022   1.643   1.940
30548WAT     H291887   0.084   1.759   1.844
30549WAT      O91888   3.721   1.141   6.894
30549WAT     H191889   3.819   1.130   6.909
30549WAT     H291890   3.679   1.050   6.885
30550WAT      O91891   2.580   5.812   0.596
30550WAT     H191892   2.586   5.785   0.692
30550WAT     H291893   2.510   5.758   0.549
30551WAT      O91894   0.486   0.420   2.090
30551WAT     H191895   0.563   0.452   2.034
30551WAT     H291896   0.467   0.487   2.162
30552WAT      O91897   4.529   8.633   7.171
30552WAT     H191898   4.435   8.602   7.180
30552WAT     H291899   4.573   8.632   7.261
30553WAT      O91900   0.339   1.619   9.204
30553WAT     H191901   0.249   1.629   9.163
30553WAT     H291902   0.405   1.678   9.156
30554WAT      O91903   6.189   8.967   0.605
30554WAT     H191904   6.109   8.956   0.664
30554WAT     H291905   6.197   8.887   0.545
30555WAT      O91906   1.737   0.351   0.570
30555WAT     H191907   1.803   0.348   0.646
30555WAT     H291908   1.689   0.264   0.565
30556WAT      O91909   3.056   7.943   2.283
30556WAT     H191910   3.053   7.843   2.287
30556WAT     H291911   3.027   7.974   2.193
30557WAT      O91912   5.377   0.855   2.895
30557WAT     H191913   5.391   0.946   2.932
30557WAT     H291914   5.294   0.855   2.838
30558WAT      O91915   7.223   1.666   8.467
30558WAT     H191916   7.149   1.600   8.484
30558WAT     H291917   7.309   1.631   8.504
30559WAT      O91918   1.034   1.072   2.385
30559WAT     H191919   0.941   1.036   2.383
30559WAT     H291920   1.083   1.035   2.463
30560WAT      O91921   2.353   6.288   1.441
30560WAT     H191922   2.266   6.301   1.393
30560WAT     H291923   2.425   6.338   1.393
30561WAT      O91924   4.011   9.230   2.474
30561WAT     H191925   4.049   9.224   2.382
30561WAT     H291926   4.010   9.325   2.505
30562WAT      O91927   0.576   9.365   3.212
30562WAT     H191928   0.485   9.328   3.232
30562WAT     H291929   0.570   9.429   3.135
30563WAT      O91930   8.386   6.635   7.832
30563WAT     H191931   8.475   6.622   7.790
30563WAT     H291932   8.394   6.627   7.931
30564WAT      O91933   7.856   5.243   0.620
30564WAT     H191934   7.828   5.243   0.524
30564WAT     H291935   7.787   5.197   0.676
30565WAT      O91936   5.881   0.771   8.766
30565WAT     H191937   5.950   0.821   8.818
30565WAT     H291938   5.810   0.835   8.734
30566WAT      O91939   0.867   2.482   6.646
30566WAT     H191940   0.916   2.445   6.724
30566WAT     H291941   0.772   2.499   6.672
30567WAT      O91942   8.795   3.037   7.956
30567WAT     H191943   8.846   2.993   8.031
30567WAT     H291944   8.802   3.137   7.966
30568WAT      O91945   9.722   9.522   0.115
30568WAT     H191946   9.638   9.479   0.083
30568WAT     H291947   9.709   9.621   0.119
30569WAT      O91948   8.286   3.783   1.081
30569WAT     H191949   8.369   3.774   1.136
30569WAT     H291950   8.221   3.711   1.106
30570WAT      O91951   3.435   7.349   8.178
30570WAT     H191952   3.356   7.407   8.195
30570WAT     H291953   3.420   7.260   8.220
30571WAT      O91954   6.780   7.926   6.718
30571WAT     H191955   6.811   7.833   6.736
30571WAT     H291956   6.858   7.988   6.718
30572WAT      O91957   3.723   1.196   8.830
30572WAT     H191958   3.631   1.228   8.806
30572WAT     H291959   3.722   1.097   8.838
30573WAT      O91960   1.642   0.366   0.324
30573WAT     H191961   1.690   0.349   0.410
30573WAT     H291962   1.651   0.286   0.265
30574WAT      O91963   7.392   0.996   8.946
30574WAT     H191964   7.396   1.092   8.919
30574WAT     H291965   7.348   0.943   8.874
30575WAT      O91966   7.940   6.897   5.848
30575WAT     H191967   7.843   6.917   5.857
30575WAT     H291968   7.991   6.982   5.838
30576WAT      O91969   7.072   4.378   2.511
30576WAT     H191970   6.984   4.339   2.483
30576WAT     H291971   7.069   4.477   2.503
30577WAT      O91972   5.778   5.444   9.096
30577WAT     H191973   5.875   5.430   9.114
30577WAT     H291974   5.745   5.522   9.150
30578WAT      O91975   7.559   6.110   7.952
30578WAT     H191976   7.489   6.130   8.021
30578WAT     H291977   7.628   6.049   7.991
30579WAT      O91978   7.792   7.403   8.941
30579WAT     H191979   7.795   7.501   8.961
30579WAT     H291980   7.836   7.386   8.853
30580WAT      O91981   9.569   6.763   9.528
30580WAT     H191982   9.566   6.772   9.429
30580WAT     H291983   9.617   6.841   9.568
30581WAT      O91984   5.657   9.817   0.834
30581WAT     H191985   5.648   9.722   0.863
30581WAT     H291986   5.601   9.833   0.752
30582WAT      O91987   9.653   1.290   2.606
30582WAT     H191988   9.689   1.262   2.695
30582WAT     H291989   9.692   1.233   2.534
30583WAT      O91990   3.413   1.275   3.998
30583WAT     H191991   3.501   1.268   3.952
30583WAT     H291992   3.368   1.360   3.971
30584WAT      O91993   6.837   0.828   6.569
30584WAT     H191994   6.916   0.876   6.531
30584WAT     H291995   6.834   0.844   6.668
30585WAT      O91996   0.520   6.719   9.214
30585WAT     H191997   0.568   6.756   9.134
30585WAT     H291998   0.562   6.755   9.298
30586WAT      O91999   6.989   6.613   3.891
30586WAT     H192000   7.017   6.704   3.924
30586WAT     H292001   7.019   6.601   3.797
30587WAT      O92002   1.909   1.211   0.208
30587WAT     H192003   1.989   1.227   0.150
30587WAT     H292004   1.843   1.155   0.160
30588WAT      O92005   4.158   4.616   5.153
30588WAT     H192006   4.138   4.685   5.084
30588WAT     H292007   4.233   4.646   5.211
30589WAT      O92008   3.140   0.695   3.156
30589WAT     H192009   3.183   0.605   3.170
30589WAT     H292010   3.184   0.762   3.216
30590WAT      O92011   6.665   3.402   6.496
30590WAT     H192012   6.673   3.321   6.554
30590WAT     H292013   6.603   3.384   6.421
30591WAT      O92014   8.602   2.324   1.315
30591WAT     H192015   8.648   2.383   1.381
30591WAT     H292016   8.553   2.381   1.248
30592WAT      O92017   8.664   9.014   5.431
30592WAT     H192018   8.608   8.934   5.414
30592WAT     H292019   8.714   9.002   5.518
30593WAT      O92020   2.870   5.921   2.933
30593WAT     H192021   2.927   5.984   2.880
30593WAT     H292022   2.894   5.827   2.909
30594WAT      O92023   4.096   0.137   5.786
30594WAT     H192024   4.182   0.185   5.802
30594WAT     H292025   4.041   0.138   5.870
30595WAT      O92026   2.721   7.277   1.608
30595WAT     H192027   2.644   7.242   1.660
30595WAT     H292028   2.703   7.265   1.510
30596WAT      O92029   4.446   5.630   9.387
30596WAT     H192030   4.418   5.640   9.292
30596WAT     H292031   4.539   5.595   9.391
30597WAT      O92032   3.093   7.453   7.833
30597WAT     H192033   3.153   7.408   7.767
30597WAT     H292034   3.003   7.466   7.793
30598WAT      O92035   9.245   0.862   7.885
30598WAT     H192036   9.292   0.832   7.968
30598WAT     H292037   9.222   0.783   7.829
30599WAT      O92038   8.509   9.609   7.001
30599WAT     H192039   8.494   9.510   7.009
30599WAT     H292040   8.484   9.653   7.087
30600WAT      O92041   0.227   5.098   1.670
30600WAT     H192042   0.212   5.004   1.639
30600WAT     H292043   0.299   5.140   1.615
30601WAT      O92044   8.691   9.675   3.724
30601WAT     H192045   8.718   9.607   3.656
30601WAT     H292046   8.773   9.718   3.763
30602WAT      O92047   9.631   2.781   5.323
30602WAT     H192048   9.651   2.696   5.274
30602WAT     H292049   9.628   2.857   5.258
30603WAT      O92050   6.079   6.593   0.303
30603WAT     H192051   6.081   6.514   0.242
30603WAT     H292052   5.995   6.645   0.289
30604WAT      O92053   6.782   9.768   4.580
30604WAT     H192054   6.729   9.811   4.654
30604WAT     H292055   6.853   9.832   4.549
30605WAT      O92056   8.429   7.906   3.396
30605WAT     H192057   8.377   7.917   3.481
30605WAT     H292058   8.366   7.897   3.319
30606WAT      O92059   4.515   0.381   8.073
30606WAT     H192060   4.585   0.452   8.065
30606WAT     H292061   4.518   0.323   7.991
30607WAT      O92062   9.169   4.027   2.876
30607WAT     H192063   9.267   4.041   2.890
30607WAT     H292064   9.130   4.109   2.833
30608WAT      O92065   4.785   8.304   9.298
30608WAT     H192066   4.686   8.290   9.301
30608WAT     H292067   4.828   8.243   9.364
30609WAT      O92068   8.678   1.772   5.599
30609WAT     H192069   8.608   1.701   5.609
30609WAT     H292070   8.765   1.730   5.574
30610WAT      O92071   4.333   1.289   6.254
30610WAT     H192072   4.348   1.386   6.237
30610WAT     H292073   4.421   1.242   6.257
30611WAT      O92074   6.184   7.331   3.276
30611WAT     H192075   6.161   7.422   3.242
30611WAT     H292076   6.227   7.278   3.202
30612WAT      O92077   2.288   9.007   7.973
30612WAT     H192078   2.216   9.048   8.028
30612WAT     H292079   2.252   8.984   7.882
30613WAT      O92080   6.093   7.155   2.562
30613WAT     H192081   6.017   7.207   2.523
30613WAT     H292082   6.163   7.140   2.492
30614WAT      O92083   3.400   7.986   8.312
30614WAT     H192084   3.399   8.060   8.379
30614WAT     H292085   3.346   7.909   8.345
30615WAT      O92086   7.724   5.181   4.946
30615WAT     H192087   7.631   5.215   4.960
30615WAT     H292088   7.751   5.125   5.024
30616WAT      O92089   0.249   9.177   9.216
30616WAT     H192090   0.219   9.174   9.311
30616WAT     H292091   0.322   9.110   9.202
30617WAT      O92092   1.894   5.029   7.270
30617WAT     H192093   1.795   5.024   7.254
30617WAT     H292094   1.940   5.050   7.184
30618WAT      O92095   9.593   2.692   5.569
30618WAT     H192096   9.619   2.747   5.490
30618WAT     H292097   9.494   2.698   5.583
30619WAT      O92098   2.430   2.428   9.334
30619WAT     H192099   2.380   2.435   9.247
30619WAT     H292100   2.512   2.372   9.321
30620WAT      O92101   4.354   3.415   7.309
30620WAT     H192102   4.361   3.512   7.284
30620WAT     H292103   4.382   3.358   7.232
30621WAT      O92104   6.000   1.523   9.108
30621WAT     H192105   5.939   1.600   9.085
30621WAT     H292106   6.015   1.521   9.207
30622WAT      O92107   8.631   6.616   3.459
30622WAT     H192108   8.692   6.682   3.416
30622WAT     H292109   8.623   6.635   3.556
30623WAT      O92110   6.733   4.493   9.881
30623WAT     H192111   6.791   4.447   9.815
30623WAT     H292112   6.685   4.425   9.937
30624WAT      O92113   8.679   4.394   4.107
30624WAT     H192114   8.625   4.427   4.030
30624WAT     H292115   8.741   4.466   4.139
30625WAT      O92116   9.041   4.136   1.465
30625WAT     H192117   8.974   4.064   1.483
30625WAT     H292118   9.126   4.096   1.432
30626WAT      O92119   7.245   5.071   3.027
30626WAT     H192120   7.254   4.973   3.009
30626WAT     H292121   7.166   5.086   3.086
30627WAT      O92122   9.704   5.853   2.308
30627WAT     H192123   9.647   5.864   2.227
30627WAT     H292124   9.668   5.909   2.382
30628WAT      O92125   4.548   8.310   6.679
30628WAT     H192126   4.486   8.379   6.716
30628WAT     H292127   4.642   8.344   6.684
30629WAT      O92128   1.608   7.751   2.346
30629WAT     H192129   1.706   7.732   2.337
30629WAT     H292130   1.563   7.676   2.394
30630WAT      O92131   6.520   5.833   4.864
30630WAT     H192132   6.477   5.917   4.898
30630WAT     H292133   6.580   5.795   4.934
30631WAT      O92134   8.460   2.665   2.273
30631WAT     H192135   8.504   2.734   2.331
30631WAT     H292136   8.361   2.676   2.279
30632WAT      O92137   8.414   6.668   6.769
30632WAT     H192138   8.500   6.642   6.723
30632WAT     H292139   8.349   6.702   6.700
30633WAT      O92140   4.460   7.453   5.599
30633WAT     H192141   4.384   7.518   5.596
30633WAT     H292142   4.462   7.400   5.515
30634WAT      O92143   0.169   1.244   0.573
30634WAT     H192144   0.268   1.257   0.563
30634WAT     H292145   0.134   1.308   0.641
30635WAT      O92146   0.674   4.736   4.669
30635WAT     H192147   0.578   4.760   4.658
30635WAT     H292148   0.685   4.637   4.656
30636WAT      O92149   2.038   6.432   9.885
30636WAT     H192150   1.988   6.346   9.881
30636WAT     H292151   1.974   6.508   9.888
30637WAT      O92152   2.871   1.417   7.114
30637WAT     H192153   2.942   1.349   7.132
30637WAT     H292154   2.802   1.413   7.186
30638WAT      O92155   6.539   1.915   6.454
30638WAT     H192156   6.611   1.847   6.447
30638WAT     H292157   6.450   1.870   6.457
30639WAT      O92158   2.923   3.625   2.672
30639WAT     H192159   3.007   3.589   2.630
30639WAT     H292160   2.846   3.566   2.648
30640WAT      O92161   1.357   7.367   9.495
30640WAT     H192162   1.413   7.311   9.434
30640WAT     H292163   1.410   7.390   9.577
30641WAT      O92164   2.603   3.178   1.396
30641WAT     H192165   2.593   3.135   1.486
30641WAT     H292166   2.690   3.151   1.355
30642WAT      O92167   1.689   1.047   5.813
30642WAT     H192168   1.787   1.061   5.798
30642WAT     H292169   1.662   1.088   5.899
30643WAT      O92170   2.443   8.771   8.674
30643WAT     H192171   2.455   8.835   8.599
30643WAT     H292172   2.393   8.816   8.748
30644WAT      O92173   6.237   4.260   0.249
30644WAT     H192174   6.202   4.249   0.156
30644WAT     H292175   6.336   4.242   0.249
30645WAT      O92176   2.545   1.741   4.171
30645WAT     H192177   2.615   1.745   4.100
30645WAT     H292178   2.587   1.725   4.260
30646WAT      O92179   3.828   9.404   3.343
30646WAT     H192180   3.785   9.379   3.256
30646WAT     H292181   3.813   9.331   3.409
30647WAT      O92182   6.982   2.884   0.953
30647WAT     H192183   6.912   2.954   0.962
30647WAT     H292184   6.980   2.824   1.034
30648WAT      O92185   4.706   2.030   2.439
30648WAT     H192186   4.615   2.050   2.474
30648WAT     H292187   4.702   2.020   2.340
30649WAT      O92188   5.714   4.321   3.705
30649WAT     H192189   5.718   4.420   3.689
30649WAT     H292190   5.634   4.283   3.658
30650WAT      O92191   4.330   8.082   3.603
30650WAT     H192192   4.247   8.094   3.657
30650WAT     H292193   4.406   8.061   3.664
30651WAT      O92194   3.745   0.630   6.578
30651WAT     H192195   3.675   0.569   6.617
30651WAT     H292196   3.756   0.610   6.480
30652WAT      O92197   3.152   1.233   5.491
30652WAT     H192198   3.229   1.297   5.490
30652WAT     H292199   3.067   1.284   5.477
30653WAT      O92200   6.377   0.562   6.790
30653WAT     H192201   6.392   0.650   6.745
30653WAT     H292202   6.282   0.534   6.776
30654WAT      O92203   3.467   4.620   4.727
30654WAT     H192204   3.517   4.592   4.645
30654WAT     H292205   3.411   4.544   4.759
30655WAT      O92206   1.545   8.692   1.431
30655WAT     H192207   1.504   8.601   1.439
30655WAT     H292208   1.621   8.700   1.495
30656WAT      O92209   9.398   8.219   4.453
30656WAT     H192210   9.483   8.210   4.505
30656WAT     H292211   9.351   8.303   4.480
30657WAT      O92212   4.559   1.591   3.547
30657WAT     H192213   4.490   1.664   3.556
30657WAT     H292214   4.637   1.613   3.606
30658WAT      O92215   3.285   8.309   4.414
30658WAT     H192216   3.198   8.343   4.378
30658WAT     H292217   3.276   8.211   4.434
30659WAT      O92218   9.587   8.523   4.836
30659WAT     H192219   9.660   8.486   4.779
30659WAT     H292220   9.578   8.621   4.819
30660WAT      O92221   2.176   7.557   5.015
30660WAT     H192222   2.226   7.606   4.943
30660WAT     H292223   2.080   7.548   4.988
30661WAT      O92224   8.008   7.401   7.477
30661WAT     H192225   8.091   7.368   7.521
30661WAT     H292226   7.939   7.329   7.476
30662WAT      O92227   3.330   7.506   2.896
30662WAT     H192228   3.404   7.443   2.917
30662WAT     H292229   3.269   7.514   2.976
30663WAT      O92230   6.379   2.873   3.896
30663WAT     H192231   6.469   2.837   3.871
30663WAT     H292232   6.348   2.830   3.981
30664WAT      O92233   6.137   6.181   3.823
30664WAT     H192234   6.147   6.088   3.857
30664WAT     H292235   6.170   6.246   3.891
30665WAT      O92236   4.342   9.220   6.314
30665WAT     H192237   4.274   9.221   6.387
30665WAT     H292238   4.316   9.284   6.242
30666WAT      O92239   4.376   0.269   9.371
30666WAT     H192240   4.336   0.278   9.280
30666WAT     H292241   4.318   0.315   9.438
30667WAT      O92242   8.659   4.115   7.929
30667WAT     H192243   8.624   4.025   7.956
30667WAT     H292244   8.626   4.137   7.837
30668WAT      O92245   9.110   6.938   8.903
30668WAT     H192246   9.202   6.933   8.944
30668WAT     H292247   9.042   6.917   8.973
30669WAT      O92248   5.220   0.701   2.324
30669WAT     H192249   5.251   0.796   2.314
30669WAT     H292250   5.147   0.697   2.392
30670WAT      O92251   3.178   0.073   7.342
30670WAT     H192252   3.139   0.096   7.252
30670WAT     H292253   3.155   0.145   7.407
30671WAT      O92254   3.175   2.606   1.739
30671WAT     H192255   3.146   2.511   1.741
30671WAT     H292256   3.268   2.612   1.701
30672WAT      O92257   6.164   2.995   4.201
30672WAT     H192258   6.079   3.024   4.155
30672WAT     H292259   6.218   3.075   4.224
30673WAT      O92260   7.158   2.638   6.797
30673WAT     H192261   7.082   2.698   6.823
30673WAT     H292262   7.244   2.687   6.808
30674WAT      O92263   4.805   4.626   7.023
30674WAT     H192264   4.826   4.529   7.035
30674WAT     H292265   4.867   4.681   7.080
30675WAT      O92266   8.805   5.379   1.393
30675WAT     H192267   8.759   5.389   1.304
30675WAT     H292268   8.889   5.431   1.394
30676WAT      O92269   1.352   5.859   6.061
30676WAT     H192270   1.391   5.935   6.009
30676WAT     H292271   1.267   5.829   6.018
30677WAT      O92272   0.746   9.033   4.143
30677WAT     H192273   0.753   9.133   4.134
30677WAT     H292274   0.794   8.989   4.067
30678WAT      O92275   4.559   5.300   9.306
30678WAT     H192276   4.491   5.324   9.237
30678WAT     H292277   4.513   5.272   9.390
30679WAT      O92278   9.452   0.180   1.409
30679WAT     H192279   9.543   0.204   1.378
30679WAT     H292280   9.412   0.113   1.346
30680WAT      O92281   6.414   1.951   0.496
30680WAT     H192282   6.512   1.963   0.510
30680WAT     H292283   6.375   1.900   0.573
30681WAT      O92284   9.865   0.286   0.901
30681WAT     H192285   9.954   0.326   0.925
30681WAT     H292286   9.876   0.227   0.821
30682WAT      O92287   2.193   3.636   5.089
30682WAT     H192288   2.105   3.590   5.104
30682WAT     H292289   2.198   3.667   4.994
30683WAT      O92290   1.979   3.433   0.758
30683WAT     H192291   1.887   3.412   0.791
30683WAT     H292292   1.981   3.528   0.725
30684WAT      O92293   5.387   9.636   1.712
30684WAT     H192294   5.445   9.575   1.766
30684WAT     H292295   5.441   9.677   1.639
30685WAT      O92296   6.554   7.314   9.531
30685WAT     H192297   6.565   7.386   9.462
30685WAT     H292298   6.527   7.355   9.618
30686WAT      O92299   9.627   6.268   9.599
30686WAT     H192300   9.687   6.339   9.562
30686WAT     H292301   9.636   6.264   9.698
30687WAT      O92302   2.926   8.786   9.378
30687WAT     H192303   2.975   8.812   9.295
30687WAT     H292304   2.991   8.769   9.452
30688WAT      O92305   6.412   6.098   7.753
30688WAT     H192306   6.434   6.027   7.819
30688WAT     H292307   6.425   6.188   7.794
30689WAT      O92308   7.241   8.919   4.132
30689WAT     H192309   7.322   8.972   4.157
30689WAT     H292310   7.256   8.823   4.158
30690WAT      O92311   0.360   4.072   5.948
30690WAT     H192312   0.416   4.027   5.877
30690WAT     H292313   0.331   4.162   5.914
30691WAT      O92314   3.487   5.317   3.458
30691WAT     H192315   3.547   5.309   3.538
30691WAT     H292316   3.542   5.334   3.376
30692WAT      O92317   2.806   7.051   3.148
30692WAT     H192318   2.850   7.065   3.237
30692WAT     H292319   2.808   6.954   3.124
30693WAT      O92320   2.850   1.803   5.883
30693WAT     H192321   2.835   1.867   5.959
30693WAT     H292322   2.882   1.854   5.803
30694WAT      O92323   4.068   9.105   7.302
30694WAT     H192324   4.142   9.102   7.370
30694WAT     H292325   4.041   9.200   7.286
30695WAT      O92326   1.541   5.796   2.089
30695WAT     H192327   1.479   5.874   2.084
30695WAT     H292328   1.503   5.720   2.037
30696WAT      O92329   9.142   0.309   5.258
30696WAT     H192330   9.141   0.381   5.327
30696WAT     H292331   9.053   0.263   5.257
30697WAT      O92332   7.170   9.423   6.992
30697WAT     H192333   7.214   9.339   6.960
30697WAT     H292334   7.202   9.500   6.938
30698WAT      O92335   1.424   2.956   3.218
30698WAT     H192336   1.349   3.018   3.241
30698WAT     H292337   1.426   2.941   3.119
30699WAT      O92338   9.360   7.237   3.134
30699WAT     H192339   9.433   7.220   3.200
30699WAT     H292340   9.379   7.322   3.084
30700WAT      O92341   8.329   0.119   1.385
30700WAT     H192342   8.272   0.060   1.328
30700WAT     H292343   8.414   0.071   1.408
30701WAT      O92344   8.272   6.816   8.303
30701WAT     H192345   8.315   6.860   8.224
30701WAT     H292346   8.194   6.870   8.333
30702WAT      O92347   6.889   8.571   7.428
30702WAT     H192348   6.822   8.506   7.392
30702WAT     H292349   6.955   8.522   7.486
30703WAT      O92350   6.259   4.231   3.748
30703WAT     H192351   6.253   4.254   3.651
30703WAT     H292352   6.167   4.224   3.786
30704WAT      O92353   6.877   0.727   3.195
30704WAT     H192354   6.943   0.666   3.238
30704WAT     H292355   6.923   0.812   3.168
30705WAT      O92356   8.296   3.744   7.040
30705WAT     H192357   8.390   3.726   7.070
30705WAT     H292358   8.296   3.764   6.942
30706WAT      O92359   4.385   5.696   0.112
30706WAT     H192360   4.409   5.668   0.205
30706WAT     H292361   4.358   5.792   0.112
30707WAT      O92362   4.541   2.224   3.983
30707WAT     H192363   4.444   2.209   3.964
30707WAT     H292364   4.597   2.173   3.917
30708WAT      O92365   0.896   4.674   7.499
30708WAT     H192366   0.870   4.715   7.587
30708WAT     H292367   0.819   4.681   7.435
30709WAT      O92368   2.581   7.128   7.522
30709WAT     H192369   2.486   7.123   7.490
30709WAT     H292370   2.617   7.035   7.535
30710WAT      O92371   4.464   3.978   9.606
30710WAT     H192372   4.515   3.904   9.648
30710WAT     H292373   4.507   4.066   9.629
30711WAT      O92374   2.316   3.714   2.978
30711WAT     H192375   2.275   3.648   3.041
30711WAT     H292376   2.272   3.708   2.889
30712WAT      O92377   9.066   7.432   2.636
30712WAT     H192378   9.014   7.490   2.699
30712WAT     H292379   9.163   7.433   2.663
30713WAT      O92380   0.829   7.478   0.534
30713WAT     H192381   0.748   7.458   0.590
30713WAT     H292382   0.847   7.401   0.473
30714WAT      O92383   4.602   7.689   5.674
30714WAT     H192384   4.635   7.670   5.766
30714WAT     H292385   4.559   7.607   5.636
30715WAT      O92386   3.992   1.558   3.217
30715WAT     H192387   4.066   1.591   3.274
30715WAT     H292388   3.911   1.615   3.230
30716WAT      O92389   9.590   7.987   6.999
30716WAT     H192390   9.543   7.911   6.954
30716WAT     H292391   9.667   7.952   7.052
30717WAT      O92392   8.574   0.762   4.125
30717WAT     H192393   8.608   0.691   4.187
30717WAT     H292394   8.545   0.720   4.039
30718WAT      O92395   7.945   8.321   1.295
30718WAT     H192396   7.975   8.280   1.381
30718WAT     H292397   7.975   8.265   1.219
30719WAT      O92398   3.964   9.022   3.735
30719WAT     H192399   4.055   9.037   3.695
30719WAT     H292400   3.965   9.051   3.831
30720WAT      O92401   0.038   7.264   4.313
30720WAT     H192402   0.047   7.219   4.402
30720WAT     H292403   0.070   7.358   4.320
30721WAT      O92404   8.631   8.697   0.689
30721WAT     H192405   8.711   8.656   0.733
30721WAT     H292406   8.568   8.625   0.661
30722WAT      O92407   3.118   6.377   5.528
30722WAT     H192408   3.162   6.331   5.605
30722WAT     H292409   3.020   6.359   5.530
30723WAT      O92410   7.938   0.669   9.448
30723WAT     H192411   7.976   0.682   9.539
30723WAT     H292412   7.951   0.574   9.419
30724WAT      O92413   4.823   1.265   3.057
30724WAT     H192414   4.774   1.207   2.992
30724WAT     H292415   4.757   1.306   3.120
30725WAT      O92416   7.785   2.410   6.086
30725WAT     H192417   7.820   2.318   6.101
30725WAT     H292418   7.706   2.406   6.025
30726WAT      O92419   4.613   6.082   0.485
30726WAT     H192420   4.593   5.999   0.432
30726WAT     H292421   4.710   6.085   0.509
30727WAT      O92422   4.209   6.013   8.627
30727WAT     H192423   4.219   6.074   8.549
30727WAT     H292424   4.182   6.066   8.708
30728WAT      O92425   1.121   7.408   3.252
30728WAT     H192426   1.143   7.481   3.187
30728WAT     H292427   1.136   7.441   3.346
30729WAT      O92428   0.725   8.234   8.413
30729WAT     H192429   0.808   8.275   8.450
30729WAT     H292430   0.665   8.306   8.377
30730WAT      O92431   7.778   0.244   3.627
30730WAT     H192432   7.809   0.229   3.534
30730WAT     H292433   7.704   0.180   3.648
30731WAT      O92434   1.629   2.810   6.002
30731WAT     H192435   1.613   2.720   6.041
30731WAT     H292436   1.570   2.877   6.048
30732WAT      O92437   0.507   0.905   5.725
30732WAT     H192438   0.509   0.811   5.691
30732WAT     H292439   0.425   0.951   5.692
30733WAT      O92440   0.458   3.154   9.409
30733WAT     H192441   0.425   3.089   9.341
30733WAT     H292442   0.433   3.247   9.381
30734WAT      O92443   0.923   9.756   0.252
30734WAT     H192444   0.900   9.854   0.249
30734WAT     H292445   0.877   9.714   0.330
30735WAT      O92446   7.901   1.689   0.727
30735WAT     H192447   7.993   1.682   0.687
30735WAT     H292448   7.834   1.707   0.655
30736WAT      O92449   9.639   1.566   2.579
30736WAT     H192450   9.655   1.469   2.596
30736WAT     H292451   9.611   1.612   2.663
30737WAT      O92452   4.670   3.367   0.016
30737WAT     H192453   4.751   3.386   0.070
30737WAT     H292454   4.691   3.298  -0.054
30738WAT      O92455   2.262   3.756   4.149
30738WAT     H192456   2.351   3.767   4.194
30738WAT     H292457   2.189   3.768   4.217
30739WAT      O92458   9.692   6.175   2.680
30739WAT     H192459   9.655   6.229   2.604
30739WAT     H292460   9.763   6.228   2.727
30740WAT      O92461   5.330   5.052   0.109
30740WAT     H192462   5.284   4.976   0.064
30740WAT     H292463   5.423   5.062   0.072
30741WAT      O92464   8.696   7.354   2.589
30741WAT     H192465   8.762   7.390   2.655
30741WAT     H292466   8.669   7.427   2.526
30742WAT      O92467   5.863   4.495   0.152
30742WAT     H192468   5.953   4.514   0.191
30742WAT     H292469   5.837   4.400   0.171
30743WAT      O92470   1.303   5.682   3.720
30743WAT     H192471   1.349   5.647   3.638
30743WAT     H292472   1.301   5.782   3.716
30744WAT      O92473   4.449   7.059   5.546
30744WAT     H192474   4.428   6.971   5.504
30744WAT     H292475   4.497   7.044   5.633
30745WAT      O92476   4.269   5.728   2.470
30745WAT     H192477   4.288   5.802   2.407
30745WAT     H292478   4.329   5.735   2.550
30746WAT      O92479   4.082   5.459   8.226
30746WAT     H192480   4.064   5.549   8.187
30746WAT     H292481   4.071   5.389   8.155
30747WAT      O92482   7.713   2.929   7.779
30747WAT     H192483   7.738   2.832   7.782
30747WAT     H292484   7.672   2.949   7.690
30748WAT      O92485   2.041   1.438   7.193
30748WAT     H192486   2.123   1.380   7.194
30748WAT     H292487   1.997   1.431   7.104
30749WAT      O92488   1.157   2.973   7.261
30749WAT     H192489   1.192   2.923   7.339
30749WAT     H292490   1.122   2.909   7.192
30750WAT      O92491   3.630   2.349   7.673
30750WAT     H192492   3.620   2.431   7.729
30750WAT     H292493   3.628   2.374   7.576
30751WAT      O92494   8.206   2.919   8.124
30751WAT     H192495   8.208   3.019   8.124
30751WAT     H292496   8.281   2.885   8.069
30752WAT      O92497   8.677   5.878   0.552
30752WAT     H192498   8.683   5.917   0.460
30752WAT     H292499   8.744   5.922   0.611
30753WAT      O92500   2.926   9.367   6.218
30753WAT     H192501   2.905   9.464   6.229
30753WAT     H292502   3.006   9.343   6.273
30754WAT      O92503   4.422   3.222   3.881
30754WAT     H192504   4.446   3.126   3.868
30754WAT     H292505   4.357   3.250   3.810
30755WAT      O92506   9.858   4.346   4.250
30755WAT     H192507   9.844   4.427   4.192
30755WAT     H292508   9.851   4.373   4.346
30756WAT      O92509   9.303   3.367   5.780
30756WAT     H192510   9.315   3.359   5.879
30756WAT     H292511   9.306   3.276   5.738
30757WAT      O92512   5.622   8.284   4.046
30757WAT     H192513   5.551   8.239   4.100
30757WAT     H292514   5.655   8.364   4.095
30758WAT      O92515   6.788   4.443   6.479
30758WAT     H192516   6.861   4.429   6.546
30758WAT     H292517   6.699   4.439   6.525
30759WAT      O92518   1.983   6.576   5.019
30759WAT     H192519   1.945   6.611   4.933
30759WAT     H292520   2.041   6.496   4.999
30760WAT      O92521   6.146   1.515   8.110
30760WAT     H192522   6.198   1.470   8.037
30760WAT     H292523   6.049   1.515   8.086
30761WAT      O92524   4.255   3.563   6.863
30761WAT     H192525   4.246   3.659   6.891
30761WAT     H292526   4.194   3.507   6.919
30762WAT      O92527   5.693   9.020   7.876
30762WAT     H192528   5.716   9.118   7.873
30762WAT     H292529   5.774   8.967   7.850
30763WAT      O92530   8.982   1.985   5.926
30763WAT     H192531   8.917   1.991   6.002
30763WAT     H292532   9.017   1.891   5.920
30764WAT      O92533   2.646   4.014   4.993
30764WAT     H192534   2.692   3.979   5.074
30764WAT     H292535   2.578   3.948   4.961
30765WAT      O92536   9.760   2.923   8.356
30765WAT     H192537   9.674   2.878   8.379
30765WAT     H292538   9.746   3.022   8.355
30766WAT      O92539   3.301   2.849   9.671
30766WAT     H192540   3.325   2.837   9.768
30766WAT     H292541   3.334   2.938   9.640
30767WAT      O92542   2.882   0.039   6.578
30767WAT     H192543   2.947   0.063   6.506
30767WAT     H292544   2.920  -0.034   6.635
30768WAT      O92545   1.794   8.621   0.790
30768WAT     H192546   1.698   8.628   0.816
30768WAT     H292547   1.824   8.526   0.800
30769WAT      O92548   8.771   4.816   5.188
30769WAT     H192549   8.739   4.751   5.258
30769WAT     H292550   8.753   4.909   5.219
30770WAT      O92551   1.246   3.115   8.037
30770WAT     H192552   1.282   3.045   7.975
30770WAT     H292553   1.166   3.078   8.084
30771WAT      O92554   2.970   2.127   5.308
30771WAT     H192555   2.940   2.037   5.338
30771WAT     H292556   2.906   2.197   5.341
30772WAT      O92557   2.680   8.121   3.055
30772WAT     H192558   2.732   8.038   3.033
30772WAT     H292559   2.626   8.107   3.138
30773WAT      O92560   7.556   0.961   2.996
30773WAT     H192561   7.491   1.037   2.999
30773WAT     H292562   7.581   0.935   3.089
30774WAT      O92563   1.545   6.760   7.526
30774WAT     H192564   1.553   6.836   7.591
30774WAT     H292565   1.634   6.743   7.484
30775WAT      O92566   1.744   7.350   5.196
30775WAT     H192567   1.797   7.370   5.113
30775WAT     H292568   1.756   7.253   5.220
30776WAT      O92569   2.973   6.765   0.095
30776WAT     H192570   3.015   6.685   0.054
30776WAT     H292571   2.875   6.748   0.109
30777WAT      O92572   2.961   8.393   3.773
30777WAT     H192573   3.025   8.350   3.837
30777WAT     H292574   2.937   8.328   3.701
30778WAT      O92575   0.287   1.320   8.994
30778WAT     H192576   0.263   1.224   9.009
30778WAT     H292577   0.361   1.346   9.055
30779WAT      O92578   4.037   2.102   4.807
30779WAT     H192579   4.074   2.129   4.718
30779WAT     H292580   3.952   2.150   4.823
30780WAT      O92581   3.914   3.718   4.501
30780WAT     H192582   3.990   3.757   4.449
30780WAT     H292583   3.889   3.781   4.575
30781WAT      O92584   2.613   9.418   3.386
30781WAT     H192585   2.569   9.479   3.321
30781WAT     H292586   2.559   9.413   3.470
30782WAT      O92587   7.989   7.663   3.029
30782WAT     H192588   8.048   7.643   3.108
30782WAT     H292589   7.911   7.717   3.059
30783WAT      O92590   5.896   9.402   6.591
30783WAT     H192591   5.870   9.436   6.500
30783WAT     H292592   5.872   9.469   6.660
30784WAT      O92593   6.947   6.037   8.238
30784WAT     H192594   7.028   5.991   8.202
30784WAT     H292595   6.867   6.008   8.187
30785WAT      O92596   2.355   2.683   0.999
30785WAT     H192597   2.281   2.616   1.002
30785WAT     H292598   2.429   2.649   0.941
30786WAT      O92599   4.367   1.574   0.832
30786WAT     H192600   4.332   1.496   0.780
30786WAT     H292601   4.435   1.623   0.776
30787WAT      O92602   7.605   1.861   0.919
30787WAT     H192603   7.630   1.813   1.003
30787WAT     H292604   7.687   1.882   0.867
30788WAT      O92605   7.955   8.465   0.822
30788WAT     H192606   7.873   8.514   0.793
30788WAT     H292607   7.966   8.477   0.921
30789WAT      O92608   1.493   2.328   0.721
30789WAT     H192609   1.508   2.337   0.820
30789WAT     H292610   1.501   2.232   0.695
30790WAT      O92611   2.374   4.506   8.843
30790WAT     H192612   2.326   4.423   8.870
30790WAT     H292613   2.350   4.529   8.749
30791WAT      O92614   0.690   0.340   3.454
30791WAT     H192615   0.619   0.382   3.511
30791WAT     H292616   0.658   0.252   3.420
30792WAT      O92617   0.076   5.927   6.941
30792WAT     H192618   0.079   5.840   6.990
30792WAT     H292619   0.081   6.003   7.007
30793WAT      O92620   8.810   8.181   5.989
30793WAT     H192621   8.775   8.211   6.078
30793WAT     H292622   8.768   8.234   5.916
30794WAT      O92623   3.273   6.840   9.012
30794WAT     H192624   3.274   6.939   9.024
30794WAT     H292625   3.366   6.807   9.000
30795WAT      O92626   6.820   4.622   6.941
30795WAT     H192627   6.721   4.631   6.943
30795WAT     H292628   6.850   4.603   6.847
30796WAT      O92629   9.442   3.451   2.617
30796WAT     H192630   9.406   3.460   2.710
30796WAT     H292631   9.513   3.519   2.602
30797WAT      O92632   9.652   4.291   7.317
30797WAT     H192633   9.649   4.263   7.413
30797WAT     H292634   9.747   4.295   7.287
30798WAT      O92635   3.352   0.078   6.223
30798WAT     H192636   3.265   0.054   6.179
30798WAT     H292637   3.427   0.040   6.170
30799WAT      O92638   5.529   5.964   7.036
30799WAT     H192639   5.569   5.880   6.998
30799WAT     H292640   5.603   6.027   7.060
30800WAT      O92641   3.413   8.458   0.585
30800WAT     H192642   3.487   8.445   0.651
30800WAT     H292643   3.354   8.378   0.586
30801WAT      O92644   6.803   4.203   1.877
30801WAT     H192645   6.850   4.124   1.917
30801WAT     H292646   6.844   4.226   1.789
30802WAT      O92647   2.791   5.296   7.578
30802WAT     H192648   2.863   5.231   7.602
30802WAT     H292649   2.702   5.260   7.607
30803WAT      O92650   7.012   4.504   9.302
30803WAT     H192651   7.059   4.542   9.381
30803WAT     H292652   6.916   4.487   9.325
30804WAT      O92653   4.897   0.165   7.664
30804WAT     H192654   4.947   0.248   7.639
30804WAT     H292655   4.812   0.160   7.611
30805WAT      O92656   8.077   1.676   1.269
30805WAT     H192657   8.130   1.666   1.184
30805WAT     H292658   8.013   1.752   1.259
30806WAT      O92659   6.671   6.185   2.091
30806WAT     H192660   6.688   6.184   1.993
30806WAT     H292661   6.755   6.160   2.140
30807WAT      O92662   3.881   9.481   0.580
30807WAT     H192663   3.819   9.440   0.513
30807WAT     H292664   3.834   9.489   0.668
30808WAT      O92665   5.330   0.269   9.765
30808WAT     H192666   5.252   0.267   9.702
30808WAT     H292667   5.405   0.215   9.726
30809WAT      O92668   9.294   2.237   4.794
30809WAT     H192669   9.280   2.331   4.825
30809WAT     H292670   9.373   2.233   4.733
30810WAT      O92671   1.134   4.805   2.825
30810WAT     H192672   1.147   4.904   2.819
30810WAT     H292673   1.183   4.770   2.906
30811WAT      O92674   7.236   6.121   3.717
30811WAT     H192675   7.322   6.171   3.726
30811WAT     H292676   7.159   6.181   3.738
30812WAT      O92677   7.349   8.007   0.333
30812WAT     H192678   7.269   7.953   0.358
30812WAT     H292679   7.330   8.059   0.250
30813WAT      O92680   8.251   3.159   1.635
30813WAT     H192681   8.218   3.233   1.693
30813WAT     H292682   8.348   3.143   1.652
30814WAT      O92683   8.218   3.431   4.548
30814WAT     H192684   8.318   3.429   4.553
30814WAT     H292685   8.184   3.338   4.531
30815WAT      O92686   8.394   5.248   0.308
30815WAT     H192687   8.414   5.307   0.386
30815WAT     H292688   8.412   5.153   0.333
30816WAT      O92689   1.508   2.918   2.240
30816WAT     H192690   1.565   2.898   2.160
30816WAT     H292691   1.426   2.967   2.211
30817WAT      O92692   1.690   0.995   9.071
30817WAT     H192693   1.601   1.028   9.101
30817WAT     H292694   1.761   1.029   9.132
30818WAT      O92695   9.159   7.282   9.051
30818WAT     H192696   9.195   7.369   9.086
30818WAT     H292697   9.101   7.300   8.972
30819WAT      O92698   0.467   1.068   0.825
30819WAT     H192699   0.490   1.003   0.752
30819WAT     H292700   0.461   1.019   0.912
30820WAT      O92701   5.814   2.700   0.457
30820WAT     H192702   5.892   2.756   0.485
30820WAT     H292703   5.770   2.659   0.537
30821WAT      O92704   3.528   7.467   9.768
30821WAT     H192705   3.561   7.426   9.683
30821WAT     H292706   3.501   7.562   9.750
30822WAT      O92707   6.064   1.497   9.622
30822WAT     H192708   6.018   1.559   9.685
30822WAT     H292709   6.137   1.448   9.671
30823WAT      O92710   1.756   7.316   8.991
30823WAT     H192711   1.758   7.219   8.965
30823WAT     H292712   1.784   7.372   8.914
30824WAT      O92713   4.012   4.187   3.292
30824WAT     H192714   4.085   4.180   3.360
30824WAT     H292715   3.996   4.283   3.271
30825WAT      O92716   2.124   8.485   4.908
30825WAT     H192717   2.178   8.434   4.842
30825WAT     H292718   2.161   8.577   4.918
30826WAT      O92719   5.213   1.457   5.097
30826WAT     H192720   5.121   1.471   5.132
30826WAT     H292721   5.241   1.362   5.113
30827WAT      O92722   1.607   9.787   1.407
30827WAT     H192723   1.576   9.815   1.316
30827WAT     H292724   1.681   9.720   1.399
30828WAT      O92725   1.378   3.205   6.152
30828WAT     H192726   1.375   3.231   6.249
30828WAT     H292727   1.350   3.283   6.096
30829WAT      O92728   2.692   9.774   7.228
30829WAT     H192729   2.739   9.686   7.237
30829WAT     H292730   2.624   9.783   7.301
30830WAT      O92731   3.376   6.821   7.509
30830WAT     H192732   3.325   6.785   7.588
30830WAT     H292733   3.311   6.854   7.440
30831WAT      O92734   4.464   0.742   3.025
30831WAT     H192735   4.559   0.775   3.026
30831WAT     H292736   4.412   0.793   2.956
30832WAT      O92737   4.088   7.526   0.840
30832WAT     H192738   4.012   7.581   0.877
30832WAT     H292739   4.169   7.540   0.896
30833WAT      O92740   8.373   0.755   6.892
30833WAT     H192741   8.408   0.750   6.798
30833WAT     H292742   8.352   0.663   6.924
30834WAT      O92743   6.098   4.663   8.359
30834WAT     H192744   6.003   4.631   8.351
30834WAT     H292745   6.102   4.760   8.334
30835WAT      O92746   1.570   7.630   0.144
30835WAT     H192747   1.583   7.696   0.218
30835WAT     H292748   1.494   7.658   0.086
30836WAT      O92749   2.904   7.410   8.235
30836WAT     H192750   2.914   7.321   8.190
30836WAT     H292751   2.955   7.479   8.184
30837WAT      O92752   7.288   1.134   7.287
30837WAT     H192753   7.370   1.184   7.259
30837WAT     H292754   7.211   1.197   7.295
30838WAT      O92755   1.602   4.033   7.638
30838WAT     H192756   1.505   4.056   7.639
30838WAT     H292757   1.621   3.969   7.564
30839WAT      O92758   1.701   1.672   2.729
30839WAT     H192759   1.759   1.750   2.707
30839WAT     H292760   1.607   1.702   2.740
30840WAT      O92761   2.203   0.593   5.790
30840WAT     H192762   2.177   0.688   5.811
30840WAT     H292763   2.303   0.586   5.790
30841WAT      O92764   8.744   3.533   3.540
30841WAT     H192765   8.649   3.514   3.566
30841WAT     H292766   8.806   3.482   3.599
30842WAT      O92767   3.647   0.889   5.635
30842WAT     H192768   3.558   0.846   5.619
30842WAT     H292769   3.718   0.837   5.587
30843WAT      O92770   1.847   1.311   6.325
30843WAT     H192771   1.858   1.224   6.276
30843WAT     H292772   1.917   1.375   6.294
30844WAT      O92773   6.254   9.375   0.103
30844WAT     H192774   6.172   9.354   0.157
30844WAT     H292775   6.258   9.473   0.086
30845WAT      O92776   8.824   6.055   6.359
30845WAT     H192777   8.875   6.049   6.445
30845WAT     H292778   8.887   6.041   6.282
30846WAT      O92779   4.960   1.352   4.852
30846WAT     H192780   4.996   1.283   4.790
30846WAT     H292781   5.025   1.367   4.927
30847WAT      O92782   2.556   8.733   1.964
30847WAT     H192783   2.649   8.752   1.931
30847WAT     H292784   2.541   8.635   1.965
30848WAT      O92785   3.622   4.751   4.286
30848WAT     H192786   3.660   4.712   4.370
30848WAT     H292787   3.662   4.704   4.207
30849WAT      O92788   1.187   2.292   2.235
30849WAT     H192789   1.147   2.216   2.183
30849WAT     H292790   1.119   2.365   2.246
30850WAT      O92791   8.512   1.937   8.460
30850WAT     H192792   8.555   1.989   8.533
30850WAT     H292793   8.582   1.887   8.409
30851WAT      O92794   4.499   9.128   4.205
30851WAT     H192795   4.519   9.170   4.117
30851WAT     H292796   4.470   9.198   4.270
30852WAT      O92797   7.613   8.584   7.808
30852WAT     H192798   7.661   8.573   7.895
30852WAT     H292799   7.641   8.669   7.765
30853WAT      O92800   1.681   7.950   1.889
30853WAT     H192801   1.664   8.048   1.875
30853WAT     H292802   1.635   7.921   1.973
30854WAT      O92803   9.314   7.061   2.207
30854WAT     H192804   9.239   7.116   2.170
30854WAT     H292805   9.397   7.117   2.211
30855WAT      O92806   5.397   8.441   3.817
30855WAT     H192807   5.402   8.470   3.721
30855WAT     H292808   5.474   8.381   3.838
30856WAT      O92809   6.250   6.646   9.740
30856WAT     H192810   6.197   6.640   9.656
30856WAT     H292811   6.342   6.679   9.720
30857WAT      O92812   7.495   1.582   4.029
30857WAT     H192813   7.505   1.593   4.128
30857WAT     H292814   7.508   1.671   3.985
30858WAT      O92815   6.208   3.298   1.695
30858WAT     H192816   6.304   3.286   1.723
30858WAT     H292817   6.152   3.314   1.776
30859WAT      O92818   8.305   4.763   6.829
30859WAT     H192819   8.403   4.775   6.839
30859WAT     H292820   8.285   4.669   6.799
30860WAT      O92821   2.155   4.823   7.021
30860WAT     H192822   2.114   4.914   7.013
30860WAT     H292823   2.126   4.781   7.107
30861WAT      O92824   0.909   4.073   3.369
30861WAT     H192825   0.982   4.100   3.306
30861WAT     H292826   0.821   4.102   3.331
30862WAT      O92827   8.547   1.790   0.454
30862WAT     H192828   8.538   1.709   0.512
30862WAT     H292829   8.491   1.864   0.492
30863WAT      O92830   4.324   9.249   3.240
30863WAT     H192831   4.360   9.223   3.151
30863WAT     H292832   4.226   9.226   3.245
30864WAT      O92833   2.318   6.198   4.657
30864WAT     H192834   2.408   6.242   4.653
30864WAT     H292835   2.247   6.266   4.635
30865WAT      O92836   4.361   4.130   1.528
30865WAT     H192837   4.332   4.055   1.588
30865WAT     H292838   4.454   4.158   1.551
30866WAT      O92839   3.719   0.242   6.127
30866WAT     H192840   3.680   0.323   6.170
30866WAT     H292841   3.722   0.167   6.194
30867WAT      O92842   0.335   5.873   5.604
30867WAT     H192843   0.366   5.778   5.600
30867WAT     H292844   0.244   5.880   5.563
30868WAT      O92845   0.560   6.496   5.608
30868WAT     H192846   0.589   6.589   5.587
30868WAT     H292847   0.530   6.492   5.703
30869WAT      O92848   9.231   5.045   3.322
30869WAT     H192849   9.186   4.956   3.316
30869WAT     H292850   9.276   5.054   3.411
30870WAT      O92851   2.663   8.775   7.180
30870WAT     H192852   2.639   8.872   7.180
30870WAT     H292853   2.633   8.733   7.095
30871WAT      O92854   6.972   4.015   1.962
30871WAT     H192855   7.045   4.083   1.968
30871WAT     H292856   6.984   3.947   2.034
30872WAT      O92857   8.096   3.405   0.689
30872WAT     H192858   8.131   3.496   0.713
30872WAT     H292859   8.155   3.336   0.732
30873WAT      O92860   8.220   5.700   8.118
30873WAT     H192861   8.253   5.609   8.094
30873WAT     H292862   8.147   5.727   8.055
30874WAT      O92863   6.619   0.578   4.690
30874WAT     H192864   6.632   0.498   4.631
30874WAT     H292865   6.579   0.549   4.777
30875WAT      O92866   3.860   7.782   8.409
30875WAT     H192867   3.900   7.714   8.348
30875WAT     H292868   3.780   7.823   8.364
30876WAT      O92869   4.278   6.903   8.250
30876WAT     H192870   4.189   6.858   8.256
30876WAT     H292871   4.272   6.994   8.292
30877WAT      O92872   8.421   8.201   2.614
30877WAT     H192873   8.407   8.295   2.645
30877WAT     H292874   8.502   8.163   2.659
30878WAT      O92875   4.131   7.268   6.488
30878WAT     H192876   4.061   7.315   6.541
30878WAT     H292877   4.151   7.179   6.530
30879WAT      O92878   9.607   6.759   5.386
30879WAT     H192879   9.588   6.804   5.299
30879WAT     H292880   9.623   6.828   5.456
30880WAT      O92881   6.221   3.954   1.870
30880WAT     H192882   6.127   3.939   1.839
30880WAT     H292883   6.225   3.942   1.970
30881WAT      O92884   1.986   5.229   3.992
30881WAT     H192885   1.953   5.250   3.900
30881WAT     H292886   2.032   5.140   3.991
30882WAT      O92887   9.278   6.965   9.846
30882WAT     H192888   9.296   6.871   9.816
30882WAT     H292889   9.303   6.976   9.942
30883WAT      O92890   8.132   2.115   6.674
30883WAT     H192891   8.075   2.104   6.756
30883WAT     H292892   8.076   2.149   6.599
30884WAT      O92893   2.579   9.378   8.023
30884WAT     H192894   2.657   9.320   7.998
30884WAT     H292895   2.538   9.343   8.107
30885WAT      O92896   3.590   0.750   9.371
30885WAT     H192897   3.521   0.800   9.319
30885WAT     H292898   3.673   0.806   9.380
30886WAT      O92899   7.782   6.538   7.817
30886WAT     H192900   7.710   6.481   7.777
30886WAT     H292901   7.829   6.588   7.745
30887WAT      O92902   0.566   6.429   4.273
30887WAT     H192903   0.477   6.462   4.303
30887WAT     H292904   0.600   6.487   4.199
30888WAT      O92905   3.137   1.485   4.526
30888WAT     H192906   3.047   1.514   4.494
30888WAT     H292907   3.149   1.387   4.508
30889WAT      O92908   4.143   3.648   2.000
30889WAT     H192909   4.170   3.741   2.026
30889WAT     H292910   4.082   3.611   2.069
30890WAT      O92911   0.042   3.044   6.228
30890WAT     H192912  -0.004   2.957   6.212
30890WAT     H292913  -0.025   3.114   6.252
30891WAT      O92914   6.707   0.599   2.929
30891WAT     H192915   6.613   0.589   2.895
30891WAT     H292916   6.705   0.621   3.026
30892WAT      O92917   8.168   8.650   6.989
30892WAT     H192918   8.095   8.621   7.051
30892WAT     H292919   8.219   8.725   7.032
30893WAT      O92920   9.039   0.405   5.753
30893WAT     H192921   9.058   0.317   5.708
30893WAT     H292922   9.066   0.399   5.850
30894WAT      O92923   2.511   1.720   6.843
30894WAT     H192924   2.489   1.791   6.777
30894WAT     H292925   2.468   1.741   6.931
30895WAT      O92926   9.698   3.705   3.087
30895WAT     H192927   9.598   3.702   3.091
30895WAT     H292928   9.735   3.727   3.178
30896WAT      O92929   9.798   2.526   7.932
30896WAT     H192930   9.760   2.464   7.863
30896WAT     H292931   9.885   2.490   7.965
30897WAT      O92932   1.983   2.657   8.810
30897WAT     H192933   2.058   2.704   8.764
30897WAT     H292934   1.950   2.714   8.886
30898WAT      O92935   8.843   3.729   1.753
30898WAT     H192936   8.847   3.637   1.793
30898WAT     H292937   8.901   3.732   1.672
30899WAT      O92938   0.800   5.817   4.645
30899WAT     H192939   0.824   5.904   4.689
30899WAT     H292940   0.712   5.827   4.599
30900WAT      O92941   9.131   2.607   0.438
30900WAT     H192942   9.033   2.615   0.454
30900WAT     H292943   9.179   2.602   0.526
30901WAT      O92944   3.839   6.754   4.959
30901WAT     H192945   3.812   6.756   4.863
30901WAT     H292946   3.899   6.832   4.978
30902WAT      O92947   6.424   1.283   3.939
30902WAT     H192948   6.482   1.354   3.979
30902WAT     H292949   6.401   1.215   4.009
30903WAT      O92950   9.603   1.772   6.847
30903WAT     H192951   9.549   1.853   6.827
30903WAT     H292952   9.552   1.690   6.819
30904WAT      O92953   7.692   9.206   0.317
30904WAT     H192954   7.750   9.205   0.236
30904WAT     H292955   7.606   9.159   0.297
30905WAT      O92956   0.172   0.993   7.392
30905WAT     H192957   0.220   1.062   7.339
30905WAT     H292958   0.106   1.037   7.453
30906WAT      O92959   4.384   7.305   0.061
30906WAT     H192960   4.300   7.255   0.038
30906WAT     H292961   4.430   7.333  -0.023
30907WAT      O92962   5.367   4.529   7.942
30907WAT     H192963   5.347   4.626   7.954
30907WAT     H292964   5.406   4.513   7.852
30908WAT      O92965   3.423   2.673   3.168
30908WAT     H192966   3.395   2.578   3.153
30908WAT     H292967   3.486   2.677   3.246
30909WAT      O92968   5.160   6.301   0.989
30909WAT     H192969   5.175   6.375   0.924
30909WAT     H292970   5.231   6.232   0.978
30910WAT      O92971   1.291   4.497   6.710
30910WAT     H192972   1.328   4.496   6.617
30910WAT     H292973   1.264   4.404   6.736
30911WAT      O92974   3.895   2.814   2.730
30911WAT     H192975   3.811   2.837   2.779
30911WAT     H292976   3.905   2.874   2.651
30912WAT      O92977   6.249   5.711   2.133
30912WAT     H192978   6.225   5.704   2.230
30912WAT     H292979   6.348   5.721   2.124
30913WAT      O92980   3.585   5.308   2.696
30913WAT     H192981   3.497   5.262   2.708
30913WAT     H292982   3.620   5.336   2.786
30914WAT      O92983   4.925   0.378   8.165
30914WAT     H192984   4.944   0.475   8.147
30914WAT     H292985   4.952   0.324   8.086
30915WAT      O92986   3.051   0.220   1.741
30915WAT     H192987   3.044   0.215   1.641
30915WAT     H292988   3.002   0.143   1.782
30916WAT      O92989   9.856   8.345   7.849
30916WAT     H192990   9.950   8.379   7.858
30916WAT     H292991   9.793   8.410   7.892
30917WAT      O92992   4.120   6.650   5.083
30917WAT     H192993   4.082   6.741   5.067
30917WAT     H292994   4.082   6.586   5.016
30918WAT      O92995   4.798   0.372   2.716
30918WAT     H192996   4.812   0.305   2.789
30918WAT     H292997   4.764   0.457   2.755
30919WAT      O92998   3.317   8.696   7.268
30919WAT     H192999   3.389   8.654   7.323
30919WAT     H293000   3.280   8.776   7.316
30920WAT      O93001   0.964   3.955   1.496
30920WAT     H193002   0.974   4.047   1.533
30920WAT     H293003   0.899   3.903   1.551
30921WAT      O93004   0.924   1.318   8.561
30921WAT     H193005   0.978   1.294   8.642
30921WAT     H293006   0.843   1.260   8.556
30922WAT      O93007   5.159   6.488   0.789
30922WAT     H193008   5.093   6.467   0.716
30922WAT     H293009   5.233   6.544   0.752
30923WAT      O93010   6.866   9.457   8.788
30923WAT     H193011   6.778   9.452   8.741
30923WAT     H293012   6.887   9.368   8.829
30924WAT      O93013   6.970   9.041   7.503
30924WAT     H193014   6.966   9.063   7.405
30924WAT     H293015   6.910   8.963   7.522
30925WAT      O93016   9.680   8.305   0.200
30925WAT     H193017   9.658   8.255   0.115
30925WAT     H293018   9.627   8.265   0.275
30926WAT      O93019   8.144   3.149   4.465
30926WAT     H193020   8.120   3.054   4.484
30926WAT     H293021   8.100   3.179   4.380
30927WAT      O93022   9.270   7.624   1.107
30927WAT     H193023   9.274   7.540   1.053
30927WAT     H293024   9.360   7.645   1.143
30928WAT      O93025   5.463   6.642   8.710
30928WAT     H193026   5.364   6.649   8.703
30928WAT     H293027   5.489   6.547   8.729
30929WAT      O93028   0.179   9.343   2.962
30929WAT     H193029   0.158   9.367   3.057
30929WAT     H293030   0.271   9.304   2.957
30930WAT      O93031   7.943   3.320   0.068
30930WAT     H193032   7.995   3.236   0.050
30930WAT     H293033   7.859   3.319   0.014
30931WAT      O93034   4.319   4.686   0.738
30931WAT     H193035   4.386   4.683   0.812
30931WAT     H293036   4.341   4.619   0.668
30932WAT      O93037   2.314   5.626   4.190
30932WAT     H193038   2.239   5.560   4.179
30932WAT     H293039   2.277   5.711   4.226
30933WAT      O93040   6.724   7.712   9.125
30933WAT     H193041   6.753   7.689   9.032
30933WAT     H293042   6.729   7.630   9.182
30934WAT      O93043   7.527   1.377   7.551
30934WAT     H193044   7.516   1.471   7.517
30934WAT     H293045   7.482   1.314   7.488
30935WAT      O93046   4.346   2.475   1.828
30935WAT     H193047   4.326   2.451   1.733
30935WAT     H293048   4.415   2.411   1.863
30936WAT      O93049   5.632   1.258   5.938
30936WAT     H193050   5.544   1.224   5.971
30936WAT     H293051   5.652   1.346   5.982
30937WAT      O93052   4.242   5.562   8.594
30937WAT     H193053   4.234   5.476   8.544
30937WAT     H293054   4.313   5.553   8.664
30938WAT      O93055   3.514   0.169   6.962
30938WAT     H193056   3.418   0.195   6.968
30938WAT     H293057   3.571   0.249   6.981
30939WAT      O93058   2.426   3.886   8.517
30939WAT     H193059   2.403   3.973   8.471
30939WAT     H293060   2.509   3.898   8.571
30940WAT      O93061   6.582   1.473   3.479
30940WAT     H193062   6.542   1.447   3.391
30940WAT     H293063   6.581   1.395   3.541
30941WAT      O93064   4.600   5.910   0.959
30941WAT     H193065   4.586   5.856   0.876
30941WAT     H293066   4.511   5.940   0.995
30942WAT      O93067   1.622   3.366   3.252
30942WAT     H193068   1.677   3.416   3.318
30942WAT     H293069   1.625   3.268   3.273
30943WAT      O93070   8.060   9.746   8.970
30943WAT     H193071   7.972   9.737   9.017
30943WAT     H293072   8.067   9.837   8.930
30944WAT      O93073   8.869   6.867   8.574
30944WAT     H193074   8.938   6.838   8.508
30944WAT     H293075   8.782   6.884   8.527
30945WAT      O93076   5.740   9.311   0.773
30945WAT     H193077   5.757   9.363   0.690
30945WAT     H293078   5.665   9.352   0.824
30946WAT      O93079   9.394   4.901   7.238
30946WAT     H193080   9.329   4.951   7.296
30946WAT     H293081   9.416   4.814   7.281
30947WAT      O93082   9.853   5.817   0.698
30947WAT     H193083   9.857   5.914   0.723
30947WAT     H293084   9.760   5.783   0.711
30948WAT      O93085   3.301   8.714   0.545
30948WAT     H193086   3.357   8.790   0.579
30948WAT     H293087   3.357   8.631   0.542
30949WAT      O93088   6.786   7.806   7.910
30949WAT     H193089   6.879   7.768   7.909
30949WAT     H293090   6.722   7.737   7.875
30950WAT      O93091   1.088   2.544   1.876
30950WAT     H193092   1.166   2.532   1.939
30950WAT     H293093   1.089   2.637   1.840
30951WAT      O93094   9.418   6.460   4.561
30951WAT     H193095   9.393   6.382   4.503
30951WAT     H293096   9.337   6.516   4.578
30952WAT      O93097   7.307   9.627   5.726
30952WAT     H193098   7.391   9.595   5.681
30952WAT     H293099   7.262   9.551   5.772
30953WAT      O93100   8.276   4.360   2.066
30953WAT     H193101   8.341   4.351   1.990
30953WAT     H293102   8.272   4.274   2.116
30954WAT      O93103   0.859   8.692   7.115
30954WAT     H193104   0.844   8.667   7.211
30954WAT     H293105   0.940   8.751   7.109
30955WAT      O93106   3.172   0.660   0.554
30955WAT     H193107   3.215   0.574   0.525
30955WAT     H293108   3.142   0.710   0.473
30956WAT      O93109   8.410   0.799   9.208
30956WAT     H193110   8.311   0.800   9.201
30956WAT     H293111   8.439   0.859   9.284
30957WAT      O93112   0.909   4.312   4.438
30957WAT     H193113   0.941   4.298   4.532
30957WAT     H293114   0.813   4.340   4.440
30958WAT      O93115   8.889   6.423   1.283
30958WAT     H193116   8.862   6.334   1.321
30958WAT     H293117   8.985   6.421   1.257
30959WAT      O93118   1.439   4.725   4.851
30959WAT     H193119   1.376   4.800   4.868
30959WAT     H293120   1.480   4.696   4.937
30960WAT      O93121   9.653   5.085   7.926
30960WAT     H193122   9.605   5.136   7.854
30960WAT     H293123   9.721   5.025   7.885
30961WAT      O93124   7.673   2.993   7.435
30961WAT     H193125   7.591   2.996   7.493
30961WAT     H293126   7.648   2.959   7.344
30962WAT      O93127   8.076   4.188   0.650
30962WAT     H193128   8.016   4.124   0.698
30962WAT     H293129   8.034   4.216   0.564
30963WAT      O93130   1.818   3.499   3.468
30963WAT     H193131   1.883   3.443   3.417
30963WAT     H293132   1.775   3.443   3.540
30964WAT      O93133   0.447   1.205   8.144
30964WAT     H193134   0.488   1.120   8.177
30964WAT     H293135   0.358   1.185   8.103
30965WAT      O93136   7.393   5.686   3.444
30965WAT     H193137   7.302   5.646   3.446
30965WAT     H293138   7.390   5.778   3.483
30966WAT      O93139   6.766   7.555   5.599
30966WAT     H193140   6.751   7.457   5.613
30966WAT     H293141   6.818   7.569   5.515
30967WAT      O93142   5.575   6.380   8.768
30967WAT     H193143   5.585   6.367   8.866
30967WAT     H293144   5.663   6.369   8.723
30968WAT      O93145   9.691   1.523   8.362
30968WAT     H193146   9.720   1.618   8.351
30968WAT     H293147   9.747   1.464   8.305
30969WAT      O93148   0.188   4.417   5.391
30969WAT     H193149   0.104   4.363   5.383
30969WAT     H293150   0.249   4.374   5.457
30970WAT      O93151   2.546   2.130   5.072
30970WAT     H193152   2.539   2.204   5.005
30970WAT     H293153   2.551   2.043   5.025
30971WAT      O93154   2.347   2.318   6.485
30971WAT     H193155   2.266   2.261   6.498
30971WAT     H293156   2.319   2.412   6.463
30972WAT      O93157   7.580   6.796   6.809
30972WAT     H193158   7.529   6.711   6.795
30972WAT     H293159   7.667   6.776   6.852
30973WAT      O93160   1.850   7.920   2.904
30973WAT     H193161   1.873   7.918   3.002
30973WAT     H293162   1.801   7.836   2.880
30974WAT      O93163   5.518   0.704   4.363
30974WAT     H193164   5.585   0.693   4.437
30974WAT     H293165   5.426   0.687   4.400
30975WAT      O93166   5.037   0.178   5.859
30975WAT     H193167   5.040   0.125   5.944
30975WAT     H293168   4.965   0.142   5.800
30976WAT      O93169   4.096   5.141   7.311
30976WAT     H193170   4.062   5.133   7.217
30976WAT     H293171   4.104   5.238   7.335
30977WAT      O93172   2.933   5.370   9.454
30977WAT     H193173   2.867   5.318   9.508
30977WAT     H293174   2.930   5.339   9.359
30978WAT      O93175   7.166   3.265   3.706
30978WAT     H193176   7.122   3.286   3.793
30978WAT     H293177   7.104   3.210   3.650
30979WAT      O93178   7.445   4.495   5.035
30979WAT     H193179   7.401   4.437   5.103
30979WAT     H293180   7.475   4.439   4.958
30980WAT      O93181   7.531   7.938   2.521
30980WAT     H193182   7.472   7.888   2.458
30980WAT     H293183   7.476   7.972   2.598
30981WAT      O93184   8.927   6.912   2.123
30981WAT     H193185   8.933   6.900   2.024
30981WAT     H293186   8.893   7.004   2.143
30982WAT      O93187   7.313   5.531   9.613
30982WAT     H193188   7.250   5.589   9.562
30982WAT     H293189   7.334   5.573   9.701
30983WAT      O93190   4.775   3.666   8.827
30983WAT     H193191   4.692   3.721   8.814
30983WAT     H293192   4.843   3.721   8.876
30984WAT      O93193   3.444   3.415   9.576
30984WAT     H193194   3.446   3.512   9.599
30984WAT     H293195   3.405   3.403   9.485
30985WAT      O93196   6.280   7.594   2.494
30985WAT     H193197   6.281   7.538   2.411
30985WAT     H293198   6.185   7.608   2.523
30986WAT      O93199   4.453   0.588   3.979
30986WAT     H193200   4.470   0.606   4.076
30986WAT     H293201   4.535   0.546   3.939
30987WAT      O93202   9.048   3.923   2.106
30987WAT     H193203   9.044   4.016   2.069
30987WAT     H293204   9.079   3.926   2.201
30988WAT      O93205   0.198   1.509   8.484
30988WAT     H193206   0.220   1.413   8.474
30988WAT     H293207   0.241   1.546   8.566
30989WAT      O93208   2.802   3.902   3.139
30989WAT     H193209   2.718   3.863   3.178
30989WAT     H293210   2.788   3.998   3.118
30990WAT      O93211   9.030   7.862   3.325
30990WAT     H193212   8.958   7.930   3.308
30990WAT     H293213   9.009   7.813   3.410
30991WAT      O93214   3.418   0.045   4.208
30991WAT     H193215   3.504   0.000   4.233
30991WAT     H293216   3.419   0.067   4.110
30992WAT      O93217   1.376   9.377   4.169
30992WAT     H193218   1.300   9.436   4.195
30992WAT     H293219   1.457   9.433   4.152
30993WAT      O93220   9.375   2.960   3.227
30993WAT     H193221   9.384   3.036   3.292
30993WAT     H293222   9.465   2.928   3.200
30994WAT      O93223   8.932   3.739   7.452
30994WAT     H193224   8.913   3.814   7.516
30994WAT     H293225   8.848   3.687   7.436
30995WAT      O93226   1.254   0.384   5.305
30995WAT     H193227   1.183   0.428   5.249
30995WAT     H293228   1.212   0.313   5.361
30996WAT      O93229   8.514   9.545   8.972
30996WAT     H193230   8.591   9.495   8.930
30996WAT     H293231   8.457   9.481   9.023
30997WAT      O93232   5.110   7.744   9.678
30997WAT     H193233   5.175   7.818   9.660
30997WAT     H293234   5.157   7.669   9.724
30998WAT      O93235   0.677   4.787   2.000
30998WAT     H193236   0.619   4.842   1.941
30998WAT     H293237   0.669   4.819   2.095
30999WAT      O93238   7.275   0.392   6.686
30999WAT     H193239   7.319   0.304   6.703
30999WAT     H293240   7.237   0.427   6.772
31000WAT      O93241   1.976   5.548   4.796
31000WAT     H193242   1.970   5.462   4.847
31000WAT     H293243   1.891   5.599   4.807
31001WAT      O93244   3.649   2.936   5.852
31001WAT     H193245   3.574   2.994   5.819
31001WAT     H293246   3.653   2.940   5.952
31002WAT      O93247   9.331   8.981   0.739
31002WAT     H193248   9.241   8.947   0.766
31002WAT     H293249   9.377   8.913   0.682
31003WAT      O93250   6.626   0.619   8.319
31003WAT     H193251   6.640   0.621   8.418
31003WAT     H293252   6.547   0.562   8.298
31004WAT      O93253   2.191   6.366   4.435
31004WAT     H193254   2.138   6.315   4.367
31004WAT     H293255   2.130   6.397   4.508
31005WAT      O93256   4.383   3.488   0.398
31005WAT     H193257   4.422   3.411   0.349
31005WAT     H293258   4.355   3.559   0.332
31006WAT      O93259   3.665   8.112   4.090
31006WAT     H193260   3.744   8.171   4.073
31006WAT     H293261   3.673   8.069   4.180
31007WAT      O93262   0.767   8.230   7.251
31007WAT     H193263   0.724   8.156   7.200
31007WAT     H293264   0.862   8.239   7.222
31008WAT      O93265   7.199   8.390   8.801
31008WAT     H193266   7.216   8.443   8.718
31008WAT     H293267   7.242   8.300   8.792
31009WAT      O93268   1.854   3.288   5.300
31009WAT     H193269   1.792   3.283   5.378
31009WAT     H293270   1.809   3.251   5.219
31010WAT      O93271   3.358   7.367   5.981
31010WAT     H193272   3.384   7.270   5.974
31010WAT     H293273   3.276   7.383   5.926
31011WAT      O93274   5.214   9.635   2.047
31011WAT     H193275   5.308   9.604   2.059
31011WAT     H293276   5.201   9.669   1.954
31012WAT      O93277   5.984   6.347   1.990
31012WAT     H193278   5.938   6.371   2.075
31012WAT     H293279   5.988   6.248   1.980
31013WAT      O93280   4.881   8.614   1.657
31013WAT     H193281   4.901   8.586   1.563
31013WAT     H293282   4.839   8.537   1.706
31014WAT      O93283   0.693   6.401   1.666
31014WAT     H193284   0.627   6.475   1.658
31014WAT     H293285   0.705   6.356   1.577
31015WAT      O93286   2.693   1.312   0.695
31015WAT     H193287   2.596   1.308   0.717
31015WAT     H293288   2.732   1.397   0.730
31016WAT      O93289   0.600   9.524   8.519
31016WAT     H193290   0.691   9.499   8.484
31016WAT     H293291   0.585   9.477   8.606
31017WAT      O93292   5.831   3.626   0.524
31017WAT     H193293   5.869   3.654   0.612
31017WAT     H293294   5.900   3.576   0.472
31018WAT      O93295   7.071   9.013   4.517
31018WAT     H193296   7.008   9.058   4.579
31018WAT     H293297   7.020   8.979   4.437
31019WAT      O93298   7.549   2.620   7.266
31019WAT     H193299   7.539   2.613   7.366
31019WAT     H293300   7.513   2.537   7.223
31020WAT      O93301   9.640   6.250   9.854
31020WAT     H193302   9.594   6.174   9.900
31020WAT     H293303   9.696   6.300   9.919
31021WAT      O93304   7.766   8.321   1.716
31021WAT     H193305   7.753   8.296   1.620
31021WAT     H293306   7.828   8.399   1.722
31022WAT      O93307   1.209   0.186   1.460
31022WAT     H193308   1.259   0.240   1.527
31022WAT     H293309   1.216   0.089   1.482
31023WAT      O93310   0.883   8.027   4.842
31023WAT     H193311   0.813   7.968   4.802
31023WAT     H293312   0.878   8.118   4.801
31024WAT      O93313   5.200   9.411   7.388
31024WAT     H193314   5.110   9.377   7.358
31024WAT     H293315   5.271   9.347   7.360
31025WAT      O93316   1.200   6.694   6.684
31025WAT     H193317   1.113   6.643   6.684
31025WAT     H293318   1.265   6.648   6.624
31026WAT      O93319   9.557   1.599   0.061
31026WAT     H193320   9.500   1.567  -0.014
31026WAT     H293321   9.653   1.595   0.034
31027WAT      O93322   0.815   1.218   4.104
31027WAT     H193323   0.812   1.301   4.049
31027WAT     H293324   0.896   1.165   4.081
31028WAT      O93325   7.692   7.748   8.273
31028WAT     H193326   7.759   7.761   8.347
31028WAT     H293327   7.624   7.681   8.301
31029WAT      O93328   6.459   0.330   8.044
31029WAT     H193329   6.466   0.364   7.950
31029WAT     H293330   6.551   0.313   8.080
31030WAT      O93331   9.284   2.859   5.215
31030WAT     H193332   9.227   2.787   5.253
31030WAT     H293333   9.358   2.818   5.161
31031WAT      O93334   1.092   2.525   2.580
31031WAT     H193335   1.013   2.578   2.609
31031WAT     H293336   1.175   2.582   2.586
31032WAT      O93337   1.922   7.868   9.426
31032WAT     H193338   1.945   7.960   9.395
31032WAT     H293339   1.992   7.836   9.491
31033WAT      O93340   5.102   1.526   2.774
31033WAT     H193341   5.197   1.556   2.783
31033WAT     H293342   5.100   1.427   2.756
31034WAT      O93343   3.779   6.842   6.018
31034WAT     H193344   3.748   6.771   5.954
31034WAT     H293345   3.812   6.921   5.966
31035WAT      O93346   5.985   5.298   4.925
31035WAT     H193347   5.894   5.336   4.940
31035WAT     H293348   6.055   5.366   4.948
31036WAT      O93349   6.438   7.360   4.887
31036WAT     H193350   6.432   7.423   4.964
31036WAT     H293351   6.347   7.324   4.867
31037WAT      O93352   0.968   2.794   2.430
31037WAT     H193353   0.967   2.827   2.336
31037WAT     H293354   0.961   2.872   2.493
31038WAT      O93355   9.835   4.658   0.341
31038WAT     H193356   9.910   4.646   0.405
31038WAT     H293357   9.852   4.738   0.284
31039WAT      O93358   7.072   7.626   4.411
31039WAT     H193359   7.076   7.594   4.317
31039WAT     H293360   7.098   7.552   4.473
31040WAT      O93361   9.464   4.496   5.745
31040WAT     H193362   9.374   4.453   5.730
31040WAT     H293363   9.451   4.590   5.777
31041WAT      O93364   8.578   1.204   6.311
31041WAT     H193365   8.626   1.287   6.340
31041WAT     H293366   8.491   1.228   6.269
31042WAT      O93367   2.014   8.168   6.032
31042WAT     H193368   1.986   8.259   6.063
31042WAT     H293369   2.060   8.175   5.943
31043WAT      O93370   1.764   1.550   8.115
31043WAT     H193371   1.747   1.637   8.069
31043WAT     H293372   1.826   1.564   8.192
31044WAT      O93373   4.627   0.465   9.678
31044WAT     H193374   4.563   0.528   9.723
31044WAT     H293375   4.619   0.374   9.717
31045WAT      O93376   1.184   8.666   4.152
31045WAT     H193377   1.099   8.636   4.196
31045WAT     H293378   1.259   8.658   4.218
31046WAT      O93379   9.441   3.505   0.586
31046WAT     H193380   9.500   3.458   0.520
31046WAT     H293381   9.486   3.589   0.617
31047WAT      O93382   2.108   8.909   5.917
31047WAT     H193383   2.194   8.942   5.955
31047WAT     H293384   2.073   8.835   5.974
31048WAT      O93385   1.289   8.990   1.889
31048WAT     H193386   1.238   8.969   1.972
31048WAT     H293387   1.385   9.005   1.913
31049WAT      O93388   0.879   7.720   4.316
31049WAT     H193389   0.782   7.718   4.290
31049WAT     H293390   0.901   7.810   4.354
31050WAT      O93391   9.397   1.010   0.618
31050WAT     H193392   9.376   1.063   0.536
31050WAT     H293393   9.414   1.072   0.695
31051WAT      O93394   5.034   7.349   7.533
31051WAT     H193395   5.043   7.386   7.626
31051WAT     H293396   5.120   7.358   7.484
31052WAT      O93397   8.955   3.608   9.445
31052WAT     H193398   9.032   3.668   9.423
31052WAT     H293399   8.988   3.514   9.454
31053WAT      O93400   2.847   3.880   3.695
31053WAT     H193401   2.936   3.907   3.659
31053WAT     H293402   2.774   3.913   3.634
31054WAT      O93403   7.258   8.077   1.437
31054WAT     H193404   7.341   8.045   1.483
31054WAT     H293405   7.265   8.059   1.339
31055WAT      O93406   1.873   4.526   7.478
31055WAT     H193407   1.851   4.494   7.386
31055WAT     H293408   1.810   4.484   7.543
31056WAT      O93409   8.603   0.558   3.227
31056WAT     H193410   8.622   0.542   3.130
31056WAT     H293411   8.626   0.476   3.279
31057WAT      O93412   3.648   1.362   4.253
31057WAT     H193413   3.700   1.403   4.327
31057WAT     H293414   3.683   1.395   4.165
31058WAT      O93415   9.183   0.206   1.976
31058WAT     H193416   9.227   0.165   2.056
31058WAT     H293417   9.222   0.297   1.959
31059WAT      O93418   3.523   2.222   3.088
31059WAT     H193419   3.465   2.152   3.046
31059WAT     H293420   3.557   2.284   3.017
31060WAT      O93421   2.099   5.492   2.461
31060WAT     H193422   1.999   5.487   2.455
31060WAT     H293423   2.139   5.433   2.391
31061WAT      O93424   1.730   9.167   6.492
31061WAT     H193425   1.709   9.088   6.549
31061WAT     H293426   1.719   9.143   6.396
31062WAT      O93427   5.960   4.641   5.291
31062WAT     H193428   6.018   4.655   5.210
31062WAT     H293429   6.012   4.665   5.373
31063WAT      O93430   8.812   0.004   7.389
31063WAT     H193431   8.810   0.103   7.395
31063WAT     H293432   8.907  -0.028   7.386
31064WAT      O93433   9.415   0.847   9.824
31064WAT     H193434   9.353   0.801   9.887
31064WAT     H293435   9.396   0.945   9.825
31065WAT      O93436   3.676   7.673   3.720
31065WAT     H193437   3.601   7.736   3.702
31065WAT     H293438   3.697   7.673   3.818
31066WAT      O93439   5.971   2.468   8.243
31066WAT     H193440   5.907   2.531   8.199
31066WAT     H293441   6.053   2.459   8.186
31067WAT      O93442   7.342   9.530   0.721
31067WAT     H193443   7.357   9.529   0.622
31067WAT     H293444   7.298   9.616   0.747
31068WAT      O93445   7.923   4.165   8.594
31068WAT     H193446   7.904   4.247   8.540
31068WAT     H293447   7.960   4.093   8.535
31069WAT      O93448   1.022   4.811   7.297
31069WAT     H193449   1.121   4.797   7.291
31069WAT     H293450   0.985   4.757   7.372
31070WAT      O93451   6.737   9.766   4.918
31070WAT     H193452   6.712   9.783   5.013
31070WAT     H293453   6.702   9.839   4.860
31071WAT      O93454   2.012   0.590   2.518
31071WAT     H193455   1.999   0.633   2.429
31071WAT     H293456   2.110   0.578   2.535
31072WAT      O93457   3.202   5.707   5.073
31072WAT     H193458   3.256   5.790   5.086
31072WAT     H293459   3.156   5.684   5.159
31073WAT      O93460   8.680   0.417   1.954
31073WAT     H193461   8.691   0.516   1.949
31073WAT     H293462   8.768   0.373   1.935
31074WAT      O93463   5.578   7.550   2.254
31074WAT     H193464   5.676   7.537   2.271
31074WAT     H293465   5.557   7.525   2.159
31075WAT      O93466   0.496   0.469   1.199
31075WAT     H193467   0.505   0.433   1.106
31075WAT     H293468   0.584   0.506   1.229
31076WAT      O93469   0.984   4.559   9.698
31076WAT     H193470   0.885   4.546   9.689
31076WAT     H293471   1.006   4.656   9.684
31077WAT      O93472   4.331   2.416   5.938
31077WAT     H193473   4.303   2.438   6.031
31077WAT     H293474   4.357   2.500   5.891
31078WAT      O93475   4.145   2.702   8.811
31078WAT     H193476   4.102   2.792   8.816
31078WAT     H293477   4.075   2.631   8.814
31079WAT      O93478   5.402   4.185   4.664
31079WAT     H193479   5.353   4.253   4.610
31079WAT     H293480   5.341   4.146   4.733
31080WAT      O93481   6.494   0.923   3.139
31080WAT     H193482   6.417   0.931   3.202
31080WAT     H293483   6.545   0.840   3.159
31081WAT      O93484   6.884   6.478   3.460
31081WAT     H193485   6.791   6.513   3.474
31081WAT     H293486   6.889   6.382   3.488
31082WAT      O93487   1.767   2.058   8.769
31082WAT     H193488   1.746   2.135   8.830
31082WAT     H293489   1.827   1.994   8.816
31083WAT      O93490   5.617   7.063   8.953
31083WAT     H193491   5.533   7.089   8.906
31083WAT     H293492   5.627   6.964   8.953
31084WAT      O93493   3.801   2.355   0.038
31084WAT     H193494   3.886   2.369  -0.014
31084WAT     H293495   3.734   2.425   0.012
31085WAT      O93496   5.753   0.673   5.642
31085WAT     H193497   5.771   0.575   5.649
31085WAT     H293498   5.694   0.691   5.563
31086WAT      O93499   4.514   0.559   1.509
31086WAT     H193500   4.443   0.545   1.441
31086WAT     H293501   4.480   0.619   1.582
31087WAT      O93502   1.527   2.530   1.748
31087WAT     H193503   1.437   2.517   1.705
31087WAT     H293504   1.529   2.483   1.836
31088WAT      O93505   0.475   3.010   5.871
31088WAT     H193506   0.401   3.016   5.938
31088WAT     H293507   0.467   3.085   5.806
31089WAT      O93508   6.617   2.425   8.641
31089WAT     H193509   6.651   2.430   8.547
31089WAT     H293510   6.537   2.483   8.651
31090WAT      O93511   7.093   6.878   3.710
31090WAT     H193512   7.168   6.813   3.696
31090WAT     H293513   7.081   6.894   3.808
31091WAT      O93514   4.148   7.806   1.223
31091WAT     H193515   4.240   7.790   1.186
31091WAT     H293516   4.120   7.729   1.279
31092WAT      O93517   2.655   4.549   3.013
31092WAT     H193518   2.686   4.565   3.107
31092WAT     H293519   2.563   4.587   3.002
31093WAT      O93520   9.453   4.301   0.325
31093WAT     H193521   9.457   4.401   0.312
31093WAT     H293522   9.542   4.269   0.358
31094WAT      O93523   9.253   2.313   7.562
31094WAT     H193524   9.243   2.263   7.648
31094WAT     H293525   9.163   2.343   7.530
31095WAT      O93526   0.151   5.828   3.455
31095WAT     H193527   0.068   5.799   3.409
31095WAT     H293528   0.218   5.859   3.386
31096WAT      O93529   0.558   9.533   2.530
31096WAT     H193530   0.517   9.527   2.621
31096WAT     H293531   0.542   9.448   2.480
31097WAT      O93532   0.684   6.135   2.180
31097WAT     H193533   0.712   6.171   2.090
31097WAT     H293534   0.699   6.205   2.249
31098WAT      O93535   4.442   4.938   5.464
31098WAT     H193536   4.361   4.966   5.412
31098WAT     H293537   4.524   4.981   5.424
31099WAT      O93538   4.720   3.754   7.598
31099WAT     H193539   4.812   3.790   7.585
31099WAT     H293540   4.668   3.816   7.657
31100WAT      O93541   5.696   3.951   5.073
31100WAT     H193542   5.779   3.938   5.019
31100WAT     H293543   5.676   4.049   5.080
31101WAT      O93544   0.096   0.967   0.604
31101WAT     H193545   0.062   0.926   0.689
31101WAT     H293546   0.107   1.065   0.616
31102WAT      O93547   0.521   8.659   0.149
31102WAT     H193548   0.466   8.731   0.106
31102WAT     H293549   0.496   8.651   0.246
31103WAT      O93550   4.327   0.385   7.304
31103WAT     H193551   4.352   0.298   7.261
31103WAT     H293552   4.411   0.434   7.329
31104WAT      O93553   8.918   2.893   8.206
31104WAT     H193554   8.902   2.809   8.258
31104WAT     H293555   8.852   2.963   8.235
31105WAT      O93556   0.521   3.594   9.116
31105WAT     H193557   0.490   3.531   9.044
31105WAT     H293558   0.449   3.660   9.136
31106WAT      O93559   6.825   6.840   7.462
31106WAT     H193560   6.734   6.810   7.491
31106WAT     H293561   6.849   6.924   7.510
31107WAT      O93562   1.325   2.897   1.660
31107WAT     H193563   1.362   2.875   1.570
31107WAT     H293564   1.396   2.939   1.716
31108WAT      O93565   1.631   8.539   2.700
31108WAT     H193566   1.541   8.564   2.736
31108WAT     H293567   1.642   8.576   2.607
31109WAT      O93568   0.368   5.498   5.785
31109WAT     H193569   0.394   5.552   5.865
31109WAT     H293570   0.317   5.417   5.814
31110WAT      O93571   3.431   5.294   9.762
31110WAT     H193572   3.386   5.365   9.816
31110WAT     H293573   3.527   5.317   9.750
31111WAT      O93574   4.362   2.663   7.699
31111WAT     H193575   4.358   2.589   7.632
31111WAT     H293576   4.418   2.737   7.663
31112WAT      O93577   0.221   7.714   6.901
31112WAT     H193578   0.151   7.753   6.841
31112WAT     H293579   0.210   7.615   6.904
31113WAT      O93580   3.934   3.848   0.181
31113WAT     H193581   3.999   3.903   0.128
31113WAT     H293582   3.921   3.889   0.271
31114WAT      O93583   1.298   3.317   7.659
31114WAT     H193584   1.356   3.245   7.698
31114WAT     H293585   1.316   3.403   7.706
31115WAT      O93586   9.388   2.476   7.912
31115WAT     H193587   9.425   2.561   7.948
31115WAT     H293588   9.310   2.495   7.853
31116WAT      O93589   6.197   8.253   6.265
31116WAT     H193590   6.237   8.327   6.318
31116WAT     H293591   6.181   8.174   6.325
31117WAT      O93592   8.896   4.990   0.771
31117WAT     H193593   8.955   5.043   0.709
31117WAT     H293594   8.950   4.918   0.814
31118WAT      O93595   3.415   5.493   4.182
31118WAT     H193596   3.487   5.432   4.216
31118WAT     H293597   3.455   5.567   4.129
31119WAT      O93598   1.752   0.804   6.115
31119WAT     H193599   1.850   0.809   6.135
31119WAT     H293600   1.712   0.725   6.161
31120WAT      O93601   8.983   7.818   8.531
31120WAT     H193602   8.944   7.834   8.622
31120WAT     H293603   9.046   7.740   8.534
31121WAT      O93604   9.008   1.770   7.302
31121WAT     H193605   8.919   1.757   7.348
31121WAT     H293606   9.068   1.823   7.361
31122WAT      O93607   4.839   4.116   5.953
31122WAT     H193608   4.900   4.169   5.894
31122WAT     H293609   4.883   4.102   6.042
31123WAT      O93610   5.527   8.578   1.346
31123WAT     H193611   5.488   8.486   1.340
31123WAT     H293612   5.552   8.598   1.441
31124WAT      O93613   8.859   5.048   8.807
31124WAT     H193614   8.876   5.031   8.904
31124WAT     H293615   8.934   5.007   8.753
31125WAT      O93616   2.378   5.391   6.220
31125WAT     H193617   2.454   5.377   6.285
31125WAT     H293618   2.308   5.448   6.262
31126WAT      O93619   8.376   9.459   0.795
31126WAT     H193620   8.356   9.464   0.697
31126WAT     H293621   8.473   9.480   0.810
31127WAT      O93622   3.626   2.586   4.909
31127WAT     H193623   3.639   2.639   4.993
31127WAT     H293624   3.544   2.529   4.917
31128WAT      O93625   9.609   4.184   0.731
31128WAT     H193626   9.659   4.239   0.665
31128WAT     H293627   9.594   4.237   0.814
31129WAT      O93628   7.214   3.961   9.534
31129WAT     H193629   7.236   4.029   9.604
31129WAT     H293630   7.116   3.964   9.515
31130WAT      O93631   6.283   7.874   3.723
31130WAT     H193632   6.338   7.806   3.770
31130WAT     H293633   6.318   7.966   3.744
31131WAT      O93634   9.711   9.349   1.310
31131WAT     H193635   9.742   9.399   1.391
31131WAT     H293636   9.781   9.355   1.239
31132WAT      O93637   4.325   0.405   0.423
31132WAT     H193638   4.307   0.485   0.480
31132WAT     H293639   4.349   0.435   0.330
31133WAT      O93640   2.827   1.589   7.975
31133WAT     H193641   2.746   1.570   8.030
31133WAT     H293642   2.861   1.504   7.934
31134WAT      O93643   6.913   8.493   7.818
31134WAT     H193644   6.838   8.547   7.856
31134WAT     H293645   6.998   8.518   7.864
31135WAT      O93646   0.014   2.794   4.711
31135WAT     H193647   0.023   2.840   4.622
31135WAT     H293648   0.102   2.795   4.758
31136WAT      O93649   3.078   0.379   1.180
31136WAT     H193650   3.148   0.344   1.242
31136WAT     H293651   3.118   0.393   1.089
31137WAT      O93652   0.877   0.731   4.694
31137WAT     H193653   0.815   0.715   4.771
31137WAT     H293654   0.919   0.822   4.703
31138WAT      O93655   6.579   6.597   9.083
31138WAT     H193656   6.595   6.645   9.169
31138WAT     H293657   6.482   6.600   9.060
31139WAT      O93658   6.124   8.742   3.359
31139WAT     H193659   6.069   8.808   3.308
31139WAT     H293660   6.079   8.721   3.446
31140WAT      O93661   7.477   5.399   0.366
31140WAT     H193662   7.544   5.473   0.365
31140WAT     H293663   7.453   5.376   0.460
31141WAT      O93664   8.899   2.430   3.189
31141WAT     H193665   8.946   2.475   3.265
31141WAT     H293666   8.964   2.417   3.114
31142WAT      O93667   1.952   3.791   7.352
31142WAT     H193668   1.911   3.710   7.393
31142WAT     H293669   2.002   3.765   7.270
31143WAT      O93670   5.718   8.775   0.074
31143WAT     H193671   5.653   8.850   0.058
31143WAT     H293672   5.699   8.701   0.010
31144WAT      O93673   9.376   2.325   7.323
31144WAT     H193674   9.348   2.410   7.278
31144WAT     H293675   9.352   2.330   7.420
31145WAT      O93676   2.809   8.660   7.763
31145WAT     H193677   2.847   8.727   7.698
31145WAT     H293678   2.787   8.706   7.849
31146WAT      O93679   0.806   8.727   3.652
31146WAT     H193680   0.878   8.700   3.588
31146WAT     H293681   0.780   8.648   3.708
31147WAT      O93682   8.351   3.571   0.046
31147WAT     H193683   8.252   3.566   0.061
31147WAT     H293684   8.373   3.532  -0.043
31148WAT      O93685   9.375   0.716   2.740
31148WAT     H193686   9.442   0.786   2.714
31148WAT     H293687   9.356   0.722   2.838
31149WAT      O93688   2.008   6.563   2.113
31149WAT     H193689   2.039   6.656   2.136
31149WAT     H293690   2.017   6.549   2.015
31150WAT      O93691   8.482   0.943   0.184
31150WAT     H193692   8.417   0.987   0.122
31150WAT     H293693   8.454   0.849   0.200
31151WAT      O93694   1.481   7.707   4.745
31151WAT     H193695   1.495   7.806   4.753
31151WAT     H293696   1.456   7.685   4.651
31152WAT      O93697   7.213   2.854   5.382
31152WAT     H193698   7.209   2.835   5.284
31152WAT     H293699   7.244   2.948   5.396
31153WAT      O93700   4.001   8.848   7.677
31153WAT     H193701   4.074   8.898   7.724
31153WAT     H293702   3.931   8.912   7.646
31154WAT      O93703   5.063   0.131   1.179
31154WAT     H193704   5.076   0.105   1.274
31154WAT     H293705   5.146   0.112   1.127
31155WAT      O93706   3.706   3.107   7.901
31155WAT     H193707   3.608   3.104   7.923
31155WAT     H293708   3.739   3.014   7.885
31156WAT      O93709   0.299   8.925   0.594
31156WAT     H193710   0.205   8.902   0.566
31156WAT     H293711   0.316   9.022   0.574
31157WAT      O93712   4.952   0.753   4.716
31157WAT     H193713   4.903   0.738   4.630
31157WAT     H293714   4.926   0.682   4.781
31158WAT      O93715   3.691   9.157   8.770
31158WAT     H193716   3.636   9.225   8.819
31158WAT     H293717   3.643   9.070   8.768
31159WAT      O93718   0.292   4.134   6.911
31159WAT     H193719   0.326   4.210   6.855
31159WAT     H293720   0.274   4.166   7.004
31160WAT      O93721   6.421   5.088   9.084
31160WAT     H193722   6.395   5.183   9.070
31160WAT     H293723   6.358   5.028   9.034
31161WAT      O93724   8.607   9.184   6.949
31161WAT     H193725   8.703   9.173   6.975
31161WAT     H293726   8.568   9.263   6.996
31162WAT      O93727   1.401   2.307   7.306
31162WAT     H193728   1.324   2.291   7.246
31162WAT     H293729   1.385   2.391   7.358
31163WAT      O93730   6.551   7.276   5.260
31163WAT     H193731   6.561   7.179   5.236
31163WAT     H293732   6.485   7.284   5.335
31164WAT      O93733   3.855   8.290   3.979
31164WAT     H193734   3.940   8.343   3.982
31164WAT     H293735   3.849   8.241   3.893
31165WAT      O93736   7.985   9.088   4.959
31165WAT     H193737   7.911   9.152   4.939
31165WAT     H293738   8.073   9.137   4.958
31166WAT      O93739   0.533   6.842   9.462
31166WAT     H193740   0.453   6.896   9.436
31166WAT     H293741   0.566   6.873   9.551
31167WAT      O93742   7.757   6.980   8.387
31167WAT     H193743   7.738   6.893   8.434
31167WAT     H293744   7.741   6.968   8.289
31168WAT      O93745   0.101   4.869   8.999
31168WAT     H193746   0.053   4.821   8.926
31168WAT     H293747   0.079   4.826   9.087
31169WAT      O93748   1.818   9.813   7.934
31169WAT     H193749   1.760   9.845   7.859
31169WAT     H293750   1.851   9.892   7.986
31170WAT      O93751   2.228   7.523   8.616
31170WAT     H193752   2.182   7.607   8.645
31170WAT     H293753   2.161   7.457   8.584
31171WAT      O93754   3.801   6.539   3.226
31171WAT     H193755   3.742   6.619   3.227
31171WAT     H293756   3.808   6.503   3.133
31172WAT      O93757   0.172   9.430   7.767
31172WAT     H193758   0.123   9.421   7.853
31172WAT     H293759   0.266   9.399   7.779
31173WAT      O93760   8.934   8.055   5.613
31173WAT     H193761   8.863   8.024   5.677
31173WAT     H293762   8.935   7.994   5.533
31174WAT      O93763   5.281   5.818   8.356
31174WAT     H193764   5.209   5.774   8.301
31174WAT     H293765   5.245   5.837   8.448
31175WAT      O93766   7.435   1.971   1.589
31175WAT     H193767   7.406   2.037   1.520
31175WAT     H293768   7.355   1.921   1.623
31176WAT      O93769   9.085   8.833   7.097
31176WAT     H193770   9.150   8.802   7.028
31176WAT     H293771   9.099   8.782   7.181
31177WAT      O93772   3.352   1.561   8.180
31177WAT     H193773   3.401   1.592   8.099
31177WAT     H293774   3.254   1.577   8.169
31178WAT      O93775   2.486   9.577   8.301
31178WAT     H193776   2.428   9.629   8.238
31178WAT     H293777   2.505   9.487   8.262
31179WAT      O93778   4.503   0.641   4.289
31179WAT     H193779   4.514   0.542   4.302
31179WAT     H293780   4.451   0.679   4.365
31180WAT      O93781   0.213   1.866   5.040
31180WAT     H193782   0.122   1.906   5.046
31180WAT     H293783   0.210   1.787   4.979
31181WAT      O93784   7.212   7.530   2.561
31181WAT     H193785   7.121   7.517   2.522
31181WAT     H293786   7.212   7.609   2.622
31182WAT      O93787   6.450   3.973   6.160
31182WAT     H193788   6.427   3.931   6.072
31182WAT     H293789   6.419   3.913   6.234
31183WAT      O93790   1.872   3.922   1.705
31183WAT     H193791   1.965   3.923   1.669
31183WAT     H293792   1.812   3.972   1.644
31184WAT      O93793   8.548   9.421   5.512
31184WAT     H193794   8.585   9.502   5.557
31184WAT     H293795   8.466   9.446   5.460
31185WAT      O93796   2.745   9.491   3.756
31185WAT     H193797   2.764   9.504   3.853
31185WAT     H293798   2.753   9.580   3.709
31186WAT      O93799   6.380   2.467   2.954
31186WAT     H193800   6.408   2.372   2.963
31186WAT     H293801   6.455   2.522   2.917
31187WAT      O93802   1.875   2.786   2.180
31187WAT     H193803   1.955   2.820   2.230
31187WAT     H293804   1.825   2.862   2.140
31188WAT      O93805   9.315   7.890   9.579
31188WAT     H193806   9.400   7.896   9.527
31188WAT     H293807   9.335   7.900   9.676
31189WAT      O93808   8.265   1.551   8.868
31189WAT     H193809   8.178   1.556   8.915
31189WAT     H293810   8.287   1.456   8.847
31190WAT      O93811   5.447   6.924   0.723
31190WAT     H193812   5.413   7.005   0.674
31190WAT     H293813   5.391   6.844   0.698
31191WAT      O93814   5.004   1.499   8.650
31191WAT     H193815   5.082   1.472   8.705
31191WAT     H293816   5.034   1.523   8.557
31192WAT      O93817   6.505   6.319   5.339
31192WAT     H193818   6.457   6.279   5.261
31192WAT     H293819   6.476   6.272   5.423
31193WAT      O93820   7.103   7.520   3.594
31193WAT     H193821   7.158   7.469   3.527
31193WAT     H293822   7.020   7.554   3.550
31194WAT      O93823   8.365   8.637   0.909
31194WAT     H193824   8.388   8.603   0.818
31194WAT     H293825   8.296   8.710   0.900
31195WAT      O93826   4.891   8.513   4.726
31195WAT     H193827   4.897   8.517   4.627
31195WAT     H293828   4.904   8.419   4.757
31196WAT      O93829   2.067   4.992   3.296
31196WAT     H193830   2.052   4.903   3.338
31196WAT     H293831   2.007   5.060   3.337
31197WAT      O93832   1.322   3.849   7.628
31197WAT     H193833   1.339   3.813   7.537
31197WAT     H293834   1.301   3.947   7.622
31198WAT      O93835   5.428   7.514   0.154
31198WAT     H193836   5.377   7.429   0.165
31198WAT     H293837   5.525   7.493   0.141
31199WAT      O93838   0.459   7.503   5.961
31199WAT     H193839   0.368   7.521   5.999
31199WAT     H293840   0.524   7.568   5.999
31200WAT      O93841   0.145   2.604   8.601
31200WAT     H193842   0.103   2.653   8.524
31200WAT     H293843   0.223   2.551   8.568
31201WAT      O93844   3.047   1.302   3.534
31201WAT     H193845   3.017   1.298   3.629
31201WAT     H293846   3.114   1.375   3.523
31202WAT      O93847   3.891   3.025   5.685
31202WAT     H193848   3.799   3.007   5.722
31202WAT     H293849   3.900   3.122   5.664
31203WAT      O93850   4.699   6.843   9.858
31203WAT     H193851   4.628   6.827   9.789
31203WAT     H293852   4.677   6.926   9.909
31204WAT      O93853   5.373   3.059   3.971
31204WAT     H193854   5.408   2.980   4.021
31204WAT     H293855   5.329   3.028   3.887
31205WAT      O93856   3.062   5.427   7.314
31205WAT     H193857   3.143   5.442   7.256
31205WAT     H293858   3.090   5.386   7.400
31206WAT      O93859   9.191   9.581   2.269
31206WAT     H193860   9.261   9.622   2.327
31206WAT     H293861   9.102   9.620   2.293
31207WAT      O93862   8.262   7.388   5.922
31207WAT     H193863   8.163   7.382   5.914
31207WAT     H293864   8.290   7.484   5.928
31208WAT      O93865   4.378   2.741   9.766
31208WAT     H193866   4.453   2.680   9.743
31208WAT     H293867   4.325   2.761   9.683
31209WAT      O93868   2.378   2.943   5.435
31209WAT     H193869   2.366   2.988   5.347
31209WAT     H293870   2.346   3.003   5.508
31210WAT      O93871   4.767   8.133   7.454
31210WAT     H193872   4.845   8.098   7.402
31210WAT     H293873   4.753   8.230   7.433
31211WAT      O93874   8.116   3.268   5.402
31211WAT     H193875   8.061   3.329   5.344
31211WAT     H293876   8.066   3.247   5.485
31212WAT      O93877   2.839   0.533   2.138
31212WAT     H193878   2.764   0.481   2.181
31212WAT     H293879   2.874   0.481   2.060
31213WAT      O93880   6.022   1.424   6.925
31213WAT     H193881   5.930   1.417   6.964
31213WAT     H293882   6.023   1.382   6.835
31214WAT      O93883   8.125   8.965   7.619
31214WAT     H193884   8.062   9.010   7.555
31214WAT     H293885   8.098   8.870   7.630
31215WAT      O93886   9.119   7.012   8.119
31215WAT     H193887   9.149   6.917   8.106
31215WAT     H293888   9.133   7.038   8.215
31216WAT      O93889   8.254   5.827   5.485
31216WAT     H193890   8.164   5.859   5.517
31216WAT     H293891   8.278   5.743   5.533
31217WAT      O93892   0.532   5.649   6.420
31217WAT     H193893   0.580   5.727   6.458
31217WAT     H293894   0.580   5.616   6.338
31218WAT      O93895   1.327   7.501   5.045
31218WAT     H193896   1.347   7.597   5.026
31218WAT     H293897   1.360   7.477   5.136
31219WAT      O93898   4.804   5.422   3.217
31219WAT     H193899   4.715   5.463   3.200
31219WAT     H293900   4.853   5.476   3.286
31220WAT      O93901   3.163   6.515   7.948
31220WAT     H193902   3.173   6.495   8.046
31220WAT     H293903   3.230   6.462   7.896
31221WAT      O93904   3.060   7.061   2.105
31221WAT     H193905   2.978   7.096   2.150
31221WAT     H293906   3.141   7.093   2.153
31222WAT      O93907   5.901   4.666   3.922
31222WAT     H193908   5.843   4.674   3.840
31222WAT     H293909   5.953   4.750   3.935
31223WAT      O93910   8.244   1.725   3.688
31223WAT     H193911   8.338   1.693   3.673
31223WAT     H293912   8.203   1.673   3.762
31224WAT      O93913   4.604   0.740   9.555
31224WAT     H193914   4.684   0.747   9.494
31224WAT     H293915   4.620   0.795   9.637
31225WAT      O93916   3.612   4.764   7.956
31225WAT     H193917   3.619   4.669   7.986
31225WAT     H293918   3.564   4.767   7.868
31226WAT      O93919   7.624   8.213   5.147
31226WAT     H193920   7.565   8.208   5.067
31226WAT     H293921   7.579   8.167   5.224
31227WAT      O93922   9.333   1.827   6.234
31227WAT     H193923   9.405   1.803   6.299
31227WAT     H293924   9.371   1.829   6.141
31228WAT      O93925   7.788   0.085   8.356
31228WAT     H193926   7.853   0.080   8.280
31228WAT     H293927   7.768  -0.007   8.390
31229WAT      O93928   7.726   4.596   9.327
31229WAT     H193929   7.723   4.570   9.231
31229WAT     H293930   7.644   4.563   9.374
31230WAT      O93931   6.805   5.228   7.195
31230WAT     H193932   6.786   5.285   7.275
31230WAT     H293933   6.719   5.202   7.151
31231WAT      O93934   3.703   5.428   7.329
31231WAT     H193935   3.729   5.340   7.369
31231WAT     H293936   3.781   5.466   7.278
31232WAT      O93937   9.395   6.379   3.730
31232WAT     H193938   9.355   6.295   3.767
31232WAT     H293939   9.462   6.415   3.794
31233WAT      O93940   0.606   1.902   7.843
31233WAT     H193941   0.656   1.923   7.927
31233WAT     H293942   0.623   1.973   7.775
31234WAT      O93943   7.526   5.721   2.924
31234WAT     H193944   7.582   5.725   2.840
31234WAT     H293945   7.451   5.787   2.917
31235WAT      O93946   1.860   8.001   7.742
31235WAT     H193947   1.953   8.039   7.741
31235WAT     H293948   1.806   8.042   7.669
31236WAT      O93949   9.439   0.158   2.798
31236WAT     H193950   9.490   0.228   2.849
31236WAT     H293951   9.448   0.070   2.844
31237WAT      O93952   4.681   1.892   9.757
31237WAT     H193953   4.729   1.854   9.678
31237WAT     H293954   4.584   1.867   9.751
31238WAT      O93955   1.696   4.312   6.185
31238WAT     H193956   1.610   4.334   6.139
31238WAT     H293957   1.677   4.266   6.272
31239WAT      O93958   0.344   4.226   0.978
31239WAT     H193959   0.442   4.208   0.976
31239WAT     H293960   0.298   4.173   0.907
31240WAT      O93961   6.614   4.653   2.691
31240WAT     H193962   6.670   4.605   2.624
31240WAT     H293963   6.621   4.751   2.677
31241WAT      O93964   3.351   6.587   5.824
31241WAT     H193965   3.334   6.684   5.809
31241WAT     H293966   3.343   6.566   5.921
31242WAT      O93967   4.526   5.990   6.764
31242WAT     H193968   4.460   5.931   6.810
31242WAT     H293969   4.481   6.076   6.737
31243WAT      O93970   5.371   0.693   5.778
31243WAT     H193971   5.463   0.656   5.796
31243WAT     H293972   5.369   0.789   5.805
31244WAT      O93973   9.264   7.839   4.486
31244WAT     H193974   9.289   7.867   4.393
31244WAT     H293975   9.343   7.846   4.546
31245WAT      O93976   9.266   3.109   5.697
31245WAT     H193977   9.171   3.078   5.702
31245WAT     H293978   9.325   3.043   5.745
31246WAT      O93979   4.542   1.999   7.537
31246WAT     H193980   4.546   1.935   7.460
31246WAT     H293981   4.566   1.950   7.621
31247WAT      O93982   3.768   8.816   9.606
31247WAT     H193983   3.859   8.857   9.597
31247WAT     H293984   3.776   8.717   9.595
31248WAT      O93985   9.470   8.600   9.191
31248WAT     H193986   9.564   8.607   9.158
31248WAT     H293987   9.415   8.674   9.153
31249WAT      O93988   6.385   4.656   0.432
31249WAT     H193989   6.390   4.563   0.471
31249WAT     H293990   6.347   4.718   0.499
31250WAT      O93991   6.407   8.061   2.930
31250WAT     H193992   6.453   8.122   2.994
31250WAT     H293993   6.425   8.091   2.836
31251WAT      O93994   5.836   8.984   1.073
31251WAT     H193995   5.738   8.999   1.084
31251WAT     H293996   5.852   8.900   1.020
31252WAT      O93997   8.004   8.847   1.732
31252WAT     H193998   7.953   8.777   1.782
31252WAT     H293999   8.070   8.803   1.670
31253WAT      O94000   2.814   2.169   4.252
31253WAT     H194001   2.789   2.149   4.157
31253WAT     H294002   2.821   2.268   4.265
31254WAT      O94003   0.665   0.500   3.234
31254WAT     H194004   0.759   0.505   3.199
31254WAT     H294005   0.663   0.443   3.316
31255WAT      O94006   2.112   2.523   1.277
31255WAT     H194007   2.024   2.480   1.255
31255WAT     H294008   2.098   2.620   1.292
31256WAT      O94009   8.521   7.184   2.747
31256WAT     H194010   8.565   7.199   2.836
31256WAT     H294011   8.582   7.214   2.674
31257WAT      O94012   6.951   4.442   1.363
31257WAT     H194013   7.002   4.366   1.404
31257WAT     H294014   6.938   4.514   1.431
31258WAT      O94015   0.736   9.486   1.378
31258WAT     H194016   0.721   9.390   1.356
31258WAT     H294017   0.699   9.544   1.305
31259WAT      O94018   5.223   4.312   1.991
31259WAT     H194019   5.132   4.300   2.030
31259WAT     H294020   5.222   4.284   1.895
31260WAT      O94021   4.610   9.145   1.397
31260WAT     H194022   4.610   9.080   1.321
31260WAT     H294023   4.698   9.140   1.445
31261WAT      O94024   6.706   3.959   6.184
31261WAT     H194025   6.747   4.038   6.229
31261WAT     H294026   6.609   3.976   6.168
31262WAT      O94027   2.776   4.131   8.922
31262WAT     H194028   2.717   4.211   8.913
31262WAT     H294029   2.836   4.142   9.002
31263WAT      O94030   4.119   9.424   5.453
31263WAT     H194031   4.172   9.378   5.382
31263WAT     H294032   4.115   9.522   5.434
31264WAT      O94033   6.406   4.591   7.572
31264WAT     H194034   6.429   4.495   7.553
31264WAT     H294035   6.314   4.596   7.610
31265WAT      O94036   0.329   7.024   8.260
31265WAT     H194037   0.347   6.931   8.227
31265WAT     H294038   0.290   7.019   8.353
31266WAT      O94039   8.568   8.961   1.070
31266WAT     H194040   8.472   8.986   1.056
31266WAT     H294041   8.612   9.027   1.130
31267WAT      O94042   3.714   4.371   9.564
31267WAT     H194043   3.799   4.424   9.558
31267WAT     H294044   3.683   4.369   9.659
31268WAT      O94045   5.047   5.041   6.471
31268WAT     H194046   5.125   5.062   6.530
31268WAT     H294047   4.994   4.966   6.511
31269WAT      O94048   4.298   8.882   4.150
31269WAT     H194049   4.334   8.954   4.209
31269WAT     H294050   4.199   8.891   4.142
31270WAT      O94051   6.291   3.429   8.010
31270WAT     H194052   6.317   3.337   7.980
31270WAT     H294053   6.212   3.460   7.957
31271WAT      O94054   5.491   4.551   8.476
31271WAT     H194055   5.458   4.537   8.569
31271WAT     H294056   5.504   4.462   8.431
31272WAT      O94057   5.977   2.035   9.662
31272WAT     H194058   6.017   2.125   9.678
31272WAT     H294059   6.027   1.966   9.716
31273WAT      O94060   0.525   6.935   1.348
31273WAT     H194061   0.530   6.836   1.351
31273WAT     H294062   0.569   6.973   1.430
31274WAT      O94063   5.387   6.657   5.107
31274WAT     H194064   5.293   6.625   5.118
31274WAT     H294065   5.395   6.711   5.023
31275WAT      O94066   5.624   2.015   6.507
31275WAT     H194067   5.658   1.930   6.468
31275WAT     H294068   5.696   2.084   6.507
31276WAT      O94069   3.111   2.014   1.454
31276WAT     H194070   3.050   2.077   1.501
31276WAT     H294071   3.056   1.943   1.408
31277WAT      O94072   7.906   2.363   2.821
31277WAT     H194073   7.860   2.452   2.816
31277WAT     H294074   7.878   2.315   2.904
31278WAT      O94075   5.691   1.786   4.706
31278WAT     H194076   5.732   1.841   4.633
31278WAT     H294077   5.675   1.844   4.786
31279WAT      O94078   4.879   2.681   4.390
31279WAT     H194079   4.805   2.618   4.412
31279WAT     H294080   4.961   2.656   4.442
31280WAT      O94081   4.437   5.289   9.048
31280WAT     H194082   4.481   5.379   9.043
31280WAT     H294083   4.338   5.300   9.045
31281WAT      O94084   7.047   6.289   1.711
31281WAT     H194085   7.036   6.303   1.612
31281WAT     H294086   7.133   6.242   1.729
31282WAT      O94087   8.433   0.398   9.573
31282WAT     H194088   8.398   0.407   9.666
31282WAT     H294089   8.494   0.319   9.567
31283WAT      O94090   0.380   6.115   1.223
31283WAT     H194091   0.408   6.020   1.211
31283WAT     H294092   0.456   6.176   1.201
31284WAT      O94093   2.082   3.339   8.970
31284WAT     H194094   2.044   3.287   8.893
31284WAT     H294095   2.119   3.425   8.936
31285WAT      O94096   6.938   9.670   1.905
31285WAT     H194097   6.977   9.601   1.844
31285WAT     H294098   6.840   9.655   1.913
31286WAT      O94099   8.065   2.657   3.121
31286WAT     H194100   8.071   2.751   3.154
31286WAT     H294101   8.072   2.594   3.198
31287WAT      O94102   2.936   6.068   7.020
31287WAT     H194103   2.886   6.155   7.029
31287WAT     H294104   2.956   6.051   6.924
31288WAT      O94105   0.321   2.697   4.061
31288WAT     H194106   0.227   2.666   4.042
31288WAT     H294107   0.324   2.797   4.061
31289WAT      O94108   0.684   1.391   3.715
31289WAT     H194109   0.625   1.311   3.715
31289WAT     H294110   0.755   1.379   3.645
31290WAT      O94111   2.948   0.905   0.354
31290WAT     H194112   2.991   0.821   0.320
31290WAT     H294113   3.010   0.982   0.339
31291WAT      O94114   0.765   5.135   2.606
31291WAT     H194115   0.765   5.036   2.619
31291WAT     H294116   0.675   5.172   2.627
31292WAT      O94117   7.954   9.143   0.428
31292WAT     H194118   7.857   9.150   0.407
31292WAT     H294119   7.965   9.107   0.520
31293WAT      O94120   1.765   7.849   7.433
31293WAT     H194121   1.789   7.873   7.339
31293WAT     H294122   1.798   7.920   7.495
31294WAT      O94123   2.398   3.227   4.758
31294WAT     H194124   2.421   3.152   4.819
31294WAT     H294125   2.410   3.314   4.806
31295WAT      O94126   2.437   4.650   8.506
31295WAT     H194127   2.465   4.595   8.427
31295WAT     H294128   2.510   4.650   8.574
31296WAT      O94129   6.504   5.822   1.685
31296WAT     H194130   6.505   5.819   1.585
31296WAT     H294131   6.446   5.898   1.716
31297WAT      O94132   9.637   1.768   1.944
31297WAT     H194133   9.734   1.778   1.922
31297WAT     H294134   9.582   1.814   1.875
31298WAT      O94135   8.368   0.765   7.901
31298WAT     H194136   8.459   0.728   7.882
31298WAT     H294137   8.298   0.700   7.872
31299WAT      O94138   5.355   2.355   0.352
31299WAT     H194139   5.428   2.398   0.299
31299WAT     H294140   5.323   2.272   0.305
31300WAT      O94141   7.608   0.723   8.404
31300WAT     H194142   7.515   0.759   8.400
31300WAT     H294143   7.648   0.745   8.493
31301WAT      O94144   5.180   8.603   0.721
31301WAT     H194145   5.150   8.679   0.664
31301WAT     H294146   5.277   8.613   0.743
31302WAT      O94147   8.940   3.212   4.812
31302WAT     H194148   9.007   3.144   4.783
31302WAT     H294149   8.895   3.181   4.896
31303WAT      O94150   6.679   9.087   8.814
31303WAT     H194151   6.678   9.147   8.893
31303WAT     H294152   6.757   9.111   8.755
31304WAT      O94153   3.552   7.025   3.403
31304WAT     H194154   3.634   7.081   3.402
31304WAT     H294155   3.576   6.931   3.427
31305WAT      O94156   1.139   8.921   4.851
31305WAT     H194157   1.182   8.858   4.915
31305WAT     H294158   1.062   8.967   4.896
31306WAT      O94159   6.353   6.914   3.264
31306WAT     H194160   6.438   6.885   3.309
31306WAT     H294161   6.314   6.992   3.313
31307WAT      O94162   1.032   7.909   1.971
31307WAT     H194163   1.068   7.851   1.898
31307WAT     H294164   1.033   8.005   1.940
31308WAT      O94165   1.530   7.186   0.042
31308WAT     H194166   1.542   7.258   0.111
31308WAT     H294167   1.436   7.189   0.007
31309WAT      O94168   8.688   6.801   9.401
31309WAT     H194169   8.784   6.827   9.409
31309WAT     H294170   8.666   6.731   9.468
31310WAT      O94171   6.636   6.847   3.333
31310WAT     H194172   6.716   6.882   3.382
31310WAT     H294173   6.664   6.813   3.243
31311WAT      O94174   5.675   7.458   5.911
31311WAT     H194175   5.584   7.487   5.938
31311WAT     H294176   5.729   7.538   5.884
31312WAT      O94177   2.872   0.966   7.826
31312WAT     H194178   2.882   1.057   7.785
31312WAT     H294179   2.793   0.966   7.887
31313WAT      O94180   0.444   9.483   1.023
31313WAT     H194181   0.425   9.387   1.001
31313WAT     H294182   0.425   9.540   0.943
31314WAT      O94183   4.407   5.694   3.073
31314WAT     H194184   4.384   5.774   3.016
31314WAT     H294185   4.378   5.611   3.026
31315WAT      O94186   1.136   7.259   8.813
31315WAT     H194187   1.161   7.168   8.846
31315WAT     H294188   1.080   7.251   8.730
31316WAT      O94189   4.954   3.484   4.075
31316WAT     H194190   4.887   3.557   4.073
31316WAT     H294191   4.987   3.471   4.169
31317WAT      O94192   2.895   7.635   7.740
31317WAT     H194193   2.962   7.609   7.670
31317WAT     H294194   2.803   7.632   7.700
31318WAT      O94195   3.615   5.513   9.186
31318WAT     H194196   3.570   5.596   9.219
31318WAT     H294197   3.581   5.491   9.095
31319WAT      O94198   8.480   8.844   5.331
31319WAT     H194199   8.499   8.806   5.241
31319WAT     H294200   8.438   8.773   5.389
31320WAT      O94201   4.527   1.921   6.438
31320WAT     H194202   4.578   1.893   6.519
31320WAT     H294203   4.432   1.891   6.447
31321WAT      O94204   1.311   5.121   7.192
31321WAT     H194205   1.301   5.025   7.220
31321WAT     H294206   1.402   5.136   7.156
31322WAT      O94207   3.582   1.624   0.483
31322WAT     H194208   3.634   1.681   0.547
31322WAT     H294209   3.485   1.649   0.488
31323WAT      O94210   6.970   6.956   2.666
31323WAT     H194211   7.061   6.964   2.624
31323WAT     H294212   6.923   7.044   2.659
31324WAT      O94213   8.024   4.973   6.131
31324WAT     H194214   8.018   5.049   6.195
31324WAT     H294215   8.072   4.897   6.174
31325WAT      O94216   2.382   4.423   0.340
31325WAT     H194217   2.415   4.464   0.255
31325WAT     H294218   2.293   4.462   0.363
31326WAT      O94219   6.367   4.011   8.486
31326WAT     H194220   6.337   4.105   8.468
31326WAT     H294221   6.377   3.963   8.400
31327WAT      O94222   1.913   3.433   3.982
31327WAT     H194223   1.814   3.436   3.986
31327WAT     H294224   1.943   3.337   3.981
31328WAT      O94225   0.998   7.845   6.891
31328WAT     H194226   0.936   7.898   6.949
31328WAT     H294227   0.948   7.811   6.811
31329WAT      O94228   5.258   2.582   9.488
31329WAT     H194229   5.255   2.530   9.573
31329WAT     H294230   5.175   2.565   9.435
31330WAT      O94231   5.477   9.747   4.314
31330WAT     H194232   5.526   9.804   4.248
31330WAT     H294233   5.514   9.763   4.406
31331WAT      O94234   8.896   1.433   3.363
31331WAT     H194235   8.979   1.387   3.329
31331WAT     H294236   8.904   1.531   3.344
31332WAT      O94237   2.046   6.918   2.045
31332WAT     H194238   2.002   6.876   1.966
31332WAT     H294239   2.144   6.900   2.043
31333WAT      O94240   0.089   4.742   5.050
31333WAT     H194241   0.142   4.820   5.017
31333WAT     H294242   0.139   4.697   5.124
31334WAT      O94243   3.363   3.651   6.987
31334WAT     H194244   3.301   3.728   7.002
31334WAT     H294245   3.376   3.637   6.889
31335WAT      O94246   7.647   5.107   0.740
31335WAT     H194247   7.562   5.159   0.727
31335WAT     H294248   7.634   5.014   0.706
31336WAT      O94249   3.177   5.769   3.700
31336WAT     H194250   3.096   5.711   3.711
31336WAT     H294251   3.236   5.731   3.628
31337WAT      O94252   9.863   8.958   2.963
31337WAT     H194253   9.918   8.913   2.892
31337WAT     H294254   9.884   8.918   3.052
31338WAT      O94255   8.915   0.046   9.062
31338WAT     H194256   8.832   0.101   9.061
31338WAT     H294257   8.989   0.097   9.017
31339WAT      O94258   9.470   3.826   5.034
31339WAT     H194259   9.446   3.806   4.939
31339WAT     H294260   9.508   3.745   5.077
31340WAT      O94261   7.796   2.904   0.446
31340WAT     H194262   7.808   2.979   0.510
31340WAT     H294263   7.699   2.883   0.437
31341WAT      O94264   2.668   0.580   1.670
31341WAT     H194265   2.746   0.623   1.624
31341WAT     H294266   2.604   0.545   1.601
31342WAT      O94267   4.325   0.631   3.533
31342WAT     H194268   4.258   0.649   3.461
31342WAT     H294269   4.413   0.609   3.492
31343WAT      O94270   3.840   6.210   7.967
31343WAT     H194271   3.906   6.189   7.895
31343WAT     H294272   3.877   6.181   8.055
31344WAT      O94273   6.264   0.517   0.754
31344WAT     H194274   6.363   0.528   0.758
31344WAT     H294275   6.222   0.602   0.721
31345WAT      O94276   9.698   0.970   4.386
31345WAT     H194277   9.771   0.912   4.424
31345WAT     H294278   9.731   1.013   4.302
31346WAT      O94279   0.840   3.181   3.837
31346WAT     H194280   0.751   3.150   3.871
31346WAT     H294281   0.891   3.224   3.912
31347WAT      O94282   5.835   5.098   2.245
31347WAT     H194283   5.823   5.010   2.199
31347WAT     H294284   5.933   5.118   2.253
31348WAT      O94285   6.630   5.439   2.922
31348WAT     H194286   6.597   5.420   3.015
31348WAT     H294287   6.728   5.422   2.917
31349WAT      O94288   2.608   5.193   3.691
31349WAT     H194289   2.647   5.285   3.694
31349WAT     H294290   2.653   5.134   3.757
31350WAT      O94291   0.466   0.879   0.562
31350WAT     H194292   0.379   0.833   0.576
31350WAT     H294293   0.540   0.812   0.566
31351WAT      O94294   4.656   1.879   7.771
31351WAT     H194295   4.742   1.913   7.809
31351WAT     H294296   4.642   1.784   7.801
31352WAT      O94297   5.649   8.268   7.648
31352WAT     H194298   5.714   8.224   7.710
31352WAT     H294299   5.647   8.218   7.561
31353WAT      O94300   1.174   8.014   9.312
31353WAT     H194301   1.193   7.952   9.236
31353WAT     H294302   1.121   8.092   9.280
31354WAT      O94303   2.963   1.260   1.036
31354WAT     H194304   2.888   1.217   1.085
31354WAT     H294305   2.975   1.216   0.947
31355WAT      O94306   4.885   7.629   6.753
31355WAT     H194307   4.864   7.563   6.825
31355WAT     H294308   4.800   7.659   6.710
31356WAT      O94309   6.105   1.788   3.265
31356WAT     H194310   6.197   1.786   3.226
31356WAT     H294311   6.038   1.767   3.193
31357WAT      O94312   1.223   4.863   3.710
31357WAT     H194313   1.151   4.922   3.748
31357WAT     H294314   1.185   4.806   3.638
31358WAT      O94315   6.198   1.833   9.089
31358WAT     H194316   6.142   1.811   9.009
31358WAT     H294317   6.142   1.828   9.171
31359WAT      O94318   2.533   5.510   9.859
31359WAT     H194319   2.580   5.438   9.910
31359WAT     H294320   2.598   5.557   9.800
31360WAT      O94321   0.703   5.573   5.031
31360WAT     H194322   0.668   5.481   5.014
31360WAT     H294323   0.766   5.571   5.109
31361WAT      O94324   0.125   7.358   0.986
31361WAT     H194325   0.157   7.444   1.026
31361WAT     H294326   0.181   7.336   0.906
31362WAT      O94327   7.925   6.038   7.860
31362WAT     H194328   7.970   6.040   7.771
31362WAT     H294329   7.976   6.096   7.924
31363WAT      O94330   1.147   5.568   6.475
31363WAT     H194331   1.050   5.543   6.467
31363WAT     H294332   1.186   5.579   6.383
31364WAT      O94333   6.344   9.253   4.917
31364WAT     H194334   6.385   9.327   4.863
31364WAT     H294335   6.313   9.180   4.855
31365WAT      O94336   8.272   0.798   4.334
31365WAT     H194337   8.261   0.699   4.348
31365WAT     H294338   8.284   0.817   4.237
31366WAT      O94339   3.866   9.804   8.059
31366WAT     H194340   3.961   9.797   8.091
31366WAT     H294341   3.828   9.893   8.084
31367WAT      O94342   4.968   0.385   1.291
31367WAT     H194343   4.907   0.386   1.371
31367WAT     H294344   5.032   0.309   1.299
31368WAT      O94345   6.402   1.961   5.066
31368WAT     H194346   6.355   1.973   4.978
31368WAT     H294347   6.453   2.045   5.087
31369WAT      O94348   6.173   3.891   4.061
31369WAT     H194349   6.166   3.870   3.963
31369WAT     H294350   6.144   3.813   4.115
31370WAT      O94351   2.528   8.990   2.825
31370WAT     H194352   2.583   9.002   2.742
31370WAT     H294353   2.511   8.893   2.840
31371WAT      O94354   1.803   4.042   1.949
31371WAT     H194355   1.871   4.115   1.947
31371WAT     H294356   1.826   3.974   1.879
31372WAT      O94357   1.024   8.332   9.638
31372WAT     H194358   1.048   8.395   9.563
31372WAT     H294359   0.980   8.250   9.600
31373WAT      O94360   7.821   6.756   8.550
31373WAT     H194361   7.866   6.735   8.463
31373WAT     H294362   7.873   6.715   8.625
31374WAT      O94363   9.708   5.980   8.222
31374WAT     H194364   9.735   6.053   8.286
31374WAT     H294365   9.770   5.979   8.144
31375WAT      O94366   7.087   7.690   2.777
31375WAT     H194367   7.124   7.775   2.739
31375WAT     H294368   7.020   7.711   2.848
31376WAT      O94369   0.438   6.252   6.415
31376WAT     H194370   0.404   6.193   6.489
31376WAT     H294371   0.373   6.250   6.339
31377WAT      O94372   1.452   7.194   9.299
31377WAT     H194373   1.458   7.117   9.362
31377WAT     H294374   1.462   7.161   9.205
31378WAT      O94375   3.466   8.584   2.555
31378WAT     H194376   3.535   8.656   2.559
31378WAT     H294377   3.456   8.542   2.646
31379WAT      O94378   0.207   7.529   2.310
31379WAT     H194379   0.272   7.479   2.368
31379WAT     H294380   0.257   7.591   2.250
31380WAT      O94381   5.374   3.702   2.018
31380WAT     H194382   5.435   3.676   2.093
31380WAT     H294383   5.312   3.774   2.049
31381WAT      O94384   0.178   3.614   9.309
31381WAT     H194385   0.079   3.631   9.309
31381WAT     H294386   0.200   3.543   9.242
31382WAT      O94387   8.018   7.658   7.604
31382WAT     H194388   7.998   7.593   7.530
31382WAT     H294389   8.117   7.671   7.611
31383WAT      O94390   3.633   5.364   4.319
31383WAT     H194391   3.597   5.426   4.390
31383WAT     H294392   3.733   5.370   4.318
31384WAT      O94393   5.384   5.922   5.739
31384WAT     H194394   5.478   5.889   5.738
31384WAT     H294395   5.377   6.003   5.798
31385WAT      O94396   7.718   7.674   8.736
31385WAT     H194397   7.817   7.678   8.728
31385WAT     H294398   7.684   7.759   8.775
31386WAT      O94399   1.431   8.995   0.249
31386WAT     H194400   1.426   8.899   0.221
31386WAT     H294401   1.527   9.025   0.249
31387WAT      O94402   9.754   0.880   9.293
31387WAT     H194403   9.781   0.940   9.218
31387WAT     H294404   9.724   0.936   9.371
31388WAT      O94405   7.960   3.359   1.008
31388WAT     H194406   7.905   3.282   0.976
31388WAT     H294407   7.952   3.435   0.942
31389WAT      O94408   3.933   9.391   7.371
31389WAT     H194409   3.934   9.444   7.286
31389WAT     H294410   3.841   9.354   7.386
31390WAT      O94411   1.582   7.636   0.749
31390WAT     H194412   1.659   7.697   0.731
31390WAT     H294413   1.497   7.685   0.734
31391WAT      O94414   0.457   7.040   1.115
31391WAT     H194415   0.491   7.010   1.204
31391WAT     H294416   0.363   7.009   1.104
31392WAT      O94417   5.239   2.684   9.125
31392WAT     H194418   5.222   2.591   9.092
31392WAT     H294419   5.331   2.689   9.164
31393WAT      O94420   0.804   0.580   2.205
31393WAT     H194421   0.838   0.659   2.256
31393WAT     H294422   0.772   0.609   2.115
31394WAT      O94423   3.711   4.224   4.749
31394WAT     H194424   3.636   4.174   4.706
31394WAT     H294425   3.797   4.198   4.706
31395WAT      O94426   7.376   5.287   8.411
31395WAT     H194427   7.392   5.282   8.510
31395WAT     H294428   7.463   5.273   8.363
31396WAT      O94429   9.262   5.585   7.031
31396WAT     H194430   9.344   5.630   7.068
31396WAT     H294431   9.257   5.492   7.066
31397WAT      O94432   8.229   3.335   9.464
31397WAT     H194433   8.250   3.305   9.557
31397WAT     H294434   8.200   3.431   9.465
31398WAT      O94435   4.702   0.157   7.474
31398WAT     H194436   4.650   0.080   7.437
31398WAT     H294437   4.759   0.196   7.401
31399WAT      O94438   4.226   3.194   4.184
31399WAT     H194439   4.233   3.209   4.085
31399WAT     H294440   4.242   3.097   4.203
31400WAT      O94441   0.477   8.726   3.614
31400WAT     H194442   0.522   8.779   3.686
31400WAT     H294443   0.381   8.714   3.637
31401WAT      O94444   0.626   9.822   0.265
31401WAT     H194445   0.684   9.779   0.335
31401WAT     H294446   0.587   9.751   0.206
31402WAT      O94447   0.936   9.028   3.128
31402WAT     H194448   0.927   9.118   3.087
31402WAT     H294449   0.999   8.972   3.074
31403WAT      O94450   4.400   8.266   3.816
31403WAT     H194451   4.347   8.268   3.901
31403WAT     H294452   4.351   8.316   3.745
31404WAT      O94453   5.629   5.683   4.009
31404WAT     H194454   5.708   5.711   3.954
31404WAT     H294455   5.659   5.620   4.080
31405WAT      O94456   9.445   3.197   5.467
31405WAT     H194457   9.540   3.199   5.496
31405WAT     H294458   9.387   3.170   5.544
31406WAT      O94459   1.328   7.861   6.432
31406WAT     H194460   1.262   7.804   6.480
31406WAT     H294461   1.321   7.956   6.465
31407WAT      O94462   2.579   7.562   0.086
31407WAT     H194463   2.524   7.480   0.071
31407WAT     H294464   2.553   7.632   0.020
31408WAT      O94465   5.462   5.711   2.450
31408WAT     H194466   5.412   5.777   2.392
31408WAT     H294467   5.560   5.732   2.447
31409WAT      O94468   1.401   1.754   7.042
31409WAT     H194469   1.306   1.727   7.059
31409WAT     H294470   1.440   1.697   6.969
31410WAT      O94471   6.148   6.458   2.439
31410WAT     H194472   6.129   6.553   2.414
31410WAT     H294473   6.240   6.434   2.408
31411WAT      O94474   0.645   4.796   4.157
31411WAT     H194475   0.695   4.799   4.243
31411WAT     H294476   0.547   4.792   4.176
31412WAT      O94477   8.477   4.162   4.512
31412WAT     H194478   8.465   4.064   4.530
31412WAT     H294479   8.516   4.173   4.420
31413WAT      O94480   2.226   0.242   2.299
31413WAT     H194481   2.181   0.317   2.250
31413WAT     H294482   2.291   0.280   2.365
31414WAT      O94483   4.326   9.114   9.661
31414WAT     H194484   4.404   9.056   9.640
31414WAT     H294485   4.354   9.188   9.721
31415WAT      O94486   3.500   8.770   0.889
31415WAT     H194487   3.537   8.807   0.974
31415WAT     H294488   3.426   8.706   0.910
31416WAT      O94489   1.014   1.896   5.045
31416WAT     H194490   0.917   1.874   5.051
31416WAT     H294491   1.054   1.849   4.966
31417WAT      O94492   0.285   9.259   3.274
31417WAT     H194493   0.281   9.160   3.260
31417WAT     H294494   0.195   9.299   3.256
31418WAT      O94495   3.406   3.609   9.147
31418WAT     H194496   3.397   3.641   9.242
31418WAT     H294497   3.480   3.660   9.103
31419WAT      O94498   4.655   4.947   7.769
31419WAT     H194499   4.751   4.966   7.747
31419WAT     H294500   4.645   4.939   7.868
31420WAT      O94501   0.221   9.301   5.947
31420WAT     H194502   0.181   9.385   5.910
31420WAT     H294503   0.149   9.248   5.992
31421WAT      O94504   4.847   7.437   0.186
31421WAT     H194505   4.830   7.499   0.110
31421WAT     H294506   4.768   7.436   0.247
31422WAT      O94507   8.687   0.217   8.584
31422WAT     H194508   8.724   0.125   8.592
31422WAT     H294509   8.701   0.266   8.670
31423WAT      O94510   8.483   6.681   1.949
31423WAT     H194511   8.427   6.598   1.945
31423WAT     H294512   8.529   6.686   2.038
31424WAT      O94513   4.306   5.619   3.916
31424WAT     H194514   4.253   5.680   3.857
31424WAT     H294515   4.404   5.631   3.897
31425WAT      O94516   4.847   6.589   5.458
31425WAT     H194517   4.776   6.589   5.528
31425WAT     H294518   4.889   6.679   5.453
31426WAT      O94519   3.696   9.263   0.779
31426WAT     H194520   3.617   9.234   0.724
31426WAT     H294521   3.694   9.362   0.789
31427WAT      O94522   7.030   3.723   2.506
31427WAT     H194523   6.955   3.705   2.569
31427WAT     H294524   7.042   3.645   2.445
31428WAT      O94525   7.253   1.499   5.043
31428WAT     H194526   7.313   1.509   5.123
31428WAT     H294527   7.221   1.405   5.037
31429WAT      O94528   4.355   5.537   3.429
31429WAT     H194529   4.355   5.503   3.523
31429WAT     H294530   4.326   5.633   3.428
31430WAT      O94531   0.413   6.114   4.150
31430WAT     H194532   0.413   6.136   4.053
31430WAT     H294533   0.460   6.186   4.201
31431WAT      O94534   0.458   1.224   3.209
31431WAT     H194535   0.470   1.300   3.145
31431WAT     H294536   0.410   1.149   3.164
31432WAT      O94537   7.254   1.073   8.060
31432WAT     H194538   7.230   1.112   7.971
31432WAT     H294539   7.283   1.146   8.122
31433WAT      O94540   4.161   0.835   4.214
31433WAT     H194541   4.169   0.790   4.303
31433WAT     H294542   4.245   0.886   4.195
31434WAT      O94543   3.662   8.935   2.990
31434WAT     H194544   3.691   8.872   2.919
31434WAT     H294545   3.706   9.024   2.976
31435WAT      O94546   6.437   0.320   5.993
31435WAT     H194547   6.414   0.264   5.914
31435WAT     H294548   6.454   0.261   6.072
31436WAT      O94549   2.155   8.601   3.239
31436WAT     H194550   2.069   8.561   3.207
31436WAT     H294551   2.137   8.661   3.317
31437WAT      O94552   0.752   4.551   5.465
31437WAT     H194553   0.660   4.591   5.458
31437WAT     H294554   0.819   4.612   5.423
31438WAT      O94555   2.037   7.638   1.977
31438WAT     H194556   2.100   7.562   1.959
31438WAT     H294557   1.947   7.601   2.002
31439WAT      O94558   6.503   5.857   8.895
31439WAT     H194559   6.488   5.772   8.946
31439WAT     H294560   6.430   5.869   8.828
31440WAT      O94561   9.448   9.766   5.476
31440WAT     H194562   9.485   9.803   5.561
31440WAT     H294563   9.467   9.668   5.471
31441WAT      O94564   0.758   2.011   8.033
31441WAT     H194565   0.771   2.110   8.021
31441WAT     H294566   0.744   1.991   8.130
31442WAT      O94567   6.426   3.284   5.860
31442WAT     H194568   6.459   3.240   5.943
31442WAT     H294569   6.387   3.215   5.799
31443WAT      O94570   5.679   5.698   2.904
31443WAT     H194571   5.745   5.731   2.972
31443WAT     H294572   5.657   5.771   2.840
31444WAT      O94573   7.054   5.241   4.813
31444WAT     H194574   6.977   5.183   4.841
31444WAT     H294575   7.045   5.264   4.716
31445WAT      O94576   0.769   0.715   2.887
31445WAT     H194577   0.831   0.656   2.835
31445WAT     H294578   0.696   0.659   2.926
31446WAT      O94579   2.694   0.701   3.767
31446WAT     H194580   2.794   0.692   3.758
31446WAT     H294581   2.671   0.711   3.864
31447WAT      O94582   7.225   9.236   0.060
31447WAT     H194583   7.319   9.246   0.091
31447WAT     H294584   7.171   9.314   0.091
31448WAT      O94585   2.209   3.652   0.284
31448WAT     H194586   2.267   3.720   0.329
31448WAT     H294587   2.184   3.683   0.193
31449WAT      O94588   0.138   0.462   5.357
31449WAT     H194589   0.200   0.505   5.422
31449WAT     H294590   0.191   0.430   5.278
31450WAT      O94591   2.225   2.955   2.956
31450WAT     H194592   2.188   2.944   2.863
31450WAT     H294593   2.287   2.880   2.976
31451WAT      O94594   1.536   4.680   4.202
31451WAT     H194595   1.635   4.683   4.191
31451WAT     H294596   1.512   4.622   4.280
31452WAT      O94597   0.561   6.284   5.142
31452WAT     H194598   0.528   6.194   5.173
31452WAT     H294599   0.511   6.356   5.189
31453WAT      O94600   7.269   6.911   7.221
31453WAT     H194601   7.209   6.836   7.194
31453WAT     H294602   7.363   6.877   7.228
31454WAT      O94603   8.631   3.861   3.802
31454WAT     H194604   8.573   3.883   3.724
31454WAT     H294605   8.596   3.908   3.884
31455WAT      O94606   5.521   4.435   0.352
31455WAT     H194607   5.494   4.349   0.395
31455WAT     H294608   5.526   4.507   0.422
31456WAT      O94609   9.183   6.361   5.987
31456WAT     H194610   9.123   6.333   6.062
31456WAT     H294611   9.132   6.354   5.901
31457WAT      O94612   9.751   0.311   6.554
31457WAT     H194613   9.816   0.385   6.571
31457WAT     H294614   9.695   0.297   6.635
31458WAT      O94615   2.666   7.205   9.602
31458WAT     H194616   2.729   7.127   9.611
31458WAT     H294617   2.714   7.289   9.626
31459WAT      O94618   2.403   7.170   8.975
31459WAT     H194619   2.357   7.246   8.929
31459WAT     H294620   2.445   7.110   8.907
31460WAT      O94621   8.836   1.602   1.897
31460WAT     H194622   8.754   1.546   1.882
31460WAT     H294623   8.813   1.698   1.888
31461WAT      O94624   4.124   7.588   0.479
31461WAT     H194625   4.201   7.573   0.541
31461WAT     H294626   4.071   7.667   0.511
31462WAT      O94627   6.522   2.945   7.189
31462WAT     H194628   6.460   2.867   7.194
31462WAT     H294629   6.532   2.986   7.280
31463WAT      O94630   5.932   0.527   1.545
31463WAT     H194631   5.900   0.517   1.451
31463WAT     H294632   6.021   0.572   1.546
31464WAT      O94633   7.937   6.820   4.270
31464WAT     H194634   7.842   6.833   4.296
31464WAT     H294635   7.943   6.756   4.193
31465WAT      O94636   6.480   8.885   8.358
31465WAT     H194637   6.454   8.789   8.354
31465WAT     H294638   6.457   8.922   8.448
31466WAT      O94639   6.204   8.452   4.604
31466WAT     H194640   6.197   8.367   4.656
31466WAT     H294641   6.202   8.432   4.507
31467WAT      O94642   7.284   6.210   0.133
31467WAT     H194643   7.209   6.266   0.166
31467WAT     H294644   7.361   6.215   0.197
31468WAT      O94645   6.906   5.154   6.514
31468WAT     H194646   6.858   5.200   6.440
31468WAT     H294647   6.845   5.149   6.594
31469WAT      O94648   7.911   9.132   5.216
31469WAT     H194649   7.833   9.071   5.229
31469WAT     H294650   7.936   9.133   5.120
31470WAT      O94651   3.471   3.020   0.193
31470WAT     H194652   3.459   3.050   0.288
31470WAT     H294653   3.568   3.016   0.171
31471WAT      O94654   0.940   0.377   1.404
31471WAT     H194655   1.002   0.455   1.409
31471WAT     H294656   0.986   0.300   1.360
31472WAT      O94657   7.381   6.332   6.777
31472WAT     H194658   7.478   6.313   6.759
31472WAT     H294659   7.342   6.257   6.831
31473WAT      O94660   7.815   7.302   5.149
31473WAT     H194661   7.898   7.336   5.192
31473WAT     H294662   7.806   7.204   5.166
31474WAT      O94663   4.743   4.365   6.324
31474WAT     H194664   4.671   4.351   6.256
31474WAT     H294665   4.705   4.414   6.403
31475WAT      O94666   4.564   5.646   5.613
31475WAT     H194667   4.489   5.709   5.591
31475WAT     H294668   4.527   5.560   5.647
31476WAT      O94669   7.313   4.090   2.962
31476WAT     H194670   7.328   4.186   2.940
31476WAT     H294671   7.358   4.033   2.893
31477WAT      O94672   6.728   2.762   9.115
31477WAT     H194673   6.651   2.823   9.133
31477WAT     H294674   6.773   2.789   9.030
31478WAT      O94675   3.775   7.004   7.471
31478WAT     H194676   3.686   6.989   7.514
31478WAT     H294677   3.796   7.102   7.472
31479WAT      O94678   7.502   5.604   4.579
31479WAT     H194679   7.449   5.674   4.628
31479WAT     H294680   7.475   5.604   4.483
31480WAT      O94681   6.501   0.598   9.513
31480WAT     H194682   6.425   0.538   9.486
31480WAT     H294683   6.466   0.690   9.529
31481WAT      O94684   2.868   9.199   9.279
31481WAT     H194685   2.947   9.159   9.232
31481WAT     H294686   2.897   9.280   9.331
31482WAT      O94687   4.968   1.186   5.240
31482WAT     H194688   4.896   1.209   5.175
31482WAT     H294689   4.981   1.261   5.304
31483WAT      O94690   0.784   3.922   2.149
31483WAT     H194691   0.866   3.967   2.184
31483WAT     H294692   0.785   3.924   2.049
31484WAT      O94693   7.759   6.745   3.051
31484WAT     H194694   7.714   6.810   3.112
31484WAT     H294695   7.851   6.727   3.083
31485WAT      O94696   6.635   0.141   3.263
31485WAT     H194697   6.541   0.172   3.250
31485WAT     H294698   6.650   0.118   3.359
31486WAT      O94699   3.779   1.591   6.300
31486WAT     H194700   3.683   1.618   6.290
31486WAT     H294701   3.815   1.562   6.212
31487WAT      O94702   8.846   2.730   1.103
31487WAT     H194703   8.814   2.675   1.026
31487WAT     H294704   8.780   2.724   1.177
31488WAT      O94705   2.532   8.955   7.605
31488WAT     H194706   2.544   8.857   7.617
31488WAT     H294707   2.537   8.977   7.507
31489WAT      O94708   5.398   7.170   0.186
31489WAT     H194709   5.428   7.143   0.277
31489WAT     H294710   5.313   7.223   0.193
31490WAT      O94711   2.375   8.726   3.421
31490WAT     H194712   2.282   8.693   3.409
31490WAT     H294713   2.417   8.680   3.499
31491WAT      O94714   4.860   2.621   6.722
31491WAT     H194715   4.915   2.660   6.795
31491WAT     H294716   4.776   2.584   6.760
31492WAT      O94717   6.009   5.658   5.652
31492WAT     H194718   5.993   5.563   5.680
31492WAT     H294719   6.102   5.667   5.617
31493WAT      O94720   8.505   4.793   9.366
31493WAT     H194721   8.434   4.770   9.300
31493WAT     H294722   8.516   4.718   9.430
31494WAT      O94723   7.080   5.411   5.913
31494WAT     H194724   7.007   5.428   5.847
31494WAT     H294725   7.091   5.313   5.927
31495WAT      O94726   6.217   3.977   9.553
31495WAT     H194727   6.166   4.042   9.609
31495WAT     H294728   6.245   4.020   9.468
31496WAT      O94729   1.349   5.358   8.953
31496WAT     H194730   1.377   5.302   9.031
31496WAT     H294731   1.398   5.445   8.955
31497WAT      O94732   6.477   9.574   1.654
31497WAT     H194733   6.426   9.510   1.597
31497WAT     H294734   6.570   9.540   1.667
31498WAT      O94735   8.369   3.517   5.768
31498WAT     H194736   8.440   3.540   5.835
31498WAT     H294737   8.370   3.419   5.750
31499WAT      O94738   3.981   0.635   7.606
31499WAT     H194739   4.041   0.621   7.685
31499WAT     H294740   3.979   0.732   7.583
31500WAT      O94741   2.783   1.663   1.232
31500WAT     H194742   2.702   1.614   1.265
31500WAT     H294743   2.754   1.741   1.176
31501WAT      O94744   6.497   3.376   3.677
31501WAT     H194745   6.488   3.463   3.629
31501WAT     H294746   6.481   3.301   3.613
31502WAT      O94747   8.743   5.853   5.191
31502WAT     H194748   8.744   5.805   5.279
31502WAT     H294749   8.718   5.789   5.119
31503WAT      O94750   2.587   3.963   9.003
31503WAT     H194751   2.662   4.016   8.962
31503WAT     H294752   2.624   3.905   9.076
31504WAT      O94753   4.193   5.629   0.832
31504WAT     H194754   4.266   5.562   0.821
31504WAT     H294755   4.164   5.630   0.928
31505WAT      O94756   7.085   2.206   1.895
31505WAT     H194757   7.124   2.293   1.865
31505WAT     H294758   6.999   2.189   1.846
31506WAT      O94759   9.145   7.936   8.328
31506WAT     H194760   9.092   8.000   8.273
31506WAT     H294761   9.084   7.890   8.392
31507WAT      O94762   6.054   4.418   2.337
31507WAT     H194763   5.975   4.357   2.339
31507WAT     H294764   6.138   4.364   2.341
31508WAT      O94765   8.180   1.227   0.057
31508WAT     H194766   8.237   1.161   0.009
31508WAT     H294767   8.100   1.181   0.095
31509WAT      O94768   7.111   4.302   8.586
31509WAT     H194769   7.075   4.221   8.632
31509WAT     H294770   7.210   4.307   8.600
31510WAT      O94771   0.607   7.737   8.233
31510WAT     H194772   0.613   7.782   8.322
31510WAT     H294773   0.698   7.706   8.206
31511WAT      O94774   3.815   9.478   2.236
31511WAT     H194775   3.826   9.406   2.168
31511WAT     H294776   3.865   9.453   2.319
31512WAT      O94777   2.883   1.669   0.425
31512WAT     H194778   2.784   1.683   0.422
31512WAT     H294779   2.924   1.707   0.342
31513WAT      O94780   4.116   1.990   9.018
31513WAT     H194781   4.149   1.969   9.110
31513WAT     H294782   4.079   2.082   9.015
31514WAT      O94783   2.696   5.983   9.479
31514WAT     H194784   2.794   5.963   9.481
31514WAT     H294785   2.647   5.917   9.536
31515WAT      O94786   6.523   5.452   6.978
31515WAT     H194787   6.463   5.382   6.939
31515WAT     H294788   6.618   5.423   6.972
31516WAT      O94789   6.276   4.839   2.289
31516WAT     H194790   6.195   4.840   2.231
31516WAT     H294791   6.316   4.747   2.288
31517WAT      O94792   7.226   5.161   3.535
31517WAT     H194793   7.291   5.132   3.465
31517WAT     H294794   7.137   5.119   3.517
31518WAT      O94795   6.419   7.697   5.956
31518WAT     H194796   6.384   7.610   5.920
31518WAT     H294797   6.479   7.739   5.889
31519WAT      O94798   6.426   2.241   0.081
31519WAT     H194799   6.498   2.196   0.135
31519WAT     H294800   6.435   2.213  -0.015
31520WAT      O94801   6.075   7.519   8.612
31520WAT     H194802   6.124   7.588   8.559
31520WAT     H294803   5.977   7.527   8.595
31521WAT      O94804   2.488   9.622   8.738
31521WAT     H194805   2.552   9.675   8.795
31521WAT     H294806   2.456   9.678   8.663
31522WAT      O94807   6.772   6.509   8.343
31522WAT     H194808   6.778   6.409   8.344
31522WAT     H294809   6.807   6.544   8.256
31523WAT      O94810   4.920   3.315   0.252
31523WAT     H194811   4.962   3.275   0.171
31523WAT     H294812   4.990   3.327   0.323
31524WAT      O94813   1.295   4.890   0.377
31524WAT     H194814   1.318   4.860   0.470
31524WAT     H294815   1.284   4.811   0.318
31525WAT      O94816   1.785   8.239   3.887
31525WAT     H194817   1.843   8.318   3.869
31525WAT     H294818   1.837   8.169   3.935
31526WAT      O94819   2.873   3.602   3.694
31526WAT     H194820   2.968   3.583   3.671
31526WAT     H294821   2.857   3.701   3.693
31527WAT      O94822   8.123   8.913   8.417
31527WAT     H194823   8.090   8.925   8.510
31527WAT     H294824   8.096   8.823   8.383
31528WAT      O94825   7.925   8.734   2.471
31528WAT     H194826   7.862   8.682   2.530
31528WAT     H294827   7.921   8.831   2.495
31529WAT      O94828   8.141   7.987   7.907
31529WAT     H194829   8.225   8.037   7.930
31529WAT     H294830   8.070   8.010   7.974
31530WAT      O94831   6.955   5.952   6.926
31530WAT     H194832   6.921   5.875   6.871
31530WAT     H294833   7.045   5.931   6.962
31531WAT      O94834   8.893   0.687   3.522
31531WAT     H194835   8.895   0.743   3.439
31531WAT     H294836   8.862   0.742   3.599
31532WAT      O94837   0.385   6.205   2.933
31532WAT     H194838   0.482   6.185   2.949
31532WAT     H294839   0.366   6.299   2.962
31533WAT      O94840   8.714   4.384   1.366
31533WAT     H194841   8.778   4.331   1.311
31533WAT     H294842   8.640   4.325   1.398
31534WAT      O94843   6.636   8.508   8.919
31534WAT     H194844   6.577   8.431   8.895
31534WAT     H294845   6.728   8.493   8.881
31535WAT      O94846   2.207   1.164   6.078
31535WAT     H194847   2.243   1.257   6.075
31535WAT     H294848   2.280   1.101   6.103
31536WAT      O94849   5.521   5.613   3.453
31536WAT     H194850   5.442   5.643   3.399
31536WAT     H294851   5.496   5.531   3.506
31537WAT      O94852   4.613   8.211   7.170
31537WAT     H194853   4.665   8.266   7.235
31537WAT     H294854   4.515   8.224   7.184
31538WAT      O94855   0.078   6.235   9.462
31538WAT     H194856   0.004   6.302   9.469
31538WAT     H294857   0.166   6.282   9.460
31539WAT      O94858   7.571   3.034   4.119
31539WAT     H194859   7.506   3.106   4.097
31539WAT     H294860   7.630   3.016   4.039
31540WAT      O94861   4.453   2.106   6.228
31540WAT     H194862   4.363   2.071   6.204
31540WAT     H294863   4.490   2.055   6.306
31541WAT      O94864   5.874   1.727   1.108
31541WAT     H194865   5.920   1.799   1.161
31541WAT     H294866   5.779   1.754   1.090
31542WAT      O94867   6.532   7.590   2.357
31542WAT     H194868   6.456   7.595   2.422
31542WAT     H294869   6.611   7.548   2.401
31543WAT      O94870   0.935   0.228   9.492
31543WAT     H194871   1.031   0.220   9.466
31543WAT     H294872   0.928   0.273   9.581
31544WAT      O94873   4.055   8.711   8.846
31544WAT     H194874   4.093   8.643   8.908
31544WAT     H294875   4.121   8.732   8.774
31545WAT      O94876   0.159   8.273   1.584
31545WAT     H194877   0.107   8.188   1.594
31545WAT     H294878   0.159   8.301   1.488
31546WAT      O94879   5.538   0.134   9.641
31546WAT     H194880   5.499   0.080   9.567
31546WAT     H294881   5.606   0.197   9.604
31547WAT      O94882   3.642   2.479   9.283
31547WAT     H194883   3.676   2.438   9.367
31547WAT     H294884   3.613   2.573   9.301
31548WAT      O94885   1.745   1.082   7.884
31548WAT     H194886   1.814   1.038   7.826
31548WAT     H294887   1.776   1.175   7.906
31549WAT      O94888   4.846   0.123   3.533
31549WAT     H194889   4.873   0.050   3.596
31549WAT     H294890   4.820   0.083   3.445
31550WAT      O94891   7.029   5.039   8.202
31550WAT     H194892   7.080   4.975   8.145
31550WAT     H294893   6.931   5.017   8.197
31551WAT      O94894   9.295   9.526   1.573
31551WAT     H194895   9.345   9.479   1.501
31551WAT     H294896   9.273   9.461   1.646
31552WAT      O94897   6.149   3.164   4.665
31552WAT     H194898   6.201   3.236   4.618
31552WAT     H294899   6.107   3.103   4.597
31553WAT      O94900   2.904   6.825   5.560
31553WAT     H194901   2.815   6.780   5.555
31553WAT     H294902   2.976   6.755   5.560
31554WAT      O94903   5.921   0.084   9.024
31554WAT     H194904   5.891   0.050   9.113
31554WAT     H294905   5.996   0.027   8.990
31555WAT      O94906   8.487   3.421   7.964
31555WAT     H194907   8.473   3.495   8.030
31555WAT     H294908   8.421   3.430   7.890
31556WAT      O94909   3.783   6.946   8.017
31556WAT     H194910   3.822   7.003   8.089
31556WAT     H294911   3.713   6.998   7.968
31557WAT      O94912   7.576   3.718   5.040
31557WAT     H194913   7.660   3.771   5.031
31557WAT     H294914   7.534   3.705   4.951
31558WAT      O94915   3.080   6.798   7.065
31558WAT     H194916   3.065   6.760   7.157
31558WAT     H294917   3.104   6.895   7.073
31559WAT      O94918   8.022   3.457   8.551
31559WAT     H194919   7.998   3.362   8.530
31559WAT     H294920   8.032   3.467   8.650
31560WAT      O94921   8.674   5.454   2.077
31560WAT     H194922   8.612   5.399   2.022
31560WAT     H294923   8.682   5.546   2.038
31561WAT      O94924   8.027   0.613   5.614
31561WAT     H194925   7.947   0.671   5.631
31561WAT     H294926   8.094   0.664   5.560
31562WAT      O94927   0.914   3.503   5.009
31562WAT     H194928   0.939   3.406   5.002
31562WAT     H294929   0.921   3.532   5.105
31563WAT      O94930   5.357   0.733   9.190
31563WAT     H194931   5.439   0.717   9.245
31563WAT     H294932   5.375   0.709   9.095
31564WAT      O94933   0.994   8.670   3.472
31564WAT     H194934   0.972   8.592   3.413
31564WAT     H294935   1.028   8.745   3.417
31565WAT      O94936   0.347   3.766   9.444
31565WAT     H194937   0.303   3.683   9.410
31565WAT     H294938   0.446   3.756   9.439
31566WAT      O94939   6.776   4.027   2.712
31566WAT     H194940   6.684   3.994   2.737
31566WAT     H294941   6.802   3.989   2.623
31567WAT      O94942   4.591   0.883   7.956
31567WAT     H194943   4.673   0.931   7.988
31567WAT     H294944   4.607   0.849   7.863
31568WAT      O94945   5.962   8.355   9.420
31568WAT     H194946   6.056   8.339   9.451
31568WAT     H294947   5.962   8.423   9.347
31569WAT      O94948   0.010   6.879   9.159
31569WAT     H194949  -0.057   6.952   9.176
31569WAT     H294950   0.003   6.849   9.064
31570WAT      O94951   7.878   2.740   2.388
31570WAT     H194952   7.885   2.759   2.485
31570WAT     H294953   7.925   2.812   2.336
31571WAT      O94954   1.961   9.712   7.579
31571WAT     H194955   1.954   9.621   7.619
31571WAT     H294956   1.976   9.704   7.480
31572WAT      O94957   9.889   6.797   8.866
31572WAT     H194958   9.965   6.734   8.883
31572WAT     H294959   9.822   6.752   8.806
31573WAT      O94960   2.095   0.256   3.952
31573WAT     H194961   2.166   0.314   3.992
31573WAT     H294962   2.099   0.165   3.993
31574WAT      O94963   1.992   6.769   4.091
31574WAT     H194964   1.971   6.671   4.097
31574WAT     H294965   1.907   6.820   4.078
31575WAT      O94966   0.616   2.657   8.708
31575WAT     H194967   0.707   2.653   8.748
31575WAT     H294968   0.564   2.575   8.734
31576WAT      O94969   8.005   6.682   0.427
31576WAT     H194970   8.084   6.717   0.377
31576WAT     H294971   8.001   6.582   0.418
31577WAT      O94972   1.650   9.327   8.776
31577WAT     H194973   1.746   9.311   8.801
31577WAT     H294974   1.600   9.358   8.857
31578WAT      O94975   2.005   3.806   2.906
31578WAT     H194976   1.922   3.760   2.874
31578WAT     H294977   1.986   3.902   2.924
31579WAT      O94978   0.137   8.965   7.378
31579WAT     H194979   0.223   8.929   7.415
31579WAT     H294980   0.156   9.022   7.298
31580WAT      O94981   8.804   8.425   6.428
31580WAT     H194982   8.895   8.393   6.454
31580WAT     H294983   8.753   8.450   6.510
31581WAT      O94984   2.079   0.865   3.114
31581WAT     H194985   2.043   0.847   3.205
31581WAT     H294986   2.059   0.960   3.089
31582WAT      O94987   6.817   0.309   3.198
31582WAT     H194988   6.812   0.319   3.098
31582WAT     H294989   6.754   0.238   3.227
31583WAT      O94990   3.048   9.243   2.281
31583WAT     H194991   3.066   9.149   2.312
31583WAT     H294992   3.057   9.306   2.358
31584WAT      O94993   7.958   0.890   4.575
31584WAT     H194994   8.050   0.926   4.590
31584WAT     H294995   7.920   0.858   4.662
31585WAT      O94996   3.045   9.093   7.471
31585WAT     H194997   3.016   9.155   7.544
31585WAT     H294998   2.974   9.091   7.399
31586WAT      O94999   2.834   9.503   8.614
31586WAT     H195000   2.802   9.415   8.648
31586WAT     H295001   2.764   9.543   8.555
31587WAT      O95002   8.532   3.504   0.244
31587WAT     H195003   8.569   3.412   0.233
31587WAT     H295004   8.480   3.529   0.162
31588WAT      O95005   2.835   6.308   7.110
31588WAT     H195006   2.925   6.351   7.117
31588WAT     H295007   2.818   6.251   7.190
31589WAT      O95008   2.533   6.694   3.507
31589WAT     H195009   2.586   6.654   3.432
31589WAT     H295010   2.580   6.676   3.594
31590WAT      O95011   3.163   5.656   2.720
31590WAT     H195012   3.202   5.714   2.649
31590WAT     H295013   3.119   5.576   2.678
31591WAT      O95014   3.855   5.566   7.144
31591WAT     H195015   3.819   5.651   7.105
31591WAT     H295016   3.821   5.488   7.092
31592WAT      O95017   7.159   1.834   4.388
31592WAT     H195018   7.190   1.874   4.302
31592WAT     H295019   7.059   1.829   4.388
31593WAT      O95020   0.011   9.609   4.022
31593WAT     H195021  -0.051   9.663   3.965
31593WAT     H295022   0.075   9.559   3.964
31594WAT      O95023   6.205   8.936   5.082
31594WAT     H195024   6.200   8.998   5.161
31594WAT     H295025   6.120   8.884   5.076
31595WAT      O95026   6.259   4.583   1.168
31595WAT     H195027   6.344   4.600   1.117
31595WAT     H295028   6.183   4.576   1.104
31596WAT      O95029   0.142   3.103   0.680
31596WAT     H195030   0.217   3.121   0.617
31596WAT     H295031   0.056   3.100   0.630
31597WAT      O95032   5.687   2.567   4.221
31597WAT     H195033   5.633   2.576   4.137
31597WAT     H295034   5.726   2.655   4.245
31598WAT      O95035   8.101   8.552   9.536
31598WAT     H195036   8.029   8.558   9.467
31598WAT     H295037   8.183   8.513   9.496
31599WAT      O95038   4.567   3.090   1.127
31599WAT     H195039   4.558   3.067   1.224
31599WAT     H295040   4.536   3.012   1.071
31600WAT      O95041   9.485   9.658   3.875
31600WAT     H195042   9.475   9.696   3.967
31600WAT     H295043   9.418   9.701   3.815
31601WAT      O95044   7.469   9.090   7.990
31601WAT     H195045   7.548   9.125   8.041
31601WAT     H295046   7.412   9.035   8.051
31602WAT      O95047   0.361   2.347   9.394
31602WAT     H195048   0.306   2.319   9.472
31602WAT     H295049   0.458   2.339   9.417
31603WAT      O95050   2.941   8.219   2.887
31603WAT     H195051   2.945   8.132   2.938
31603WAT     H295052   2.916   8.293   2.950
31604WAT      O95053   7.833   7.989   2.874
31604WAT     H195054   7.813   7.917   2.939
31604WAT     H295055   7.930   8.010   2.876
31605WAT      O95056   6.043   3.787   9.151
31605WAT     H195057   6.092   3.845   9.086
31605WAT     H295058   5.969   3.740   9.104
31606WAT      O95059   3.498   4.785   7.374
31606WAT     H195060   3.481   4.864   7.315
31606WAT     H295061   3.565   4.809   7.444
31607WAT      O95062   9.867   3.212   3.278
31607WAT     H195063   9.790   3.197   3.216
31607WAT     H295064   9.847   3.171   3.367
31608WAT      O95065   8.371   5.302   9.240
31608WAT     H195066   8.283   5.276   9.281
31608WAT     H295067   8.363   5.393   9.200
31609WAT      O95068   4.952   8.525   3.902
31609WAT     H195069   4.943   8.527   3.803
31609WAT     H295070   4.882   8.464   3.941
31610WAT      O95071   3.136   8.989   6.243
31610WAT     H195072   3.136   9.021   6.338
31610WAT     H295073   3.150   8.891   6.240
31611WAT      O95074   6.394   5.144   5.872
31611WAT     H195075   6.357   5.058   5.837
31611WAT     H295076   6.403   5.138   5.972
31612WAT      O95077   8.338   2.695   5.313
31612WAT     H195078   8.306   2.634   5.241
31612WAT     H295079   8.264   2.756   5.341
31613WAT      O95080   7.455   8.879   8.184
31613WAT     H195081   7.518   8.887   8.261
31613WAT     H295082   7.472   8.794   8.136
31614WAT      O95083   8.353   9.233   6.475
31614WAT     H195084   8.393   9.271   6.559
31614WAT     H295085   8.409   9.261   6.397
31615WAT      O95086   6.134   3.508   6.258
31615WAT     H195087   6.170   3.597   6.284
31615WAT     H295088   6.118   3.505   6.160
31616WAT      O95089   5.589   0.400   8.767
31616WAT     H195090   5.532   0.481   8.755
31616WAT     H295091   5.671   0.424   8.819
31617WAT      O95092   2.197   5.814   9.563
31617WAT     H195093   2.247   5.901   9.570
31617WAT     H295094   2.167   5.801   9.468
31618WAT      O95095   6.354   4.615   8.285
31618WAT     H195096   6.372   4.553   8.209
31618WAT     H295097   6.255   4.623   8.299
31619WAT      O95098   2.177   9.517   0.131
31619WAT     H195099   2.271   9.549   0.144
31619WAT     H295100   2.119   9.593   0.103
31620WAT      O95101   0.098   5.740   4.675
31620WAT     H195102   0.031   5.685   4.726
31620WAT     H295103   0.189   5.700   4.686
31621WAT      O95104   4.378   1.827   6.994
31621WAT     H195105   4.428   1.840   7.079
31621WAT     H295106   4.434   1.859   6.917
31622WAT      O95107   3.104   8.119   0.129
31622WAT     H195108   3.188   8.064   0.136
31622WAT     H295109   3.122   8.212   0.162
31623WAT      O95110   9.427   2.896   8.951
31623WAT     H195111   9.386   2.987   8.957
31623WAT     H295112   9.470   2.884   8.861
31624WAT      O95113   5.211   4.545   0.419
31624WAT     H195114   5.265   4.609   0.364
31624WAT     H295115   5.205   4.457   0.371
31625WAT      O95116   3.308   4.149   2.483
31625WAT     H195117   3.401   4.145   2.520
31625WAT     H295118   3.249   4.197   2.547
31626WAT      O95119   6.208   1.334   9.059
31626WAT     H195120   6.135   1.401   9.071
31626WAT     H295121   6.171   1.252   9.016
31627WAT      O95122   0.124   8.958   2.701
31627WAT     H195123   0.190   8.884   2.692
31627WAT     H295124   0.171   9.046   2.703
31628WAT      O95125   1.868   2.415   3.921
31628WAT     H195126   1.868   2.414   4.021
31628WAT     H295127   1.947   2.363   3.888
31629WAT      O95128   7.392   8.444   6.294
31629WAT     H195129   7.424   8.354   6.263
31629WAT     H295130   7.306   8.432   6.344
31630WAT      O95131   4.676   8.928   9.175
31630WAT     H195132   4.719   8.919   9.265
31630WAT     H295133   4.724   8.999   9.123
31631WAT      O95134   2.390   2.878   8.590
31631WAT     H195135   2.459   2.810   8.612
31631WAT     H295136   2.368   2.931   8.672
31632WAT      O95137   7.631   5.330   7.101
31632WAT     H195138   7.586   5.307   7.188
31632WAT     H295139   7.573   5.392   7.048
31633WAT      O95140   2.707   4.451   9.195
31633WAT     H195141   2.693   4.496   9.106
31633WAT     H295142   2.701   4.352   9.183
31634WAT      O95143   0.971   3.257   4.910
31634WAT     H195144   0.910   3.259   4.831
31634WAT     H295145   1.055   3.208   4.887
31635WAT      O95146   6.007   0.892   9.601
31635WAT     H195147   5.969   0.823   9.538
31635WAT     H295148   5.973   0.982   9.575
31636WAT      O95149   3.017   1.813   8.767
31636WAT     H195150   2.923   1.781   8.755
31636WAT     H295151   3.072   1.741   8.810
31637WAT      O95152   6.719   0.151   7.018
31637WAT     H195153   6.695   0.068   6.967
31637WAT     H295154   6.722   0.228   6.955
31638WAT      O95155   8.802   6.224   3.196
31638WAT     H195156   8.817   6.170   3.114
31638WAT     H295157   8.838   6.317   3.182
31639WAT      O95158   6.474   6.043   1.137
31639WAT     H195159   6.458   6.139   1.112
31639WAT     H295160   6.488   5.989   1.055
31640WAT      O95161   4.855   8.886   7.537
31640WAT     H195162   4.786   8.869   7.607
31640WAT     H295163   4.941   8.842   7.563
31641WAT      O95164   2.270   1.899   6.869
31641WAT     H195165   2.239   1.842   6.793
31641WAT     H295166   2.295   1.990   6.835
31642WAT      O95167   7.601   7.536   2.042
31642WAT     H195168   7.607   7.565   2.138
31642WAT     H295169   7.517   7.483   2.029
31643WAT      O95170   9.092   7.818   8.924
31643WAT     H195171   9.004   7.834   8.879
31643WAT     H295172   9.159   7.886   8.891
31644WAT      O95173   9.268   9.398   9.640
31644WAT     H195174   9.248   9.310   9.598
31644WAT     H295175   9.186   9.455   9.639
31645WAT      O95176   9.611   2.363   8.728
31645WAT     H195177   9.587   2.273   8.693
31645WAT     H295178   9.614   2.360   8.828
31646WAT      O95179   5.510   1.218   4.990
31646WAT     H195180   5.414   1.211   5.015
31646WAT     H295181   5.562   1.253   5.069
31647WAT      O95182   8.502   5.984   1.252
31647WAT     H195183   8.565   5.906   1.254
31647WAT     H295184   8.514   6.034   1.167
31648WAT      O95185   0.596   6.832   2.202
31648WAT     H195186   0.610   6.781   2.118
31648WAT     H295187   0.649   6.791   2.276
31649WAT      O95188   2.371   6.355   3.379
31649WAT     H195189   2.328   6.432   3.426
31649WAT     H295190   2.301   6.292   3.345
31650WAT      O95191   2.054   5.603   2.966
31650WAT     H195192   2.146   5.641   2.969
31650WAT     H295193   2.049   5.530   2.898
31651WAT      O95194   5.151   3.505   7.083
31651WAT     H195195   5.132   3.522   7.180
31651WAT     H295196   5.100   3.424   7.053
31652WAT      O95197   0.579   0.796   9.261
31652WAT     H195198   0.574   0.881   9.313
31652WAT     H295199   0.512   0.799   9.186
31653WAT      O95200   7.878   0.564   2.239
31653WAT     H195201   7.860   0.552   2.337
31653WAT     H295202   7.930   0.649   2.225
31654WAT      O95203   6.357   9.322   5.221
31654WAT     H195204   6.391   9.298   5.130
31654WAT     H295205   6.318   9.240   5.264
31655WAT      O95206   4.961   2.302   9.506
31655WAT     H195207   4.939   2.373   9.439
31655WAT     H295208   4.883   2.290   9.568
31656WAT      O95209   0.678   1.901   5.543
31656WAT     H195210   0.596   1.931   5.592
31656WAT     H295211   0.706   1.973   5.479
31657WAT      O95212   7.421   2.710   5.486
31657WAT     H195213   7.424   2.626   5.433
31657WAT     H295214   7.356   2.774   5.445
31658WAT      O95215   0.593   6.476   8.430
31658WAT     H195216   0.656   6.469   8.506
31658WAT     H295217   0.534   6.556   8.443
31659WAT      O95218   5.194   3.382   4.623
31659WAT     H195219   5.171   3.395   4.720
31659WAT     H295220   5.112   3.397   4.568
31660WAT      O95221   5.585   5.202   4.232
31660WAT     H195222   5.599   5.119   4.285
31660WAT     H295223   5.670   5.254   4.227
31661WAT      O95224   9.289   8.682   3.496
31661WAT     H195225   9.315   8.636   3.411
31661WAT     H295226   9.362   8.672   3.563
31662WAT      O95227   5.097   4.165   7.891
31662WAT     H195228   5.193   4.150   7.865
31662WAT     H295229   5.090   4.252   7.940
31663WAT      O95230   7.685   9.405   9.252
31663WAT     H195231   7.616   9.339   9.224
31663WAT     H295232   7.773   9.383   9.209
31664WAT      O95233   2.184   7.568   9.725
31664WAT     H195234   2.178   7.625   9.806
31664WAT     H295235   2.280   7.548   9.705
31665WAT      O95236   4.936   6.734   0.337
31665WAT     H195237   4.970   6.737   0.430
31665WAT     H295238   4.836   6.726   0.338
31666WAT      O95239   2.376   4.025   4.340
31666WAT     H195240   2.284   4.045   4.306
31666WAT     H295241   2.432   4.108   4.336
31667WAT      O95242   1.706   7.465   6.316
31667WAT     H195243   1.795   7.501   6.289
31667WAT     H295244   1.663   7.526   6.383
31668WAT      O95245   6.606   5.529   3.396
31668WAT     H195246   6.653   5.468   3.460
31668WAT     H295247   6.624   5.624   3.421
31669WAT      O95248   7.500   5.485   1.917
31669WAT     H195249   7.574   5.449   1.973
31669WAT     H295250   7.454   5.559   1.965
31670WAT      O95251   6.578   7.801   7.181
31670WAT     H195252   6.646   7.747   7.230
31670WAT     H295253   6.570   7.769   7.087
31671WAT      O95254   9.277   1.803   8.956
31671WAT     H195255   9.225   1.780   9.038
31671WAT     H295256   9.369   1.766   8.963
31672WAT      O95257   4.176   3.109   6.378
31672WAT     H195258   4.247   3.171   6.412
31672WAT     H295259   4.122   3.156   6.308
31673WAT      O95260   8.260   7.317   7.650
31673WAT     H195261   8.269   7.276   7.559
31673WAT     H295262   8.247   7.244   7.718
31674WAT      O95263   1.079   0.501   1.907
31674WAT     H195264   0.991   0.518   1.864
31674WAT     H295265   1.126   0.426   1.860
31675WAT      O95266   3.222   9.799   1.416
31675WAT     H195267   3.274   9.804   1.331
31675WAT     H295268   3.184   9.890   1.436
31676WAT      O95269   0.555   4.263   0.064
31676WAT     H195270   0.497   4.332   0.108
31676WAT     H295271   0.519   4.242  -0.027
31677WAT      O95272   2.834   4.884   0.599
31677WAT     H195273   2.756   4.852   0.546
31677WAT     H295274   2.913   4.896   0.538
31678WAT      O95275   5.700   2.936   6.841
31678WAT     H195276   5.706   3.017   6.782
31678WAT     H295277   5.711   2.853   6.786
31679WAT      O95278   3.993   3.584   8.162
31679WAT     H195279   3.918   3.567   8.226
31679WAT     H295280   3.972   3.544   8.073
31680WAT      O95281   3.537   0.461   1.831
31680WAT     H195282   3.526   0.550   1.875
31680WAT     H295283   3.630   0.428   1.847
31681WAT      O95284   9.317   8.618   8.818
31681WAT     H195285   9.353   8.648   8.730
31681WAT     H295286   9.353   8.676   8.891
31682WAT      O95287   7.207   0.523   6.918
31682WAT     H195288   7.173   0.608   6.877
31682WAT     H295289   7.134   0.480   6.971
31683WAT      O95290   4.933   5.602   1.721
31683WAT     H195291   4.974   5.642   1.639
31683WAT     H295292   4.850   5.652   1.745
31684WAT      O95293   4.833   4.792   2.082
31684WAT     H195294   4.916   4.747   2.047
31684WAT     H295295   4.790   4.845   2.009
31685WAT      O95296   5.132   4.505   8.232
31685WAT     H195297   5.079   4.582   8.195
31685WAT     H295298   5.154   4.442   8.158
31686WAT      O95299   1.530   4.239   1.192
31686WAT     H195300   1.457   4.173   1.214
31686WAT     H295301   1.618   4.192   1.193
31687WAT      O95302   9.697   3.063   0.850
31687WAT     H195303   9.781   3.020   0.883
31687WAT     H295304   9.716   3.158   0.826
31688WAT      O95305   4.541   9.359   0.526
31688WAT     H195306   4.624   9.310   0.497
31688WAT     H295307   4.545   9.375   0.624
31689WAT      O95308   1.236   5.323   3.304
31689WAT     H195309   1.332   5.302   3.289
31689WAT     H295310   1.190   5.333   3.216
31690WAT      O95311   8.757   5.391   8.021
31690WAT     H195312   8.854   5.397   8.000
31690WAT     H295313   8.728   5.473   8.072
31691WAT      O95314   8.663   1.352   3.994
31691WAT     H195315   8.601   1.379   4.068
31691WAT     H295316   8.616   1.289   3.933
31692WAT      O95317   7.028   8.387   7.584
31692WAT     H195318   6.988   8.425   7.667
31692WAT     H295319   7.011   8.289   7.580
31693WAT      O95320   3.604   0.452   6.984
31693WAT     H195321   3.688   0.497   7.014
31693WAT     H295322   3.593   0.463   6.885
31694WAT      O95323   2.212   7.338   5.178
31694WAT     H195324   2.290   7.354   5.239
31694WAT     H295325   2.196   7.419   5.122
31695WAT      O95326   3.686   4.234   5.581
31695WAT     H195327   3.589   4.257   5.578
31695WAT     H295328   3.727   4.253   5.491
31696WAT      O95329   6.790   2.721   3.219
31696WAT     H195330   6.817   2.735   3.123
31696WAT     H295331   6.764   2.625   3.232
31697WAT      O95332   9.740   7.455   5.043
31697WAT     H195333   9.676   7.423   4.973
31697WAT     H295334   9.771   7.377   5.099
31698WAT      O95335   4.624   6.643   8.377
31698WAT     H195336   4.539   6.657   8.427
31698WAT     H295337   4.611   6.665   8.280
31699WAT      O95338   1.756   2.256   8.987
31699WAT     H195339   1.756   2.349   9.024
31699WAT     H295340   1.672   2.209   9.016
31700WAT      O95341   8.282   3.089   9.873
31700WAT     H195342   8.328   3.002   9.893
31700WAT     H295343   8.220   3.111   9.947
31701WAT      O95344   7.217   0.608   2.325
31701WAT     H195345   7.153   0.669   2.372
31701WAT     H295346   7.296   0.591   2.384
31702WAT      O95347   5.516   2.804   2.571
31702WAT     H195348   5.513   2.904   2.571
31702WAT     H295349   5.521   2.771   2.477
31703WAT      O95350   2.084   4.846   8.329
31703WAT     H195351   2.012   4.781   8.353
31703WAT     H295352   2.047   4.939   8.332
31704WAT      O95353   7.750   2.222   0.878
31704WAT     H195354   7.773   2.250   0.971
31704WAT     H295355   7.833   2.214   0.823
31705WAT      O95356   8.201   0.505   5.056
31705WAT     H195357   8.144   0.444   5.110
31705WAT     H295358   8.291   0.463   5.041
31706WAT      O95359   2.059   2.294   9.721
31706WAT     H195360   2.105   2.340   9.646
31706WAT     H295361   2.107   2.313   9.807
31707WAT      O95362   5.568   2.011   0.452
31707WAT     H195363   5.513   1.946   0.505
31707WAT     H295364   5.659   1.973   0.438
31708WAT      O95365   2.474   6.847   0.295
31708WAT     H195366   2.392   6.820   0.346
31708WAT     H295367   2.451   6.857   0.198
31709WAT      O95368   3.935   1.818   8.002
31709WAT     H195369   4.030   1.793   8.023
31709WAT     H295370   3.924   1.917   8.013
31710WAT      O95371   3.695   5.750   7.039
31710WAT     H195372   3.613   5.789   7.081
31710WAT     H295373   3.682   5.747   6.939
31711WAT      O95374   9.731   4.797   5.203
31711WAT     H195375   9.642   4.786   5.246
31711WAT     H295376   9.794   4.728   5.239
31712WAT      O95377   1.204   8.150   7.831
31712WAT     H195378   1.156   8.081   7.778
31712WAT     H295379   1.137   8.214   7.871
31713WAT      O95380   4.190   9.496   2.358
31713WAT     H195381   4.117   9.563   2.346
31713WAT     H295382   4.179   9.422   2.292
31714WAT      O95383   8.484   7.111   3.471
31714WAT     H195384   8.498   7.029   3.526
31714WAT     H295385   8.560   7.174   3.487
31715WAT      O95386   7.060   0.038   8.990
31715WAT     H195387   7.042  -0.027   8.917
31715WAT     H295388   7.155   0.030   9.020
31716WAT      O95389   6.532   6.146   2.462
31716WAT     H195390   6.452   6.103   2.420
31716WAT     H295391   6.559   6.093   2.542
31717WAT      O95392   0.518   3.380   4.050
31717WAT     H195393   0.443   3.425   4.099
31717WAT     H295394   0.605   3.401   4.096
31718WAT      O95395   1.603   8.130   7.120
31718WAT     H195396   1.584   8.190   7.198
31718WAT     H295397   1.518   8.093   7.085
31719WAT      O95398   2.927   3.767   6.928
31719WAT     H195399   2.853   3.825   6.961
31719WAT     H295400   3.012   3.791   6.974
31720WAT      O95401   7.735   8.289   3.580
31720WAT     H195402   7.830   8.313   3.602
31720WAT     H295403   7.724   8.282   3.481
31721WAT      O95404   0.210   7.959   7.245
31721WAT     H195405   0.270   8.010   7.306
31721WAT     H295406   0.169   7.882   7.294
31722WAT      O95407   8.754   2.984   0.979
31722WAT     H195408   8.657   2.960   0.975
31722WAT     H295409   8.805   2.909   1.021
31723WAT      O95410   1.631   9.455   8.308
31723WAT     H195411   1.636   9.539   8.255
31723WAT     H295412   1.577   9.387   8.259
31724WAT      O95413   1.305   4.025   9.786
31724WAT     H195414   1.233   4.089   9.760
31724WAT     H295415   1.354   4.061   9.866
31725WAT      O95416   3.028   0.423   0.295
31725WAT     H195417   3.052   0.326   0.294
31725WAT     H295418   2.957   0.439   0.363
31726WAT      O95419   9.072   8.892   5.630
31726WAT     H195420   9.003   8.871   5.560
31726WAT     H295421   9.161   8.857   5.600
31727WAT      O95422   8.609   4.262   6.948
31727WAT     H195423   8.582   4.166   6.936
31727WAT     H295424   8.707   4.267   6.966
31728WAT      O95425   1.284   2.319   7.598
31728WAT     H195426   1.383   2.306   7.610
31728WAT     H295427   1.236   2.236   7.625
31729WAT      O95428   5.090   4.537   8.741
31729WAT     H195429   5.018   4.502   8.801
31729WAT     H295430   5.078   4.500   8.649
31730WAT      O95431   8.042   0.789   1.281
31730WAT     H195432   8.036   0.689   1.275
31730WAT     H295433   8.137   0.817   1.269
31731WAT      O95434   0.344   3.707   0.519
31731WAT     H195435   0.332   3.617   0.560
31731WAT     H295436   0.349   3.777   0.590
31732WAT      O95437   8.443   3.651   2.722
31732WAT     H195438   8.448   3.554   2.743
31732WAT     H295439   8.452   3.704   2.806
31733WAT      O95440   3.134   0.686   5.088
31733WAT     H195441   3.148   0.693   4.990
31733WAT     H295442   3.098   0.595   5.110
31734WAT      O95443   3.952   2.188   9.114
31734WAT     H195444   3.947   2.287   9.098
31734WAT     H295445   3.970   2.172   9.211
31735WAT      O95446   1.991   3.199   8.743
31735WAT     H195447   1.899   3.160   8.744
31735WAT     H295448   2.004   3.250   8.658
31736WAT      O95449   4.110   7.456   8.692
31736WAT     H195450   4.179   7.461   8.764
31736WAT     H295451   4.027   7.503   8.721
31737WAT      O95452   0.381   1.359   0.308
31737WAT     H195453   0.351   1.319   0.222
31737WAT     H295454   0.405   1.286   0.372
31738WAT      O95455   9.794   4.005   0.808
31738WAT     H195456   9.746   4.080   0.763
31738WAT     H295457   9.735   3.964   0.877
31739WAT      O95458   3.823   4.693   6.100
31739WAT     H195459   3.738   4.721   6.054
31739WAT     H295460   3.885   4.652   6.033
31740WAT      O95461   0.329   1.629   3.024
31740WAT     H195462   0.269   1.655   2.948
31740WAT     H295463   0.325   1.699   3.095
31741WAT      O95464   8.122   1.867   2.118
31741WAT     H195465   8.171   1.810   2.183
31741WAT     H295466   8.099   1.955   2.161
31742WAT      O95467   0.351   0.026   0.872
31742WAT     H195468   0.342  -0.073   0.864
31742WAT     H295469   0.340   0.052   0.968
31743WAT      O95470   3.827   6.304   9.364
31743WAT     H195471   3.837   6.393   9.408
31743WAT     H295472   3.732   6.290   9.337
31744WAT      O95473   0.145   7.930   0.038
31744WAT     H195474   0.177   7.835   0.042
31744WAT     H295475   0.224   7.992   0.035
31745WAT      O95476   2.974   0.076   8.355
31745WAT     H195477   3.050   0.128   8.315
31745WAT     H295478   2.952  -0.001   8.296
31746WAT      O95479   2.916   3.263   9.397
31746WAT     H195480   2.846   3.211   9.348
31746WAT     H295481   2.946   3.340   9.341
31747WAT      O95482   1.340   4.453   3.624
31747WAT     H195483   1.281   4.454   3.704
31747WAT     H295484   1.297   4.399   3.551
31748WAT      O95485   8.818   9.082   0.116
31748WAT     H195486   8.723   9.089   0.087
31748WAT     H295487   8.822   9.072   0.216
31749WAT      O95488   0.264   5.145   1.135
31749WAT     H195489   0.231   5.168   1.043
31749WAT     H295490   0.209   5.070   1.172
31750WAT      O95491   0.703   1.504   7.493
31750WAT     H195492   0.791   1.509   7.445
31750WAT     H295493   0.719   1.497   7.592
31751WAT      O95494   6.585   7.947   1.918
31751WAT     H195495   6.576   7.886   1.996
31751WAT     H295496   6.646   7.906   1.850
31752WAT      O95497   9.505   4.706   3.781
31752WAT     H195498   9.583   4.768   3.783
31752WAT     H295499   9.426   4.750   3.823
31753WAT      O95500   3.954   2.430   9.414
31753WAT     H195501   4.042   2.429   9.461
31753WAT     H295502   3.965   2.397   9.320
31754WAT      O95503   7.178   2.661   1.091
31754WAT     H195504   7.168   2.565   1.117
31754WAT     H295505   7.140   2.719   1.164
31755WAT      O95506   2.517   9.314   4.081
31755WAT     H195507   2.556   9.236   4.130
31755WAT     H295508   2.591   9.378   4.058
31756WAT      O95509   5.687   6.881   3.852
31756WAT     H195510   5.732   6.830   3.926
31756WAT     H295511   5.669   6.819   3.776
31757WAT      O95512   8.095   2.032   8.591
31757WAT     H195513   8.003   2.071   8.582
31757WAT     H295514   8.089   1.933   8.596
31758WAT      O95515   4.262   5.028   2.015
31758WAT     H195516   4.234   5.021   2.110
31758WAT     H295517   4.355   4.991   2.005
31759WAT      O95518   5.619   0.314   8.078
31759WAT     H195519   5.616   0.336   7.980
31759WAT     H295520   5.535   0.348   8.122
31760WAT      O95521   6.862   3.077   1.317
31760WAT     H195522   6.878   3.139   1.240
31760WAT     H295523   6.766   3.052   1.320
31761WAT      O95524   1.262   7.758   3.960
31761WAT     H195525   1.276   7.667   3.999
31761WAT     H295526   1.320   7.769   3.880
31762WAT      O95527   2.321   3.458   7.134
31762WAT     H195528   2.380   3.385   7.170
31762WAT     H295529   2.254   3.418   7.070
31763WAT      O95530   7.706   6.329   8.772
31763WAT     H195531   7.704   6.360   8.867
31763WAT     H295532   7.630   6.265   8.756
31764WAT      O95533   0.812   6.220   2.750
31764WAT     H195534   0.806   6.125   2.720
31764WAT     H295535   0.900   6.236   2.793
31765WAT      O95536   6.684   9.151   4.478
31765WAT     H195537   6.759   9.118   4.535
31765WAT     H295538   6.715   9.231   4.425
31766WAT      O95539   9.123   1.490   5.346
31766WAT     H195540   9.154   1.584   5.333
31766WAT     H295541   9.035   1.478   5.300
31767WAT      O95542   8.257   1.340   0.302
31767WAT     H195543   8.243   1.437   0.282
31767WAT     H295544   8.239   1.286   0.219
31768WAT      O95545   8.501   9.141   9.543
31768WAT     H195546   8.477   9.225   9.593
31768WAT     H295547   8.446   9.065   9.579
31769WAT      O95548   4.196   8.059   3.845
31769WAT     H195549   4.115   8.002   3.849
31769WAT     H295550   4.210   8.103   3.933
31770WAT      O95551   8.724   9.774   3.382
31770WAT     H195552   8.671   9.857   3.399
31770WAT     H295553   8.791   9.762   3.456
31771WAT      O95554   8.620   1.212   2.887
31771WAT     H195555   8.657   1.297   2.923
31771WAT     H295556   8.605   1.148   2.963
31772WAT      O95557   5.686   8.773   8.199
31772WAT     H195558   5.593   8.740   8.218
31772WAT     H295559   5.715   8.834   8.273
31773WAT      O95560   1.984   5.153   5.520
31773WAT     H195561   2.057   5.181   5.459
31773WAT     H295562   1.977   5.217   5.597
31774WAT      O95563   7.848   5.644   8.552
31774WAT     H195564   7.763   5.675   8.510
31774WAT     H295565   7.894   5.722   8.595
31775WAT      O95566   2.239   8.724   6.147
31775WAT     H195567   2.158   8.781   6.163
31775WAT     H295568   2.246   8.655   6.219
31776WAT      O95569   1.955   2.147   6.925
31776WAT     H195570   1.898   2.088   6.982
31776WAT     H295571   1.904   2.228   6.898
31777WAT      O95572   9.376   5.114   8.346
31777WAT     H195573   9.395   5.152   8.256
31777WAT     H295574   9.280   5.130   8.370
31778WAT      O95575   1.997   1.871   5.719
31778WAT     H195576   1.987   1.810   5.640
31778WAT     H295577   2.094   1.893   5.731
31779WAT      O95578   6.359   6.311   4.400
31779WAT     H195579   6.370   6.304   4.499
31779WAT     H295580   6.433   6.262   4.355
31780WAT      O95581   7.609   0.746   9.504
31780WAT     H195582   7.657   0.825   9.542
31780WAT     H295583   7.511   0.752   9.526
31781WAT      O95584   2.307   5.658   5.661
31781WAT     H195585   2.280   5.564   5.638
31781WAT     H295586   2.405   5.670   5.642
31782WAT      O95587   8.483   6.404   9.714
31782WAT     H195588   8.485   6.343   9.635
31782WAT     H295589   8.526   6.358   9.792
31783WAT      O95590   4.402   5.865   9.563
31783WAT     H195591   4.416   5.779   9.515
31783WAT     H295592   4.422   5.942   9.501
31784WAT      O95593   3.850   9.221   1.420
31784WAT     H195594   3.799   9.207   1.335
31784WAT     H295595   3.788   9.212   1.497
31785WAT      O95596   8.318   7.132   8.571
31785WAT     H195597   8.357   7.096   8.487
31785WAT     H295598   8.280   7.057   8.625
31786WAT      O95599   3.665   7.425   4.676
31786WAT     H195600   3.628   7.504   4.628
31786WAT     H295601   3.712   7.456   4.759
31787WAT      O95602   0.498   7.745   4.768
31787WAT     H195603   0.496   7.652   4.732
31787WAT     H295604   0.430   7.754   4.841
31788WAT      O95605   5.357   7.152   9.274
31788WAT     H195606   5.297   7.210   9.219
31788WAT     H295607   5.359   7.060   9.234
31789WAT      O95608   7.954   9.780   0.977
31789WAT     H195609   7.928   9.754   0.884
31789WAT     H295610   8.033   9.727   1.006
31790WAT      O95611   0.211   8.444   7.918
31790WAT     H195612   0.277   8.393   7.974
31790WAT     H295613   0.253   8.528   7.886
31791WAT      O95614   8.741   5.809   0.965
31791WAT     H195615   8.706   5.783   1.055
31791WAT     H295616   8.830   5.766   0.951
31792WAT      O95617   6.877   9.459   3.522
31792WAT     H195618   6.847   9.480   3.429
31792WAT     H295619   6.800   9.424   3.575
31793WAT      O95620   3.075   8.648   5.675
31793WAT     H195621   3.098   8.741   5.645
31793WAT     H295622   3.062   8.646   5.774
31794WAT      O95623   7.755   6.534   6.755
31794WAT     H195624   7.837   6.495   6.713
31794WAT     H295625   7.744   6.629   6.726
31795WAT      O95626   1.708   6.739   0.871
31795WAT     H195627   1.690   6.688   0.956
31795WAT     H295628   1.764   6.819   0.891
31796WAT      O95629   9.370   6.672   0.178
31796WAT     H195630   9.364   6.758   0.227
31796WAT     H295631   9.364   6.688   0.080
31797WAT      O95632   0.079   6.408   7.539
31797WAT     H195633   0.140   6.335   7.508
31797WAT     H295634   0.039   6.454   7.460
31798WAT      O95635   3.805   1.255   5.465
31798WAT     H195636   3.787   1.163   5.499
31798WAT     H295637   3.894   1.256   5.419
31799WAT      O95638   0.272   8.155   8.268
31799WAT     H195639   0.198   8.088   8.261
31799WAT     H295640   0.313   8.151   8.359
31800WAT      O95641   1.627   9.124   6.153
31800WAT     H195642   1.592   9.031   6.161
31800WAT     H295643   1.574   9.175   6.085
31801WAT      O95644   7.352   2.688   6.420
31801WAT     H195645   7.296   2.618   6.464
31801WAT     H295646   7.449   2.666   6.432
31802WAT      O95647   8.761   5.353   5.192
31802WAT     H195648   8.694   5.409   5.240
31802WAT     H295649   8.843   5.408   5.174
31803WAT      O95650   4.621   4.130   7.419
31803WAT     H195651   4.695   4.142   7.353
31803WAT     H295652   4.559   4.058   7.386
31804WAT      O95653   3.637   9.732   1.396
31804WAT     H195654   3.704   9.683   1.451
31804WAT     H295655   3.622   9.684   1.310
31805WAT      O95656   4.126   2.226   8.678
31805WAT     H195657   4.132   2.127   8.663
31805WAT     H295658   4.161   2.248   8.769
31806WAT      O95659   8.330   2.651   9.112
31806WAT     H195660   8.356   2.566   9.066
31806WAT     H295661   8.287   2.713   9.047
31807WAT      O95662   0.764   3.370   4.299
31807WAT     H195663   0.863   3.357   4.290
31807WAT     H295664   0.746   3.458   4.342
31808WAT      O95665   3.266   2.416   3.991
31808WAT     H195666   3.258   2.317   3.979
31808WAT     H295667   3.312   2.455   3.912
31809WAT      O95668   7.957   2.968   9.881
31809WAT     H195669   7.994   2.880   9.850
31809WAT     H295670   7.910   3.013   9.805
31810WAT      O95671   1.253   2.055   1.968
31810WAT     H195672   1.293   2.123   1.907
31810WAT     H295673   1.305   2.052   2.053
31811WAT      O95674   7.557   6.644   8.846
31811WAT     H195675   7.641   6.641   8.899
31811WAT     H295676   7.565   6.583   8.767
31812WAT      O95677   6.864   8.625   2.497
31812WAT     H195678   6.948   8.592   2.454
31812WAT     H295679   6.809   8.548   2.528
31813WAT      O95680   6.246   0.120   5.765
31813WAT     H195681   6.247   0.207   5.715
31813WAT     H295682   6.154   0.102   5.799
31814WAT      O95683   1.734   6.969   8.895
31814WAT     H195684   1.812   7.005   8.947
31814WAT     H295685   1.765   6.891   8.840
31815WAT      O95686   6.424   2.508   9.063
31815WAT     H195687   6.375   2.425   9.035
31815WAT     H295688   6.504   2.482   9.118
31816WAT      O95689   4.634   5.904   8.931
31816WAT     H195690   4.719   5.922   8.979
31816WAT     H295691   4.563   5.966   8.964
31817WAT      O95692   4.026   6.834   3.857
31817WAT     H195693   4.114   6.865   3.820
31817WAT     H295694   3.983   6.771   3.792
31818WAT      O95695   6.616   6.356   1.817
31818WAT     H195696   6.665   6.289   1.762
31818WAT     H295697   6.520   6.328   1.828
31819WAT      O95698   3.795   1.398   9.798
31819WAT     H195699   3.841   1.323   9.846
31819WAT     H295700   3.696   1.388   9.808
31820WAT      O95701   7.301   9.821   2.105
31820WAT     H195702   7.224   9.757   2.095
31820WAT     H295703   7.315   9.871   2.019
31821WAT      O95704   2.574   3.984   1.570
31821WAT     H195705   2.535   4.065   1.526
31821WAT     H295706   2.672   3.980   1.551
31822WAT      O95707   9.075   1.096   8.523
31822WAT     H195708   9.128   1.028   8.573
31822WAT     H295709   8.986   1.057   8.498
31823WAT      O95710   9.236   8.418   5.241
31823WAT     H195711   9.185   8.360   5.177
31823WAT     H295712   9.253   8.507   5.199
31824WAT      O95713   1.981   0.230   7.381
31824WAT     H195714   1.976   0.330   7.387
31824WAT     H295715   1.954   0.190   7.469
31825WAT      O95716   6.846   4.813   8.492
31825WAT     H195717   6.814   4.907   8.500
31825WAT     H295718   6.929   4.810   8.436
31826WAT      O95719   4.847   2.594   1.265
31826WAT     H195720   4.904   2.622   1.343
31826WAT     H295721   4.769   2.656   1.257
31827WAT      O95722   3.144   0.182   8.164
31827WAT     H195723   3.093   0.191   8.079
31827WAT     H295724   3.235   0.224   8.154
31828WAT      O95725   7.930   8.499   2.055
31828WAT     H195726   7.890   8.523   2.144
31828WAT     H295727   7.920   8.400   2.041
31829WAT      O95728   4.421   2.804   7.081
31829WAT     H195729   4.387   2.715   7.050
31829WAT     H295730   4.426   2.866   7.002
31830WAT      O95731   9.342   3.017   2.961
31830WAT     H195732   9.336   2.945   3.031
31830WAT     H295733   9.263   3.078   2.969
31831WAT      O95734   6.125   4.885   1.301
31831WAT     H195735   6.076   4.840   1.227
31831WAT     H295736   6.149   4.817   1.371
31832WAT      O95737   7.481   6.189   8.787
31832WAT     H195738   7.446   6.097   8.771
31832WAT     H295739   7.444   6.252   8.718
31833WAT      O95740   5.800   0.609   2.813
31833WAT     H195741   5.760   0.539   2.872
31833WAT     H295742   5.776   0.700   2.849
31834WAT      O95743   0.103   8.230   3.820
31834WAT     H195744   0.006   8.219   3.797
31834WAT     H295745   0.155   8.152   3.783
31835WAT      O95746   0.630   4.456   2.497
31835WAT     H195747   0.628   4.451   2.398
31835WAT     H295748   0.600   4.369   2.536
31836WAT      O95749   5.703   0.625   8.562
31836WAT     H195750   5.757   0.664   8.636
31836WAT     H295751   5.606   0.624   8.588
31837WAT      O95752   9.812   9.452   3.592
31837WAT     H195753   9.823   9.376   3.656
31837WAT     H295754   9.857   9.533   3.630
31838WAT      O95755   8.327   0.480   6.147
31838WAT     H195756   8.390   0.513   6.217
31838WAT     H295757   8.374   0.477   6.058
31839WAT      O95758   6.282   5.152   3.534
31839WAT     H195759   6.236   5.073   3.493
31839WAT     H295760   6.306   5.217   3.462
31840WAT      O95761   8.985   6.691   8.763
31840WAT     H195762   8.945   6.761   8.704
31840WAT     H295763   9.067   6.726   8.807
31841WAT      O95764   1.068   3.674   5.770
31841WAT     H195765   1.106   3.606   5.708
31841WAT     H295766   1.138   3.744   5.789
31842WAT      O95767   8.299   2.373   6.147
31842WAT     H195768   8.320   2.469   6.128
31842WAT     H295769   8.378   2.329   6.190
31843WAT      O95770   8.194   5.529   1.368
31843WAT     H195771   8.211   5.589   1.446
31843WAT     H295772   8.104   5.487   1.376
31844WAT      O95773   4.873   3.099   5.771
31844WAT     H195774   4.798   3.058   5.823
31844WAT     H295775   4.887   3.193   5.802
31845WAT      O95776   7.401   1.539   7.378
31845WAT     H195777   7.495   1.543   7.346
31845WAT     H295778   7.342   1.502   7.306
31846WAT      O95779   9.670   4.119   9.026
31846WAT     H195780   9.584   4.169   9.015
31846WAT     H295781   9.744   4.170   8.981
31847WAT      O95782   7.789   2.039   4.631
31847WAT     H195783   7.738   2.089   4.561
31847WAT     H295784   7.758   1.944   4.634
31848WAT      O95785   1.572   7.939   8.569
31848WAT     H195786   1.505   7.889   8.514
31848WAT     H295787   1.658   7.888   8.572
31849WAT      O95788   5.809   2.218   6.311
31849WAT     H195789   5.755   2.273   6.375
31849WAT     H295790   5.823   2.270   6.227
31850WAT      O95791   1.795   3.000   2.046
31850WAT     H195792   1.722   3.066   2.063
31850WAT     H295793   1.877   3.048   2.014
31851WAT      O95794   7.301   6.123   8.469
31851WAT     H195795   7.213   6.080   8.485
31851WAT     H295796   7.308   6.206   8.526
31852WAT      O95797   6.095   7.559   3.174
31852WAT     H195798   6.094   7.636   3.112
31852WAT     H295799   6.009   7.555   3.224
31853WAT      O95800   9.623   6.542   4.777
31853WAT     H195801   9.701   6.497   4.734
31853WAT     H295802   9.559   6.473   4.812
31854WAT      O95803   4.747   6.287   5.720
31854WAT     H195804   4.790   6.197   5.715
31854WAT     H295805   4.815   6.355   5.748
31855WAT      O95806   6.228   7.856   0.430
31855WAT     H195807   6.148   7.848   0.489
31855WAT     H295808   6.214   7.803   0.346
31856WAT      O95809   5.068   7.366   2.610
31856WAT     H195810   4.989   7.407   2.657
31856WAT     H295811   5.138   7.436   2.596
31857WAT      O95812   0.762   2.990   0.039
31857WAT     H195813   0.764   2.893   0.062
31857WAT     H295814   0.854   3.022   0.017
31858WAT      O95815   4.624   6.014   7.624
31858WAT     H195816   4.615   5.918   7.651
31858WAT     H295817   4.641   6.070   7.705
31859WAT      O95818   4.785   8.946   9.418
31859WAT     H195819   4.876   8.915   9.389
31859WAT     H295820   4.766   8.912   9.510
31860WAT      O95821   3.616   3.760   6.203
31860WAT     H195822   3.520   3.788   6.215
31860WAT     H295823   3.627   3.718   6.113
31861WAT      O95824   8.282   6.046   5.943
31861WAT     H195825   8.347   6.053   5.867
31861WAT     H295826   8.269   5.950   5.966
31862WAT      O95827   8.223   0.368   9.070
31862WAT     H195828   8.146   0.428   9.093
31862WAT     H295829   8.194   0.299   9.005
31863WAT      O95830   8.083   5.746   3.209
31863WAT     H195831   7.987   5.772   3.202
31863WAT     H295832   8.104   5.674   3.143
31864WAT      O95833   2.948   0.945   3.657
31864WAT     H195834   2.897   0.973   3.739
31864WAT     H295835   2.884   0.929   3.582
31865WAT      O95836   6.392   3.347   4.565
31865WAT     H195837   6.436   3.435   4.584
31865WAT     H295838   6.345   3.351   4.477
31866WAT      O95839   2.559   6.361   7.570
31866WAT     H195840   2.548   6.340   7.667
31866WAT     H295841   2.495   6.433   7.543
31867WAT      O95842   3.784   4.513   3.113
31867WAT     H195843   3.764   4.524   3.016
31867WAT     H295844   3.768   4.419   3.140
31868WAT      O95845   0.648   2.255   6.113
31868WAT     H195846   0.718   2.310   6.160
31868WAT     H295847   0.585   2.316   6.066
31869WAT      O95848   3.891   1.868   2.001
31869WAT     H195849   3.960   1.796   1.996
31869WAT     H295850   3.819   1.851   1.933
31870WAT      O95851   0.655   1.980   2.290
31870WAT     H195852   0.653   2.050   2.219
31870WAT     H295853   0.578   1.993   2.352
31871WAT      O95854   1.155   4.889   4.849
31871WAT     H195855   1.140   4.987   4.855
31871WAT     H295856   1.078   4.845   4.802
31872WAT      O95857   3.674   5.265   7.894
31872WAT     H195858   3.709   5.335   7.956
31872WAT     H295859   3.640   5.187   7.947
31873WAT      O95860   7.961   3.121   2.388
31873WAT     H195861   8.032   3.187   2.365
31873WAT     H295862   7.964   3.102   2.486
31874WAT      O95863   0.641   8.146   8.923
31874WAT     H195864   0.599   8.058   8.948
31874WAT     H295865   0.685   8.137   8.834
31875WAT      O95866   1.450   9.647   6.072
31875WAT     H195867   1.510   9.660   6.151
31875WAT     H295868   1.505   9.642   5.989
31876WAT      O95869   8.813   1.317   8.331
31876WAT     H195870   8.782   1.248   8.266
31876WAT     H295871   8.822   1.406   8.285
31877WAT      O95872   7.487   4.979   0.153
31877WAT     H195873   7.532   4.966   0.064
31877WAT     H295874   7.555   4.978   0.225
31878WAT      O95875   4.093   9.345   4.456
31878WAT     H195876   4.103   9.432   4.505
31878WAT     H295877   4.021   9.291   4.498
31879WAT      O95878   3.184   3.567   6.194
31879WAT     H195879   3.225   3.493   6.141
31879WAT     H295880   3.256   3.628   6.227
31880WAT      O95881   6.595   2.446   5.295
31880WAT     H195882   6.522   2.404   5.349
31880WAT     H295883   6.675   2.386   5.295
31881WAT      O95884   7.859   4.328   2.979
31881WAT     H195885   7.906   4.260   2.923
31881WAT     H295886   7.925   4.375   3.038
31882WAT      O95887   8.686   1.557   9.376
31882WAT     H195888   8.628   1.476   9.383
31882WAT     H295889   8.711   1.588   9.467
31883WAT      O95890   5.250   8.197   7.084
31883WAT     H195891   5.306   8.119   7.057
31883WAT     H295892   5.177   8.211   7.017
31884WAT      O95893   7.003   8.728   5.041
31884WAT     H195894   6.964   8.663   4.976
31884WAT     H295895   7.005   8.687   5.132
31885WAT      O95896   3.274   0.462   3.157
31885WAT     H195897   3.353   0.414   3.196
31885WAT     H295898   3.277   0.455   3.058
31886WAT      O95899   6.220   9.142   0.407
31886WAT     H195900   6.167   9.094   0.337
31886WAT     H295901   6.210   9.095   0.494
31887WAT      O95902   2.615   9.163   6.802
31887WAT     H195903   2.675   9.214   6.741
31887WAT     H295904   2.559   9.100   6.748
31888WAT      O95905   7.090   0.015   1.614
31888WAT     H195906   6.998   0.037   1.646
31888WAT     H295907   7.141   0.101   1.600
31889WAT      O95908   1.007   0.861   7.309
31889WAT     H195909   0.970   0.907   7.229
31889WAT     H295910   0.969   0.902   7.392
31890WAT      O95911   7.854   3.702   1.131
31890WAT     H195912   7.902   3.662   1.053
31890WAT     H295913   7.883   3.797   1.142
31891WAT      O95914   0.063   6.843   3.999
31891WAT     H195915   0.080   6.936   4.031
31891WAT     H295916   0.018   6.846   3.910
31892WAT      O95917   3.005   8.624   0.916
31892WAT     H195918   3.014   8.656   0.822
31892WAT     H295919   2.962   8.696   0.972
31893WAT      O95920   9.133   6.561   7.964
31893WAT     H195921   9.192   6.572   7.883
31893WAT     H295922   9.169   6.488   8.022
31894WAT      O95923   8.152   3.020   6.969
31894WAT     H195924   8.057   3.025   7.000
31894WAT     H295925   8.194   2.935   7.002
31895WAT      O95926   5.858   7.149   8.256
31895WAT     H195927   5.785   7.161   8.188
31895WAT     H295928   5.946   7.174   8.215
31896WAT      O95929   8.813   3.576   0.282
31896WAT     H195930   8.867   3.493   0.273
31896WAT     H295931   8.715   3.553   0.283
31897WAT      O95932   3.740   4.129   0.098
31897WAT     H195933   3.722   4.222   0.130
31897WAT     H295934   3.833   4.123   0.062
31898WAT      O95935   6.004   2.529   9.311
31898WAT     H195936   6.025   2.494   9.220
31898WAT     H295937   6.084   2.523   9.370
31899WAT      O95938   9.636   8.233   4.048
31899WAT     H195939   9.697   8.310   4.032
31899WAT     H295940   9.681   8.167   4.107
   9.88928    9.84380    9.89279 
